 Gaussian 16, Revision A.03,

 -----------------------------------------------------------
 # opt freq B3LYP/6-31G(d) empiricaldispersion=gd3bj scf=xqc
 -----------------------------------------------------------

 -------------------------------
 CID_60839722_JID_10563_neutraal
 -------------------------------
 Symbolic Z-matrix:
 Charge =  0 Multiplicity = 1

 SCF Done:  E(RB3LYP) =  -1353.10766060     A.U. after   14 cycles
 SCF Done:  E(RB3LYP) =  -1353.11676464     A.U. after   13 cycles
 SCF Done:  E(RB3LYP) =  -1353.11499250     A.U. after   13 cycles
 SCF Done:  E(RB3LYP) =  -1353.11759364     A.U. after   12 cycles
 SCF Done:  E(RB3LYP) =  -1353.11901274     A.U. after   13 cycles
 SCF Done:  E(RB3LYP) =  -1353.11936145     A.U. after   13 cycles
 SCF Done:  E(RB3LYP) =  -1353.11991280     A.U. after   13 cycles
 SCF Done:  E(RB3LYP) =  -1353.12104646     A.U. after   13 cycles
 SCF Done:  E(RB3LYP) =  -1353.12163535     A.U. after   13 cycles
 SCF Done:  E(RB3LYP) =  -1353.12222419     A.U. after   12 cycles
 SCF Done:  E(RB3LYP) =  -1353.12317310     A.U. after    9 cycles
 SCF Done:  E(RB3LYP) =  -1353.12317441     A.U. after   10 cycles
 SCF Done:  E(RB3LYP) =  -1353.12317477     A.U. after    8 cycles
 SCF Done:  E(RB3LYP) =  -1353.12317498     A.U. after    8 cycles
 SCF Done:  E(RB3LYP) =  -1353.12317504     A.U. after    7 cycles
 Optimization completed.
    -- Stationary point found.
 Normal termination of Gaussian 16 at Mon Dec 14 18:00:58 2020.

 --------------------------------------------------------------------
 #N Geom=AllCheck Guess=TCheck SCRF=Check GenChk RB3LYP/6-31G(d) Freq
 --------------------------------------------------------------------

 Structure from the checkpoint file:  "JID_10563.chk"
 -------------------------------
 CID_60839722_JID_10563_neutraal
 -------------------------------
 Charge =  0 Multiplicity = 1

 SCF Done:  E(RB3LYP) =  -1353.12317504     A.U. after    1 cycles

  Exact polarizability: 198.863   5.230 150.869   5.994   4.504 135.625
 Approx polarizability: 259.830  10.269 227.603  19.584  14.458 230.107

                      1                      2                      3
                      A                      A                      A
 Frequencies --     30.1724                40.2045                43.4748
 Red. masses --      7.2928                 5.5170                 5.8153
 Frc consts  --      0.0039                 0.0053                 0.0065
 IR Inten    --      0.6962                 1.0413                 1.1085

                      4                      5                      6
                      A                      A                      A
 Frequencies --     50.8635                72.0367                88.5800
 Red. masses --      6.0932                 4.2133                 3.4066
 Frc consts  --      0.0093                 0.0129                 0.0157
 IR Inten    --      2.5493                 2.6478                 1.8915

                      7                      8                      9
                      A                      A                      A
 Frequencies --     93.3436               108.1465               113.2246
 Red. masses --      5.4991                 4.3649                 5.2334
 Frc consts  --      0.0282                 0.0301                 0.0395
 IR Inten    --      2.0949                 0.7891                 0.2647

                     10                     11                     12
                      A                      A                      A
 Frequencies --    134.9869               148.9759               176.9740
 Red. masses --      5.8019                 4.2420                 3.6939
 Frc consts  --      0.0623                 0.0555                 0.0682
 IR Inten    --      0.5923                 1.1410                 1.6310

                     13                     14                     15
                      A                      A                      A
 Frequencies --    194.6443               234.1328               248.1961
 Red. masses --      2.6270                 2.0620                 2.8277
 Frc consts  --      0.0586                 0.0666                 0.1026
 IR Inten    --      1.7278                 3.3621                 6.3989

                     16                     17                     18
                      A                      A                      A
 Frequencies --    274.9994               301.3935               320.2188
 Red. masses --      3.3883                 3.4412                 3.4609
 Frc consts  --      0.1510                 0.1842                 0.2091
 IR Inten    --      1.1283                 2.4646                 2.4834

                     19                     20                     21
                      A                      A                      A
 Frequencies --    324.6784               368.9867               383.6878
 Red. masses --      5.1539                 3.4950                 4.0886
 Frc consts  --      0.3201                 0.2804                 0.3546
 IR Inten    --      4.0691                10.4705                14.1612

                     22                     23                     24
                      A                      A                      A
 Frequencies --    397.5056               405.9718               415.3696
 Red. masses --      4.3110                 3.2177                 4.7108
 Frc consts  --      0.4013                 0.3125                 0.4789
 IR Inten    --      7.2538                 6.2009                15.6002

                     25                     26                     27
                      A                      A                      A
 Frequencies --    453.9544               491.1334               507.8480
 Red. masses --      2.2544                 2.7383                 2.2545
 Frc consts  --      0.2737                 0.3892                 0.3426
 IR Inten    --      1.0254                24.2628                26.0883

                     28                     29                     30
                      A                      A                      A
 Frequencies --    550.0757               568.4694               574.2849
 Red. masses --      2.5895                 3.7630                 3.9774
 Frc consts  --      0.4616                 0.7165                 0.7729
 IR Inten    --      7.5343                 7.5799                 6.1800

                     31                     32                     33
                      A                      A                      A
 Frequencies --    602.0000               617.1251               648.6953
 Red. masses --      1.3919                 3.1866                 2.8655
 Frc consts  --      0.2972                 0.7150                 0.7104
 IR Inten    --    112.4402                68.4352                20.8140

                     34                     35                     36
                      A                      A                      A
 Frequencies --    668.4132               676.5886               726.0101
 Red. masses --      1.7847                 5.0022                 2.8839
 Frc consts  --      0.4698                 1.3492                 0.8956
 IR Inten    --     35.8259                10.2213                14.3427

                     37                     38                     39
                      A                      A                      A
 Frequencies --    765.3220               775.1381               786.5298
 Red. masses --      4.4129                 2.9418                 1.8810
 Frc consts  --      1.5229                 1.0414                 0.6856
 IR Inten    --     40.4030                10.2481                 5.7632

                     40                     41                     42
                      A                      A                      A
 Frequencies --    791.9147               824.6583               851.5714
 Red. masses --      1.5074                 2.2151                 1.5522
 Frc consts  --      0.5570                 0.8876                 0.6632
 IR Inten    --      8.4001                 0.8746                 7.1710

                     43                     44                     45
                      A                      A                      A
 Frequencies --    874.2076               885.2826               888.7597
 Red. masses --      2.1407                 3.9642                 3.2077
 Frc consts  --      0.9639                 1.8305                 1.4929
 IR Inten    --      3.4569                 2.5729                18.7579

                     46                     47                     48
                      A                      A                      A
 Frequencies --    897.6084               930.2607               961.7438
 Red. masses --      2.4418                 2.0250                 2.8947
 Frc consts  --      1.1591                 1.0325                 1.5775
 IR Inten    --      2.3546                18.4275                 7.1404

                     49                     50                     51
                      A                      A                      A
 Frequencies --    965.9647               983.0610               994.4172
 Red. masses --      1.9952                 1.8362                 1.6030
 Frc consts  --      1.0969                 1.0455                 0.9340
 IR Inten    --      1.2023                 0.2070                 1.4035

                     52                     53                     54
                      A                      A                      A
 Frequencies --   1026.5698              1043.1914              1062.9384
 Red. masses --      1.9097                 1.7607                 1.7243
 Frc consts  --      1.1858                 1.1289                 1.1478
 IR Inten    --     14.0952                 4.5341                40.8448

                     55                     56                     57
                      A                      A                      A
 Frequencies --   1069.6015              1072.0085              1086.9285
 Red. masses --      2.0588                 1.5433                 2.0115
 Frc consts  --      1.3878                 1.0449                 1.4001
 IR Inten    --      4.2162                 9.5985                31.0605

                     58                     59                     60
                      A                      A                      A
 Frequencies --   1091.9130              1099.4155              1117.0534
 Red. masses --      1.3768                 2.7694                 1.6456
 Frc consts  --      0.9671                 1.9722                 1.2098
 IR Inten    --      1.1932                70.8470                74.8098

                     61                     62                     63
                      A                      A                      A
 Frequencies --   1144.4517              1149.4335              1158.0827
 Red. masses --      1.8564                 1.8810                 1.1374
 Frc consts  --      1.4326                 1.4642                 0.8988
 IR Inten    --     12.3213               159.7153                 3.3160

                     64                     65                     66
                      A                      A                      A
 Frequencies --   1190.1051              1200.3645              1212.6371
 Red. masses --      2.1068                 2.0682                 1.4276
 Frc consts  --      1.7581                 1.7558                 1.2368
 IR Inten    --     17.1345                89.3622                 0.3468

                     67                     68                     69
                      A                      A                      A
 Frequencies --   1217.5718              1237.4871              1246.5777
 Red. masses --      2.1841                 1.7196                 1.6667
 Frc consts  --      1.9077                 1.5515                 1.5259
 IR Inten    --      1.0534                21.6116                17.9842

                     70                     71                     72
                      A                      A                      A
 Frequencies --   1253.3018              1295.1579              1305.0095
 Red. masses --      1.8213                 1.6577                 2.1230
 Frc consts  --      1.6855                 1.6384                 2.1302
 IR Inten    --     55.3019               176.5348                50.0364

                     73                     74                     75
                      A                      A                      A
 Frequencies --   1309.5584              1321.1248              1329.9506
 Red. masses --      1.6554                 1.8203                 1.7686
 Frc consts  --      1.6726                 1.8719                 1.8431
 IR Inten    --     31.3777                40.0485                 9.1801

                     76                     77                     78
                      A                      A                      A
 Frequencies --   1365.5440              1370.7834              1392.4690
 Red. masses --      1.3866                 1.4078                 1.7808
 Frc consts  --      1.5234                 1.5586                 2.0344
 IR Inten    --     21.6756                 4.4268               133.3512

                     79                     80                     81
                      A                      A                      A
 Frequencies --   1399.8659              1413.3401              1419.1247
 Red. masses --      1.6074                 1.6255                 1.2514
 Frc consts  --      1.8558                 1.9130                 1.4849
 IR Inten    --      8.8625                 6.3937                16.1463

                     82                     83                     84
                      A                      A                      A
 Frequencies --   1431.4253              1465.6293              1477.4455
 Red. masses --      1.2159                 1.5849                 1.4834
 Frc consts  --      1.4679                 2.0059                 1.9078
 IR Inten    --      2.7193                11.0483                66.2278

                     85                     86                     87
                      A                      A                      A
 Frequencies --   1484.1981              1486.8539              1489.5319
 Red. masses --      1.0952                 1.1083                 1.0920
 Frc consts  --      1.4215                 1.4435                 1.4275
 IR Inten    --     10.3648                 1.5508                 8.7339

                     88                     89                     90
                      A                      A                      A
 Frequencies --   1514.0344              1525.8025              1528.3719
 Red. masses --      1.1033                 1.0577                 1.3619
 Frc consts  --      1.4901                 1.4509                 1.8743
 IR Inten    --     25.4074                 7.4474                11.9033

                     91                     92                     93
                      A                      A                      A
 Frequencies --   1549.6706              1557.0785              1773.0522
 Red. masses --      1.0612                 1.0806                 7.8994
 Frc consts  --      1.5015                 1.5436                14.6315
 IR Inten    --     18.1909                 5.4829               280.8646

                     94                     95                     96
                      A                      A                      A
 Frequencies --   1841.8182              3074.6763              3081.1021
 Red. masses --      9.5279                 1.0358                 1.0770
 Frc consts  --     19.0432                 5.7694                 6.0237
 IR Inten    --    283.2701                18.0248                 2.9029

                     97                     98                     99
                      A                      A                      A
 Frequencies --   3089.0013              3103.2865              3114.8148
 Red. masses --      1.0795                 1.0623                 1.0573
 Frc consts  --      6.0690                 6.0275                 6.0436
 IR Inten    --     19.4632                10.9817                 2.4369

                    100                    101                    102
                      A                      A                      A
 Frequencies --   3123.0259              3134.6498              3142.1343
 Red. masses --      1.0865                 1.0713                 1.0983
 Frc consts  --      6.2433                 6.2023                 6.3890
 IR Inten    --      3.6356                 1.2502                27.7796

                    103                    104                    105
                      A                      A                      A
 Frequencies --   3151.6038              3155.3263              3157.0331
 Red. masses --      1.1032                 1.0590                 1.0755
 Frc consts  --      6.4563                 6.2123                 6.3156
 IR Inten    --     26.1613                 9.1049                12.4054

                    106                    107                    108
                      A                      A                      A
 Frequencies --   3163.1921              3165.1841              3171.8574
 Red. masses --      1.0643                 1.0933                 1.1036
 Frc consts  --      6.2744                 6.4531                 6.5415
 IR Inten    --      8.6229                 9.3411                 5.1708

                    109                    110                    111
                      A                      A                      A
 Frequencies --   3181.3537              3235.7093              3251.4441
 Red. masses --      1.1102                 1.1197                 1.1166
 Frc consts  --      6.6201                 6.9069                 6.9548
 IR Inten    --      3.8857                 2.1651                12.8181

                    112                    113                    114
                      A                      A                      A
 Frequencies --   3259.0252              3563.7296              3669.9751
 Red. masses --      1.0936                 1.0756                 1.0640
 Frc consts  --      6.8438                 8.0482                 8.4432
 IR Inten    --      1.2644                17.0413                50.1335

 - Thermochemistry -
 -------------------
 Temperature   298.150 Kelvin.  Pressure   1.00000 Atm.
 Atom     1 has atomic number  6 and mass  12.00000

 Molecular mass:   304.10929 amu.
 Principal axes and moments of inertia in atomic units:
                           1         2         3
     Eigenvalues --  3403.495568589.63725**********
           X            0.99960   0.02785   0.00470
           Y           -0.02785   0.99961   0.00129
           Z           -0.00466  -0.00142   0.99999
 This molecule is an asymmetric top.
 Rotational symmetry number  1.
 Warning -- assumption of classical behavior for rotation
           may cause significant error
 Rotational temperatures (Kelvin)      0.02545     0.01008     0.00833
 Rotational constants (GHZ):           0.53026     0.21011     0.17359
 Zero-point vibrational energy     872953.4 (Joules/Mol)
                                  208.64086 (Kcal/Mol)
 Warning -- explicit consideration of  32 degrees of freedom as
           vibrations may cause significant error
 Vibrational temperatures:     43.41    57.85    62.55    73.18   103.64
          (Kelvin)            127.45   134.30   155.60   162.90   194.22
                              214.34   254.63   280.05   336.86   357.10
                              395.66   433.64   460.72   467.14   530.89
                              552.04   571.92   584.10   597.62   653.14
                              706.63   730.68   791.44   817.90   826.27
                              866.14   887.91   933.33   961.70   973.46
                             1044.57  1101.13  1115.25  1131.64  1139.39
                             1186.50  1225.22  1257.79  1273.72  1278.73
                             1291.46  1338.44  1383.73  1389.81  1414.41
                             1430.74  1477.01  1500.92  1529.33  1538.92
                             1542.38  1563.85  1571.02  1581.81  1607.19
                             1646.61  1653.78  1666.22  1712.30  1727.06
                             1744.71  1751.81  1780.47  1793.55  1803.22
                             1863.44  1877.62  1884.16  1900.80  1913.50
                             1964.71  1972.25  2003.45  2014.09  2033.48
                             2041.80  2059.50  2108.71  2125.71  2135.43
                             2139.25  2143.10  2178.36  2195.29  2198.99
                             2229.63  2240.29  2551.03  2649.97  4423.77
                             4433.02  4444.38  4464.94  4481.52  4493.34
                             4510.06  4520.83  4534.45  4539.81  4542.27
                             4551.13  4553.99  4563.60  4577.26  4655.46
                             4678.10  4689.01  5127.41  5280.28

 Zero-point correction=                           0.332490 (Hartree/Particle)
 Thermal correction to Energy=                    0.352707
 Thermal correction to Enthalpy=                  0.353651
 Thermal correction to Gibbs Free Energy=         0.282483
 Sum of electronic and zero-point Energies=          -1352.790685
 Sum of electronic and thermal Energies=             -1352.770468
 Sum of electronic and thermal Enthalpies=           -1352.769524
 Sum of electronic and thermal Free Energies=        -1352.840692

                     E (Thermal)             CV                S
                      KCal/Mol        Cal/Mol-Kelvin    Cal/Mol-Kelvin
 Total                  221.327             76.579            149.786
 Electronic               0.000              0.000              0.000
 Translational            0.889              2.981             43.033
 Rotational               0.889              2.981             34.074
 Vibrational            219.549             70.618             72.679
 Vibration     1          0.594              1.984              5.818
 Vibration     2          0.594              1.981              5.249
 Vibration     3          0.595              1.980              5.094
 Vibration     4          0.595              1.977              4.784
 Vibration     5          0.598              1.967              4.097
 Vibration     6          0.601              1.957              3.691
 Vibration     7          0.602              1.954              3.589
 Vibration     8          0.606              1.943              3.302
 Vibration     9          0.607              1.938              3.213
 Vibration    10          0.613              1.918              2.874
 Vibration    11          0.618              1.904              2.685
 Vibration    12          0.628              1.871              2.360
 Vibration    13          0.635              1.847              2.183
 Vibration    14          0.654              1.789              1.847
 Vibration    15          0.662              1.766              1.743
 Vibration    16          0.677              1.720              1.565
 Vibration    17          0.693              1.671              1.409
 Vibration    18          0.706              1.635              1.309
 Vibration    19          0.709              1.626              1.286
 Vibration    20          0.741              1.536              1.084
 Vibration    21          0.753              1.505              1.025
 Vibration    22          0.764              1.475              0.972
 Vibration    23          0.771              1.457              0.941
 Vibration    24          0.779              1.437              0.908
 Vibration    25          0.812              1.352              0.784
 Vibration    26          0.847              1.270              0.681
 Vibration    27          0.863              1.233              0.639
 Vibration    28          0.905              1.140              0.544
 Vibration    29          0.924              1.099              0.507
 Vibration    30          0.931              1.087              0.496
 Vibration    31          0.960              1.028              0.446
 Vibration    32          0.977              0.996              0.421

 Optimization completed.
    -- Stationary point found.
 Normal termination of Gaussian 16 at Mon Dec 14 18:23:51 2020.

 ----------------------------------------------------------------------
 # B3LYP/6-311++G(d,p) empiricaldispersion=gd3bj scf=xqc pop=npa geom=c
 heck
 ----------------------------------------------------------------------

 ---------------------------------------
 CID_60839722_JID_10563_Energie_neutraal
 ---------------------------------------
 Structure from the checkpoint file:  "JID_10563.chk"
 Charge =  0 Multiplicity = 1

 SCF Done:  E(RB3LYP) =  -1353.43718775     A.U. after   15 cycles
 Normal termination of Gaussian 16 at Mon Dec 14 18:32:50 2020.

 ----------------------------------------------------------------------
 # B3LYP/6-311++G(d,p) empiricaldispersion=gd3bj scf=xqc pop=npa geom=c
 heck
 ----------------------------------------------------------------------

 -------------------------------------
 CID_60839722_JID_10563_Energie_kation
 -------------------------------------
 Structure from the checkpoint file:  "JID_10563.chk"
 Charge =  1 Multiplicity = 2

 SCF Done:  E(UB3LYP) =  -1353.13543142     A.U. after   26 cycles
 Normal termination of Gaussian 16 at Mon Dec 14 18:53:54 2020.
 Gaussian 16:  ES64L-G16RevA.03 25-Dec-2016

 ----------------------------------------------------------------------
 # B3LYP/6-311++G(d,p) empiricaldispersion=gd3bj scf=xqc pop=npa geom=c
 heck
 ----------------------------------------------------------------------

 ------------------------------------
 CID_60839722_JID_10563_Energie_anion
 ------------------------------------
 Structure from the checkpoint file:  "JID_10563.chk"
 Charge = -1 Multiplicity = 2

                         Standard orientation:
 ---------------------------------------------------------------------
 Center     Atomic      Atomic             Coordinates (Angstroms)
 Number     Number       Type             X           Y           Z
 ---------------------------------------------------------------------
      1          6           0       -0.379508   -2.107071   -0.409475
      2          6           0       -0.829861   -0.633152   -0.295063
      3          6           0       -1.610026   -0.448524    1.015668
      4          8           0       -1.038487   -0.273286    2.088743
      5          7           0       -2.973256   -0.568541    0.962146
      6          6           0       -3.804301   -0.517000   -0.207834
      7          6           0       -4.010714   -1.767316   -1.033230
      8          6           0       -5.116737   -1.250804   -0.151522
      9          7           0        0.253326    0.357797   -0.510317
     10          6           0       -0.212068    1.536707   -1.245943
     11          6           0       -0.876685    2.578974   -0.352828
     12          8           0       -0.307045    3.491420    0.203125
     13          8           0       -2.198750    2.326739   -0.168261
     14          6           0        1.198471    0.684052    0.581369
     15          6           0        2.361331    1.569528    0.064098
     16          6           0        3.180853    0.723260   -0.908704
     17         16           0        3.263756   -0.913436   -0.082677
     18          8           0        4.537142   -1.019943    0.651048
     19          8           0        2.864172   -1.978973   -1.020025
     20          6           0        1.919426   -0.555368    1.116716
     21          1           0       -0.123194   -2.545968    0.557754
     22          1           0        0.488159   -2.183361   -1.067783
     23          1           0       -1.198799   -2.701478   -0.824566
     24          1           0       -1.513092   -0.467118   -1.127460
     25          1           0       -3.415578   -0.396022    1.858652
     26          1           0       -3.790980    0.433137   -0.738180
     27          1           0       -4.102089   -1.656372   -2.109658
     28          1           0       -3.495291   -2.664299   -0.707160
     29          1           0       -5.334887   -1.811239    0.753179
     30          1           0       -5.979913   -0.779546   -0.611075
     31          1           0        0.627699    2.023152   -1.744018
     32          1           0       -0.912553    1.212205   -2.017803
     33          1           0       -2.512068    2.970311    0.496254
     34          1           0        0.698768    1.182732    1.417366
     35          1           0        2.976581    1.831612    0.931847
     36          1           0        2.024897    2.511373   -0.368703
     37          1           0        4.205529    1.066224   -1.059445
     38          1           0        2.679253    0.573337   -1.866462
     39          1           0        1.308348   -1.439739    1.249237
     40          1           0        2.411288   -0.316121    2.061495
 ---------------------------------------------------------------------

 SCF Done:  E(UB3LYP) =  -1353.43433178     A.U. after   33 cycles
 SCF Done:  E(UB3LYP) =  -1353.43433178     a.u. after    1 cycles

 The electronic state is 2-A.
 Alpha  occ. eigenvalues --  -88.95643 -19.07876 -19.02970 -19.02945 -19.02817
 Alpha  occ. eigenvalues --  -19.00484 -14.25267 -14.24314 -10.21305 -10.18711
 Alpha  occ. eigenvalues --  -10.13984 -10.13189 -10.12778 -10.12743 -10.12579
 Alpha  occ. eigenvalues --  -10.12335 -10.10903 -10.09321 -10.09147 -10.07868
 Alpha  occ. eigenvalues --   -8.02188  -5.98450  -5.98322  -5.98287  -1.01970
 Alpha  occ. eigenvalues --   -1.01922  -0.95675  -0.93231  -0.91674  -0.85766
 Alpha  occ. eigenvalues --   -0.84918  -0.76577  -0.75819  -0.69409  -0.67793
 Alpha  occ. eigenvalues --   -0.64123  -0.61460  -0.57188  -0.54253  -0.53515
 Alpha  occ. eigenvalues --   -0.52710  -0.50907  -0.50584  -0.47108  -0.44849
 Alpha  occ. eigenvalues --   -0.43479  -0.43109  -0.41471  -0.40919  -0.40641
 Alpha  occ. eigenvalues --   -0.39868  -0.39350  -0.38045  -0.37411  -0.36580
 Alpha  occ. eigenvalues --   -0.35908  -0.35183  -0.34925  -0.34053  -0.33084
 Alpha  occ. eigenvalues --   -0.32167  -0.31992  -0.31144  -0.30397  -0.29855
 Alpha  occ. eigenvalues --   -0.29499  -0.28881  -0.28492  -0.27199  -0.26529
 Alpha  occ. eigenvalues --   -0.24447  -0.23798  -0.23614  -0.23354  -0.22450
 Alpha  occ. eigenvalues --   -0.21855  -0.21093  -0.19885  -0.18047  -0.16940
 Alpha  occ. eigenvalues --   -0.13975   0.03664
 Alpha virt. eigenvalues --    0.06092   0.06503   0.06914   0.07392   0.07793
 Alpha virt. eigenvalues --    0.07990   0.08647   0.09193   0.09208   0.09579
 Alpha virt. eigenvalues --    0.10538   0.10624   0.11219   0.11692   0.12259

  Beta  occ. eigenvalues --  -88.95643 -19.07817 -19.02968 -19.02944 -19.02783
  Beta  occ. eigenvalues --  -19.00467 -14.25263 -14.24313 -10.21243 -10.18700
  Beta  occ. eigenvalues --  -10.13982 -10.13180 -10.12758 -10.12732 -10.12546
  Beta  occ. eigenvalues --  -10.12333 -10.10895 -10.09294 -10.09124 -10.07864
  Beta  occ. eigenvalues --   -8.02188  -5.98450  -5.98321  -5.98286  -1.01925
  Beta  occ. eigenvalues --   -1.01856  -0.95646  -0.93143  -0.91672  -0.85756
  Beta  occ. eigenvalues --   -0.84894  -0.76563  -0.75789  -0.69373  -0.67776
  Beta  occ. eigenvalues --   -0.64066  -0.61411  -0.57157  -0.54217  -0.53414
  Beta  occ. eigenvalues --   -0.52638  -0.50891  -0.50519  -0.47071  -0.44815
  Beta  occ. eigenvalues --   -0.43451  -0.43059  -0.41432  -0.40846  -0.40571
  Beta  occ. eigenvalues --   -0.39809  -0.39304  -0.38020  -0.37388  -0.36556
  Beta  occ. eigenvalues --   -0.35890  -0.35124  -0.34891  -0.33968  -0.33046
  Beta  occ. eigenvalues --   -0.32131  -0.31946  -0.31106  -0.30366  -0.29843
  Beta  occ. eigenvalues --   -0.29468  -0.28849  -0.28472  -0.27170  -0.26514
  Beta  occ. eigenvalues --   -0.24429  -0.23694  -0.23554  -0.23348  -0.22417
  Beta  occ. eigenvalues --   -0.21851  -0.21065  -0.19866  -0.18022  -0.16907
  Beta  occ. eigenvalues --   -0.13954
  Beta virt. eigenvalues --    0.06136   0.06594   0.07146   0.07460   0.07947
  Beta virt. eigenvalues --    0.08146   0.08282   0.08847   0.09244   0.09640
  Beta virt. eigenvalues --    0.09982   0.10692   0.11035   0.11420   0.11755

 Mulliken charges and spin densities:
               1          2
     1  C   -0.884191   0.198021
     2  C    0.684722  -0.629302
     3  C   -0.212382  -0.011928
     4  O   -0.269752   0.013422
     5  N   -0.289428   0.161241
     6  C   -1.325130   1.151270
     7  C    0.026662  -0.268433
     8  C    1.571955  -2.153107
     9  N    0.443282   0.080754
    10  C    0.457874  -1.021963
    11  C    0.070686  -0.032055
    12  O   -0.244476   0.024545
    13  O   -0.177739   0.055043
    14  C   -0.307005   0.522697
    15  C    0.005669  -0.442837
    16  C   -0.791620   0.024347
    17  S    0.564283  -0.044122
    18  O   -0.163217  -0.001795
    19  O   -0.160264   0.004451
    20  C   -0.913936  -0.059853
    21  H    0.140136   0.044021
    22  H    0.254618  -0.018788
    23  H   -0.135255   0.246230
    24  H    0.963496  -0.712501
    25  H    0.075216   0.225044
    26  H    0.097058   0.210702
    27  H   -0.449758   0.620963
    28  H    0.303619  -0.168382
    29  H    0.084898   0.042013
    30  H   -0.430789   0.607628
    31  H   -0.266998   0.460078
    32  H   -0.708453   0.902910
    33  H   -0.442591   0.753835
    34  H    0.278465   0.037731
    35  H    0.181831  -0.004727
    36  H    0.132374   0.069588
    37  H    0.176018   0.074664
    38  H    0.159726   0.051477
    39  H    0.238508  -0.042093
    40  H    0.261890   0.029211
 Sum of Mulliken charges =  -1.00000   1.00000

 Dipole moment (field-independent basis, Debye):
    X=              5.3576    Y=             -2.4710    Z=              2.6271  Tot=              6.4584
 Quadrupole moment (field-independent basis, Debye-Ang):
   XX=           -224.9510   YY=           -176.6529   ZZ=           -166.5152
   XY=             22.9172   XZ=            -11.8932   YZ=             -3.3131

 Summary of Natural Population Analysis:

                                       Natural Population
                Natural  -----------------------------------------------
    Atom  No    Charge         Core      Valence    Rydberg      Total
 -----------------------------------------------------------------------
      C    1   -0.29145      0.99963     2.28674    0.00508     3.29145
      C    2   -0.04516      0.99953     2.03171    0.01392     3.04516
      C    3    0.34964      0.99963     1.62675    0.02397     2.65036
      O    4   -0.33140      0.99988     3.32532    0.00621     4.33140
      N    5   -0.31577      0.99965     2.80490    0.01122     3.81577
      C    6   -0.03263      0.99956     2.01942    0.01365     3.03263
      C    7   -0.19929      0.99962     2.19043    0.00924     3.19929
      C    8   -0.19406      0.99962     2.18500    0.00945     3.19406
      N    9   -0.28416      0.99970     2.76793    0.01652     3.78416
      C   10   -0.12768      0.99955     2.11511    0.01301     3.12768
      C   11    0.40337      0.99972     1.57205    0.02486     2.59663
      O   12   -0.30515      0.99987     3.29922    0.00606     4.30515
      O   13   -0.34534      0.99988     3.33773    0.00774     4.34534
      C   14   -0.01374      0.99957     2.00042    0.01375     3.01374
      C   15   -0.20790      0.99961     2.19802    0.01028     3.20790
      C   16   -0.28791      0.99959     2.27746    0.01085     3.28791
      S   17    1.00687      4.99931     1.89950    0.09432     6.99313
      O   18   -0.47130      0.99991     3.46617    0.00521     4.47130
      O   19   -0.46595      0.99991     3.45998    0.00606     4.46595
      C   20   -0.28446      0.99955     2.27457    0.01034     3.28446
      H   21    0.09542      0.00000     0.40363    0.00095     0.40458
      H   22    0.12148      0.00000     0.37715    0.00137     0.37852
      H   23    0.10223      0.00000     0.39693    0.00084     0.39777
      H   24    0.11047      0.00000     0.38647    0.00306     0.38953
      H   25    0.19374      0.00000     0.30367    0.00259     0.30626
      H   26    0.11322      0.00000     0.38137    0.00541     0.38678
      H   27    0.10869      0.00000     0.38984    0.00147     0.39131
      H   28    0.10252      0.00000     0.39643    0.00105     0.39748
      H   29    0.10183      0.00000     0.39717    0.00100     0.39817
      H   30    0.10991      0.00000     0.38836    0.00173     0.39009
      H   31    0.10423      0.00000     0.39426    0.00151     0.39577
      H   32    0.11333      0.00000     0.38432    0.00234     0.38667
      H   33    0.24694      0.00000     0.24244    0.01062     0.25306
      H   34    0.11335      0.00000     0.38487    0.00178     0.38665
      H   35    0.10521      0.00000     0.39377    0.00102     0.39479
      H   36    0.12142      0.00000     0.37741    0.00117     0.37858
      H   37    0.11592      0.00000     0.38306    0.00102     0.38408
      H   38    0.11928      0.00000     0.37924    0.00149     0.38072
      H   39    0.12573      0.00000     0.37282    0.00145     0.37427
      H   40    0.11854      0.00000     0.38052    0.00093     0.38146
 =======================================================================
   * Total *   -0.00000     23.99328    56.65217    0.35456    81.00000

 Normal termination of Gaussian 16 at Mon Dec 14 19:21:09 2020.
