 Gaussian 16, Revision A.03,

 -----------------------------------------------------------
 # opt freq B3LYP/6-31G(d) empiricaldispersion=gd3bj scf=xqc
 -----------------------------------------------------------

 -------------------------------
 CID_103022516_JID_6075_neutraal
 -------------------------------
 Symbolic Z-matrix:
 Charge =  0 Multiplicity = 1

 SCF Done:  E(RB3LYP) =  -732.921789907     A.U. after   15 cycles
 SCF Done:  E(RB3LYP) =  -732.927627656     A.U. after   11 cycles
 SCF Done:  E(RB3LYP) =  -732.925338537     A.U. after   12 cycles
 SCF Done:  E(RB3LYP) =  -732.923756171     A.U. after   12 cycles
 SCF Done:  E(RB3LYP) =  -732.919226359     A.U. after   12 cycles
 SCF Done:  E(RB3LYP) =  -732.927674247     A.U. after    8 cycles
 SCF Done:  E(RB3LYP) =  -732.928849846     A.U. after   11 cycles
 SCF Done:  E(RB3LYP) =  -732.927859643     A.U. after   12 cycles
 SCF Done:  E(RB3LYP) =  -732.929202066     A.U. after   11 cycles
 SCF Done:  E(RB3LYP) =  -732.929518492     A.U. after   11 cycles
 SCF Done:  E(RB3LYP) =  -732.931667476     A.U. after    9 cycles
 SCF Done:  E(RB3LYP) =  -732.931665095     A.U. after    9 cycles
 SCF Done:  E(RB3LYP) =  -732.931668897     A.U. after    8 cycles
 SCF Done:  E(RB3LYP) =  -732.931668946     A.U. after    7 cycles
 SCF Done:  E(RB3LYP) =  -732.931668984     A.U. after    6 cycles
 Optimization completed.
    -- Stationary point found.
 Normal termination of Gaussian 16 at Thu Dec 10 21:55:59 2020.

 --------------------------------------------------------------------
 #N Geom=AllCheck Guess=TCheck SCRF=Check GenChk RB3LYP/6-31G(d) Freq
 --------------------------------------------------------------------

 Structure from the checkpoint file:  "JID_6075.chk"
 -------------------------------
 CID_103022516_JID_6075_neutraal
 -------------------------------
 Charge =  0 Multiplicity = 1

 SCF Done:  E(RB3LYP) =  -732.931668984     A.U. after    1 cycles

  Exact polarizability: 164.804  -2.041 150.903  -0.443  -1.199 125.294
 Approx polarizability: 205.433  -4.711 219.337  -1.376  -9.121 179.961

                      1                      2                      3
                      A                      A                      A
 Frequencies --     32.1296                45.8818                54.1272
 Red. masses --      3.8159                 3.0766                 3.5706
 Frc consts  --      0.0023                 0.0038                 0.0062
 IR Inten    --      0.6960                 1.5566                 0.9050

                      4                      5                      6
                      A                      A                      A
 Frequencies --     71.8996                88.5702                92.5016
 Red. masses --      2.4157                 2.9562                 2.2756
 Frc consts  --      0.0074                 0.0137                 0.0115
 IR Inten    --      0.3656                 0.1327                 0.3289

                      7                      8                      9
                      A                      A                      A
 Frequencies --    110.7651               135.2119               143.7902
 Red. masses --      1.9738                 3.0890                 2.5368
 Frc consts  --      0.0143                 0.0333                 0.0309
 IR Inten    --      1.0588                 1.5426                 0.9252

                     10                     11                     12
                      A                      A                      A
 Frequencies --    158.0612               186.4050               194.5036
 Red. masses --      2.2160                 1.2811                 1.5798
 Frc consts  --      0.0326                 0.0262                 0.0352
 IR Inten    --      7.4782                 0.3404                 2.0605

                     13                     14                     15
                      A                      A                      A
 Frequencies --    202.3769               223.1600               240.7335
 Red. masses --      1.6605                 1.4522                 1.4371
 Frc consts  --      0.0401                 0.0426                 0.0491
 IR Inten    --      0.3516                 1.4606                 0.6050

                     16                     17                     18
                      A                      A                      A
 Frequencies --    253.1206               258.8095               265.3775
 Red. masses --      1.5884                 1.2921                 1.5336
 Frc consts  --      0.0600                 0.0510                 0.0636
 IR Inten    --      3.0239                28.7207                 6.9606

                     19                     20                     21
                      A                      A                      A
 Frequencies --    287.0333               297.8885               303.8940
 Red. masses --      2.4064                 2.0638                 2.1890
 Frc consts  --      0.1168                 0.1079                 0.1191
 IR Inten    --      2.3473                 6.0389                 0.5836

                     22                     23                     24
                      A                      A                      A
 Frequencies --    315.6876               349.5756               362.7837
 Red. masses --      2.7227                 2.8054                 2.5397
 Frc consts  --      0.1599                 0.2020                 0.1969
 IR Inten    --      3.7317                 4.1965                 0.4783

                     25                     26                     27
                      A                      A                      A
 Frequencies --    375.3244               407.7809               443.9581
 Red. masses --      3.1083                 3.8068                 3.8453
 Frc consts  --      0.2580                 0.3730                 0.4465
 IR Inten    --      7.8654                 5.3328                 3.7657

                     28                     29                     30
                      A                      A                      A
 Frequencies --    453.1039               496.0367               558.3509
 Red. masses --      3.0504                 4.5644                 2.9555
 Frc consts  --      0.3690                 0.6617                 0.5429
 IR Inten    --     10.0226                 8.2097                 2.9710

                     31                     32                     33
                      A                      A                      A
 Frequencies --    586.7380               641.4036               713.1803
 Red. masses --      2.8365                 2.7891                 3.2830
 Frc consts  --      0.5753                 0.6761                 0.9838
 IR Inten    --      7.0176                 2.1212                10.5529

                     34                     35                     36
                      A                      A                      A
 Frequencies --    745.7343               765.0812               797.3410
 Red. masses --      6.2977                 1.9167                 1.3121
 Frc consts  --      2.0635                 0.6610                 0.4915
 IR Inten    --      3.1522                18.2314                 7.5743

                     37                     38                     39
                      A                      A                      A
 Frequencies --    805.7788               824.9734               860.3108
 Red. masses --      1.1610                 2.1928                 1.6164
 Frc consts  --      0.4441                 0.8793                 0.7049
 IR Inten    --     21.1833                 7.7149                51.8952

                     40                     41                     42
                      A                      A                      A
 Frequencies --    880.0249               930.1147               935.0989
 Red. masses --      1.5338                 1.7023                 1.5479
 Frc consts  --      0.6999                 0.8677                 0.7975
 IR Inten    --     88.2366                 7.7418                 2.4137

                     43                     44                     45
                      A                      A                      A
 Frequencies --    956.6395               958.9168               997.7589
 Red. masses --      2.5246                 2.2023                 2.0961
 Frc consts  --      1.3613                 1.1931                 1.2294
 IR Inten    --      4.2466                12.2364                 4.2544

                     46                     47                     48
                      A                      A                      A
 Frequencies --   1031.2540              1032.2314              1042.0701
 Red. masses --      1.7878                 1.4203                 1.3509
 Frc consts  --      1.1202                 0.8917                 0.8643
 IR Inten    --      0.6932                 0.6635                 5.3149

                     49                     50                     51
                      A                      A                      A
 Frequencies --   1068.5676              1082.1315              1113.7401
 Red. masses --      2.1362                 2.8432                 2.3618
 Frc consts  --      1.4371                 1.9616                 1.7260
 IR Inten    --      1.7086                18.3587                 9.1776

                     52                     53                     54
                      A                      A                      A
 Frequencies --   1126.3775              1144.2237              1162.6255
 Red. masses --      2.6419                 1.8246                 2.0346
 Frc consts  --      1.9748                 1.4074                 1.6203
 IR Inten    --     53.1426                 6.8301               164.0768

                     55                     56                     57
                      A                      A                      A
 Frequencies --   1172.3701              1186.0572              1191.8198
 Red. masses --      2.1317                 1.7438                 1.6242
 Frc consts  --      1.7262                 1.4453                 1.3593
 IR Inten    --      2.0049                39.2797                33.4885

                     58                     59                     60
                      A                      A                      A
 Frequencies --   1201.9729              1207.2470              1226.7844
 Red. masses --      1.9121                 3.0443                 2.2231
 Frc consts  --      1.6276                 2.6142                 1.9713
 IR Inten    --     11.1158                34.6909                68.3796

                     61                     62                     63
                      A                      A                      A
 Frequencies --   1239.7498              1264.5596              1288.6131
 Red. masses --      2.7750                 2.1818                 1.2966
 Frc consts  --      2.5130                 2.0557                 1.2685
 IR Inten    --     38.0833                 8.1443                 3.5204

                     64                     65                     66
                      A                      A                      A
 Frequencies --   1308.4043              1331.6580              1341.3359
 Red. masses --      1.3995                 1.2399                 1.1999
 Frc consts  --      1.4115                 1.2954                 1.2720
 IR Inten    --     19.1053                21.7576                 7.3981

                     67                     68                     69
                      A                      A                      A
 Frequencies --   1359.4566              1375.3693              1385.3395
 Red. masses --      1.3051                 1.4267                 1.3522
 Frc consts  --      1.4211                 1.5901                 1.5290
 IR Inten    --     13.9410                22.7694                27.0063

                     70                     71                     72
                      A                      A                      A
 Frequencies --   1402.8880              1418.8208              1427.8976
 Red. masses --      1.5496                 1.3835                 1.2381
 Frc consts  --      1.7969                 1.6409                 1.4873
 IR Inten    --     53.8813                 7.3284                13.7917

                     73                     74                     75
                      A                      A                      A
 Frequencies --   1441.7213              1443.7180              1450.7632
 Red. masses --      1.2372                 1.2531                 1.3090
 Frc consts  --      1.5151                 1.5388                 1.6233
 IR Inten    --      0.8730                 8.4254                 4.4685

                     76                     77                     78
                      A                      A                      A
 Frequencies --   1453.2575              1490.4489              1500.6529
 Red. masses --      1.3427                 1.3818                 1.1176
 Frc consts  --      1.6707                 1.8085                 1.4828
 IR Inten    --      7.8767                30.4232                 2.2441

                     79                     80                     81
                      A                      A                      A
 Frequencies --   1510.0342              1511.8136              1516.6434
 Red. masses --      1.0545                 1.0830                 1.0747
 Frc consts  --      1.4166                 1.4584                 1.4565
 IR Inten    --      0.7954                 1.7923                 6.0264

                     82                     83                     84
                      A                      A                      A
 Frequencies --   1519.8029              1520.9684              1530.7364
 Red. masses --      1.0525                 1.0522                 1.0459
 Frc consts  --      1.4324                 1.4341                 1.4440
 IR Inten    --      2.2773                 5.1640                 2.4811

                     85                     86                     87
                      A                      A                      A
 Frequencies --   1532.1745              1534.7690              1536.6292
 Red. masses --      1.0641                 1.1094                 1.0447
 Frc consts  --      1.4718                 1.5396                 1.4534
 IR Inten    --     11.2352                11.1356                 3.9763

                     88                     89                     90
                      A                      A                      A
 Frequencies --   1538.2998              1543.1062              1547.6404
 Red. masses --      1.0649                 1.0592                 1.0791
 Frc consts  --      1.4847                 1.4860                 1.5228
 IR Inten    --      8.0966                 2.7435                 2.7396

                     91                     92                     93
                      A                      A                      A
 Frequencies --   1548.8635              1556.9681              1699.9438
 Red. masses --      1.0726                 1.0840                 1.0896
 Frc consts  --      1.5160                 1.5482                 1.8552
 IR Inten    --      6.3023                11.6142                25.2992

                     94                     95                     96
                      A                      A                      A
 Frequencies --   1755.5811              2985.9177              3000.9755
 Red. masses --     11.2565                 1.0719                 1.0410
 Frc consts  --     20.4407                 5.6309                 5.5238
 IR Inten    --    236.9453                53.6147                63.7048

                     97                     98                     99
                      A                      A                      A
 Frequencies --   3029.7510              3040.9772              3044.7000
 Red. masses --      1.0674                 1.0430                 1.0740
 Frc consts  --      5.7731                 5.6829                 5.8661
 IR Inten    --      6.1817                20.4427                41.2670

                    100                    101                    102
                      A                      A                      A
 Frequencies --   3049.8983              3052.9089              3056.5640
 Red. masses --      1.0705                 1.0950                 1.0482
 Frc consts  --      5.8671                 6.0128                 5.7700
 IR Inten    --     37.2273                46.5424                33.1249

                    103                    104                    105
                      A                      A                      A
 Frequencies --   3067.0256              3067.7465              3070.9695
 Red. masses --      1.0759                 1.0449                 1.0935
 Frc consts  --      5.9627                 5.7938                 6.0759
 IR Inten    --     28.0013                36.9672                59.4562

                    106                    107                    108
                      A                      A                      A
 Frequencies --   3073.8744              3090.4665              3101.5677
 Red. masses --      1.0403                 1.0895                 1.0974
 Frc consts  --      5.7916                 6.1308                 6.2198
 IR Inten    --     20.0239                23.6243                28.7452

                    109                    110                    111
                      A                      A                      A
 Frequencies --   3115.4304              3119.5522              3132.4671
 Red. masses --      1.0980                 1.1013                 1.1011
 Frc consts  --      6.2787                 6.3148                 6.3657
 IR Inten    --     57.4875                22.9162                 8.3984

                    112                    113                    114
                      A                      A                      A
 Frequencies --   3132.5862              3135.4033              3153.5303
 Red. masses --      1.0983                 1.1004                 1.0996
 Frc consts  --      6.3499                 6.3737                 6.4429
 IR Inten    --     49.8751                28.0789                30.1982

                    115                    116                    117
                      A                      A                      A
 Frequencies --   3161.7364              3162.1087              3180.0397
 Red. masses --      1.0956                 1.0946                 1.0971
 Frc consts  --      6.4529                 6.4483                 6.5366
 IR Inten    --      2.8454                29.2162                13.2465

                    118                    119                    120
                      A                      A                      A
 Frequencies --   3196.7241              3466.9862              3555.1802
 Red. masses --      1.0868                 1.0508                 1.0916
 Frc consts  --      6.5435                 7.4416                 8.1290
 IR Inten    --     27.0642                 1.7321                 0.1740

 - Thermochemistry -
 -------------------
 Temperature   298.150 Kelvin.  Pressure   1.00000 Atm.
 Atom     1 has atomic number  6 and mass  12.00000

 Molecular mass:   230.19943 amu.
 Principal axes and moments of inertia in atomic units:
                           1         2         3
     Eigenvalues --  3113.215274750.183546357.53865
           X            0.99953   0.03041  -0.00455
           Y           -0.03037   0.99949   0.01006
           Z            0.00485  -0.00992   0.99994
 This molecule is an asymmetric top.
 Rotational symmetry number  1.
 Warning -- assumption of classical behavior for rotation
           may cause significant error
 Rotational temperatures (Kelvin)      0.02782     0.01823     0.01362
 Rotational constants (GHZ):           0.57970     0.37993     0.28387
 Zero-point vibrational energy    1004092.3 (Joules/Mol)
                                  239.98383 (Kcal/Mol)
 Warning -- explicit consideration of  31 degrees of freedom as
           vibrations may cause significant error
 Vibrational temperatures:     46.23    66.01    77.88   103.45   127.43
          (Kelvin)            133.09   159.37   194.54   206.88   227.41
                              268.20   279.85   291.18   321.08   346.36
                              364.18   372.37   381.82   412.98   428.60
                              437.24   454.20   502.96   521.96   540.01
                              586.71   638.76   651.92   713.69   803.34
                              844.19   922.84  1026.11  1072.95  1100.78
                             1147.20  1159.34  1186.95  1237.80  1266.16
                             1338.23  1345.40  1376.39  1379.67  1435.55
                             1483.74  1485.15  1499.31  1537.43  1556.95
                             1602.42  1620.61  1646.28  1672.76  1686.78
                             1706.47  1714.76  1729.37  1736.96  1765.07
                             1783.72  1819.42  1854.03  1882.50  1915.96
                             1929.88  1955.95  1978.85  1993.19  2018.44
                             2041.37  2054.43  2074.32  2077.19  2087.32
                             2090.91  2144.42  2159.10  2172.60  2175.16
                             2182.11  2186.66  2188.33  2202.39  2204.46
                             2208.19  2210.87  2213.27  2220.19  2226.71
                             2228.47  2240.13  2445.84  2525.89  4296.07
                             4317.73  4359.14  4375.29  4380.64  4388.12
                             4392.46  4397.71  4412.77  4413.80  4418.44
                             4422.62  4446.49  4462.46  4482.41  4488.34
                             4506.92  4507.09  4511.15  4537.23  4549.03
                             4549.57  4575.37  4599.37  4988.22  5115.11

 Zero-point correction=                           0.382439 (Hartree/Particle)
 Thermal correction to Energy=                    0.402613
 Thermal correction to Enthalpy=                  0.403557
 Thermal correction to Gibbs Free Energy=         0.334287
 Sum of electronic and zero-point Energies=           -732.549230
 Sum of electronic and thermal Energies=              -732.529056
 Sum of electronic and thermal Enthalpies=            -732.528112
 Sum of electronic and thermal Free Energies=         -732.597382

                     E (Thermal)             CV                S
                      KCal/Mol        Cal/Mol-Kelvin    Cal/Mol-Kelvin
 Total                  252.644             74.045            145.792
 Electronic               0.000              0.000              0.000
 Translational            0.889              2.981             42.203
 Rotational               0.889              2.981             32.908
 Vibrational            250.866             68.083             70.681
 Vibration     1          0.594              1.983              5.693
 Vibration     2          0.595              1.979              4.987
 Vibration     3          0.596              1.976              4.661
 Vibration     4          0.598              1.967              4.101
 Vibration     5          0.601              1.957              3.691
 Vibration     6          0.602              1.955              3.606
 Vibration     7          0.607              1.941              3.255
 Vibration     8          0.613              1.918              2.871
 Vibration     9          0.616              1.909              2.753
 Vibration    10          0.621              1.894              2.573
 Vibration    11          0.632              1.858              2.263
 Vibration    12          0.635              1.848              2.184
 Vibration    13          0.639              1.837              2.111
 Vibration    14          0.649              1.806              1.933
 Vibration    15          0.658              1.778              1.797
 Vibration    16          0.664              1.758              1.709
 Vibration    17          0.668              1.748              1.670
 Vibration    18          0.671              1.737              1.626
 Vibration    19          0.684              1.698              1.491
 Vibration    20          0.691              1.678              1.429
 Vibration    21          0.695              1.666              1.395
 Vibration    22          0.703              1.644              1.332
 Vibration    23          0.727              1.576              1.168
 Vibration    24          0.737              1.549              1.110
 Vibration    25          0.746              1.523              1.058
 Vibration    26          0.772              1.453              0.934
 Vibration    27          0.803              1.374              0.814
 Vibration    28          0.812              1.354              0.786
 Vibration    29          0.852              1.259              0.668
 Vibration    30          0.914              1.121              0.527
 Vibration    31          0.944              1.060              0.473

 Optimization completed.
    -- Stationary point found.
 Normal termination of Gaussian 16 at Thu Dec 10 22:13:05 2020.

 ----------------------------------------------------------------------
 # B3LYP/6-311++G(d,p) empiricaldispersion=gd3bj scf=xqc pop=npa geom=c
 heck
 ----------------------------------------------------------------------

 ---------------------------------------
 CID_103022516_JID_6075_Energie_neutraal
 ---------------------------------------
 Structure from the checkpoint file:  "JID_6075.chk"
 Charge =  0 Multiplicity = 1

 SCF Done:  E(RB3LYP) =  -733.151173500     A.U. after   15 cycles
 Normal termination of Gaussian 16 at Thu Dec 10 22:21:28 2020.

 ----------------------------------------------------------------------
 # B3LYP/6-311++G(d,p) empiricaldispersion=gd3bj scf=xqc pop=npa geom=c
 heck
 ----------------------------------------------------------------------

 -------------------------------------
 CID_103022516_JID_6075_Energie_kation
 -------------------------------------
 Structure from the checkpoint file:  "JID_6075.chk"
 Charge =  1 Multiplicity = 2

 SCF Done:  E(UB3LYP) =  -732.851243916     A.U. after   27 cycles
 Normal termination of Gaussian 16 at Thu Dec 10 22:43:16 2020.
 Gaussian 16:  ES64L-G16RevA.03 25-Dec-2016

 ----------------------------------------------------------------------
 # B3LYP/6-311++G(d,p) empiricaldispersion=gd3bj scf=xqc pop=npa geom=c
 heck
 ----------------------------------------------------------------------

 ------------------------------------
 CID_103022516_JID_6075_Energie_anion
 ------------------------------------
 Structure from the checkpoint file:  "JID_6075.chk"
 Charge = -1 Multiplicity = 2

                         Standard orientation:
 ---------------------------------------------------------------------
 Center     Atomic      Atomic             Coordinates (Angstroms)
 Number     Number       Type             X           Y           Z
 ---------------------------------------------------------------------
      1          6           0       -3.806900   -1.332658   -1.334814
      2          6           0       -2.292467   -1.174537   -1.171154
      3          6           0       -1.922025   -0.048974   -0.190247
      4          6           0       -2.456531   -0.230640    1.250341
      5          6           0       -2.213624   -1.565324    1.960827
      6          7           0       -0.481035    0.329976   -0.262202
      7          6           0       -0.260018    1.722460   -0.643690
      8          6           0       -0.560644    2.721670    0.480295
      9          7           0       -0.258396    4.074002    0.007005
     10          6           0        0.482387   -0.625889   -0.033337
     11          8           0        0.173528   -1.781299    0.221850
     12          6           0        2.012213   -0.269669   -0.126258
     13          6           0        2.399958   -0.093315   -1.604982
     14          6           0        2.428209    0.913469    0.767163
     15          8           0        2.629122   -1.438361    0.422616
     16          6           0        4.002013   -1.636668    0.170644
     17          1           0       -4.282032   -1.667344   -0.406270
     18          1           0       -4.036274   -2.075229   -2.106674
     19          1           0       -4.282363   -0.388287   -1.630215
     20          1           0       -1.841285   -2.112584   -0.848098
     21          1           0       -1.843761   -0.927330   -2.142345
     22          1           0       -2.430934    0.847455   -0.563563
     23          1           0       -2.050534    0.586006    1.860221
     24          1           0       -3.539754   -0.054754    1.201489
     25          1           0       -1.153772   -1.748682    2.135135
     26          1           0       -2.740054   -1.568706    2.923016
     27          1           0       -2.592876   -2.406782    1.371914
     28          1           0        0.762174    1.865374   -0.982456
     29          1           0       -0.896188    1.962012   -1.503579
     30          1           0       -1.626972    2.680942    0.727289
     31          1           0       -0.013395    2.412392    1.386576
     32          1           0       -0.589136    4.762014    0.680065
     33          1           0        0.751395    4.200811   -0.052968
     34          1           0        1.811401    0.680878   -2.101046
     35          1           0        3.455367    0.179371   -1.706572
     36          1           0        2.228537   -1.035740   -2.134309
     37          1           0        2.012828    0.783911    1.770686
     38          1           0        3.519114    0.932739    0.854677
     39          1           0        2.125868    1.889831    0.386722
     40          1           0        4.208890   -1.882465   -0.880201
     41          1           0        4.628262   -0.776432    0.454135
     42          1           0        4.294891   -2.489524    0.788295
 ---------------------------------------------------------------------

 SCF Done:  E(UB3LYP) =  -733.141774076     A.U. after   33 cycles
 SCF Done:  E(UB3LYP) =  -733.141774076     a.u. after    1 cycles

 The electronic state is 2-A.
 Alpha  occ. eigenvalues --  -19.02476 -18.98342 -14.24555 -14.19395 -10.17233
 Alpha  occ. eigenvalues --  -10.14880 -10.11895 -10.11846 -10.10910 -10.09655
 Alpha  occ. eigenvalues --  -10.07689 -10.07645 -10.07579 -10.07289 -10.06761
 Alpha  occ. eigenvalues --  -10.06014  -0.95422  -0.92740  -0.83974  -0.78384
 Alpha  occ. eigenvalues --   -0.71595  -0.69318  -0.65884  -0.63655  -0.61123
 Alpha  occ. eigenvalues --   -0.59887  -0.59824  -0.53585  -0.53077  -0.51176
 Alpha  occ. eigenvalues --   -0.48391  -0.43491  -0.42047  -0.39826  -0.39056
 Alpha  occ. eigenvalues --   -0.38345  -0.37924  -0.37413  -0.35813  -0.35053
 Alpha  occ. eigenvalues --   -0.34295  -0.33514  -0.32644  -0.32077  -0.31902
 Alpha  occ. eigenvalues --   -0.31642  -0.30754  -0.30331  -0.29503  -0.28659
 Alpha  occ. eigenvalues --   -0.28007  -0.27597  -0.27340  -0.26843  -0.25962
 Alpha  occ. eigenvalues --   -0.25638  -0.24260  -0.23473  -0.23111  -0.21429
 Alpha  occ. eigenvalues --   -0.16690  -0.15292  -0.14869  -0.14336   0.04018
 Alpha virt. eigenvalues --    0.05820   0.06222   0.07362   0.07940   0.08214
 Alpha virt. eigenvalues --    0.08551   0.09023   0.09515   0.10281   0.10657
 Alpha virt. eigenvalues --    0.10984   0.11177   0.11432   0.11697   0.12112

  Beta  occ. eigenvalues --  -19.02474 -18.98342 -14.24550 -14.19332 -10.17232
  Beta  occ. eigenvalues --  -10.14876 -10.11874 -10.11841 -10.10897 -10.09632
  Beta  occ. eigenvalues --  -10.07682 -10.07631 -10.07558 -10.07285 -10.06728
  Beta  occ. eigenvalues --  -10.06010  -0.95418  -0.92736  -0.83961  -0.78288
  Beta  occ. eigenvalues --   -0.71580  -0.69296  -0.65869  -0.63596  -0.61081
  Beta  occ. eigenvalues --   -0.59863  -0.59780  -0.53552  -0.53012  -0.51130
  Beta  occ. eigenvalues --   -0.48359  -0.43466  -0.42015  -0.39783  -0.39028
  Beta  occ. eigenvalues --   -0.38319  -0.37901  -0.37386  -0.35784  -0.35026
  Beta  occ. eigenvalues --   -0.34251  -0.33490  -0.32611  -0.32033  -0.31888
  Beta  occ. eigenvalues --   -0.31610  -0.30723  -0.30298  -0.29474  -0.28634
  Beta  occ. eigenvalues --   -0.27989  -0.27579  -0.27318  -0.26817  -0.25947
  Beta  occ. eigenvalues --   -0.25607  -0.24245  -0.23461  -0.23095  -0.21414
  Beta  occ. eigenvalues --   -0.16679  -0.15264  -0.14845  -0.14310
  Beta virt. eigenvalues --    0.05923   0.06467   0.07258   0.07586   0.08348
  Beta virt. eigenvalues --    0.08376   0.09051   0.09412   0.09733   0.10583
  Beta virt. eigenvalues --    0.10712   0.11112   0.11324   0.11807   0.12009

 Mulliken charges and spin densities:
               1          2
     1  C   -0.003771  -0.635992
     2  C   -0.543248   0.560025
     3  C   -0.031464  -0.116549
     4  C    0.116001  -0.349168
     5  C   -0.376541  -0.224986
     6  N    0.438493   0.015275
     7  C   -0.901776   0.665376
     8  C    1.877753  -2.373403
     9  N   -0.549296   0.258144
    10  C    0.593383  -0.820756
    11  O   -0.183231   0.001893
    12  C   -2.459343   1.743951
    13  C    0.277915  -0.693621
    14  C    0.975153  -1.276117
    15  O   -0.012209  -0.002844
    16  C    0.339401  -0.547292
    17  H    0.098294   0.042543
    18  H    0.021033   0.119047
    19  H   -0.110635   0.247477
    20  H    0.213486  -0.004130
    21  H    0.063519   0.056942
    22  H    0.373278  -0.189760
    23  H    0.133758   0.008582
    24  H   -0.014554   0.172214
    25  H    0.203710   0.008965
    26  H    0.071104   0.055993
    27  H    0.097172   0.030794
    28  H    0.157416  -0.052589
    29  H   -0.027455   0.220160
    30  H   -0.473275   0.641068
    31  H   -0.096333   0.270740
    32  H   -0.235029   0.482149
    33  H   -0.200149   0.423939
    34  H   -0.122212   0.259074
    35  H   -0.273724   0.462929
    36  H    0.102057   0.099050
    37  H    0.124027   0.069284
    38  H   -0.351021   0.492380
    39  H   -0.252574   0.412846
    40  H   -0.033795   0.176177
    41  H   -0.096629   0.216383
    42  H    0.071311   0.073807
 Sum of Mulliken charges =  -1.00000   1.00000

 Dipole moment (field-independent basis, Debye):
    X=             -2.7459    Y=             -6.6052    Z=             -0.7115  Tot=              7.1885
 Quadrupole moment (field-independent basis, Debye-Ang):
   XX=           -164.1490   YY=           -179.7188   ZZ=           -134.9540
   XY=             -2.6275   XZ=              0.6105   YZ=             -2.1625

 Summary of Natural Population Analysis:

                                       Natural Population
                Natural  -----------------------------------------------
    Atom  No    Charge         Core      Valence    Rydberg      Total
 -----------------------------------------------------------------------
      C    1   -0.28553      0.99967     2.28187    0.00399     3.28553
      C    2   -0.20187      0.99961     2.19300    0.00926     3.20187
      C    3    0.00333      0.99956     1.98344    0.01367     2.99667
      C    4   -0.19486      0.99961     2.18669    0.00856     3.19486
      C    5   -0.28757      0.99966     2.28309    0.00482     3.28757
      N    6   -0.26068      0.99963     2.74910    0.01195     3.76068
      C    7   -0.08760      0.99958     2.07661    0.01141     3.08760
      C    8   -0.09549      0.99963     2.08444    0.01142     3.09549
      N    9   -0.42235      0.99977     2.91221    0.01037     3.92235
      C   10    0.34791      0.99959     1.62599    0.02652     2.65209
      O   11   -0.31672      0.99988     3.31166    0.00518     4.31672
      C   12    0.10356      0.99954     1.88131    0.01560     2.89644
      C   13   -0.30093      0.99961     2.29489    0.00644     3.30093
      C   14   -0.29728      0.99961     2.28935    0.00833     3.29728
      O   15   -0.29564      0.99987     3.28551    0.01026     4.29564
      C   16   -0.09977      0.99959     2.09082    0.00936     3.09977
      H   17    0.09617      0.00000     0.40291    0.00092     0.40383
      H   18    0.09827      0.00000     0.40101    0.00072     0.40173
      H   19    0.09503      0.00000     0.40391    0.00106     0.40497
      H   20    0.11364      0.00000     0.38518    0.00118     0.38636
      H   21    0.09731      0.00000     0.40163    0.00106     0.40269
      H   22    0.09582      0.00000     0.40189    0.00230     0.40418
      H   23    0.10053      0.00000     0.39807    0.00140     0.39947
      H   24    0.09444      0.00000     0.40459    0.00097     0.40556
      H   25    0.11148      0.00000     0.38752    0.00100     0.38852
      H   26    0.09208      0.00000     0.40713    0.00079     0.40792
      H   27    0.09494      0.00000     0.40422    0.00084     0.40506
      H   28    0.10016      0.00000     0.39783    0.00201     0.39984
      H   29    0.09739      0.00000     0.40110    0.00152     0.40261
      H   30    0.09089      0.00000     0.40751    0.00159     0.40911
      H   31    0.08196      0.00000     0.41581    0.00223     0.41804
      H   32    0.18106      0.00000     0.31471    0.00423     0.31894
      H   33    0.17640      0.00000     0.31939    0.00421     0.32360
      H   34    0.10490      0.00000     0.39400    0.00110     0.39510
      H   35    0.10459      0.00000     0.39419    0.00122     0.39541
      H   36    0.10638      0.00000     0.39263    0.00099     0.39362
      H   37    0.10553      0.00000     0.39315    0.00132     0.39447
      H   38    0.10353      0.00000     0.39517    0.00130     0.39647
      H   39    0.10187      0.00000     0.39623    0.00189     0.39813
      H   40    0.07859      0.00000     0.42027    0.00114     0.42141
      H   41    0.07832      0.00000     0.42032    0.00136     0.42168
      H   42    0.09022      0.00000     0.40901    0.00077     0.40978
 =======================================================================
   * Total *   -0.00000     15.99438    47.79936    0.20625    64.00000

 Normal termination of Gaussian 16 at Thu Dec 10 23:11:04 2020.
