 Gaussian 16, Revision A.03,

 -----------------------------------------------------------
 # opt freq B3LYP/6-31G(d) empiricaldispersion=gd3bj scf=xqc
 -----------------------------------------------------------

 -------------------------------
 CID_147229310_JID_3902_neutraal
 -------------------------------
 Symbolic Z-matrix:
 Charge =  0 Multiplicity = 1

 SCF Done:  E(RB3LYP) =  -547.012776638     A.U. after   13 cycles
 SCF Done:  E(RB3LYP) =  -547.015510627     A.U. after   10 cycles
 SCF Done:  E(RB3LYP) =  -547.014705849     A.U. after   11 cycles
 SCF Done:  E(RB3LYP) =  -547.016619627     A.U. after   10 cycles
 SCF Done:  E(RB3LYP) =  -547.017539451     A.U. after   10 cycles
 SCF Done:  E(RB3LYP) =  -547.019393440     A.U. after   11 cycles
 SCF Done:  E(RB3LYP) =  -547.017468684     A.U. after   13 cycles
 SCF Done:  E(RB3LYP) =  -547.022130128     A.U. after   10 cycles
 SCF Done:  E(RB3LYP) =  -547.023121974     A.U. after   10 cycles
 SCF Done:  E(RB3LYP) =  -547.023686970     A.U. after   10 cycles
 SCF Done:  E(RB3LYP) =  -547.023936806     A.U. after    9 cycles
 SCF Done:  E(RB3LYP) =  -547.023959188     A.U. after    9 cycles
 SCF Done:  E(RB3LYP) =  -547.023972811     A.U. after    9 cycles
 SCF Done:  E(RB3LYP) =  -547.023982598     A.U. after    9 cycles
 SCF Done:  E(RB3LYP) =  -547.023987831     A.U. after    8 cycles
 SCF Done:  E(RB3LYP) =  -547.023988316     A.U. after    7 cycles
 Optimization completed.
    -- Stationary point found.
 Normal termination of Gaussian 16 at Sun Dec 13 20:15:40 2020.

 --------------------------------------------------------------------
 #N Geom=AllCheck Guess=TCheck SCRF=Check GenChk RB3LYP/6-31G(d) Freq
 --------------------------------------------------------------------

 Structure from the checkpoint file:  "JID_3902.chk"
 -------------------------------
 CID_147229310_JID_3902_neutraal
 -------------------------------
 Charge =  0 Multiplicity = 1

 SCF Done:  E(RB3LYP) =  -547.023988316     A.U. after    1 cycles

  Exact polarizability: 141.823  -2.204 125.883   1.639  -1.831 111.656
 Approx polarizability: 174.558  -1.102 177.149   2.283  -0.323 172.798

                      1                      2                      3
                      A                      A                      A
 Frequencies --     64.2991                77.3077               105.1319
 Red. masses --      2.9296                 1.9815                 2.5020
 Frc consts  --      0.0071                 0.0070                 0.0163
 IR Inten    --      0.0341                 2.1751                 0.3206

                      4                      5                      6
                      A                      A                      A
 Frequencies --    117.2575               153.9852               166.6501
 Red. masses --      3.7338                 2.7801                 3.5233
 Frc consts  --      0.0302                 0.0388                 0.0577
 IR Inten    --      3.3195                 2.4474                 1.2166

                      7                      8                      9
                      A                      A                      A
 Frequencies --    213.8541               237.0920               242.5052
 Red. masses --      1.9851                 1.1707                 2.4085
 Frc consts  --      0.0535                 0.0388                 0.0835
 IR Inten    --      0.2483                 0.2034                 3.6709

                     10                     11                     12
                      A                      A                      A
 Frequencies --    251.6851               257.5534               266.7245
 Red. masses --      1.2247                 1.9060                 1.7199
 Frc consts  --      0.0457                 0.0745                 0.0721
 IR Inten    --      0.3897                 0.9762                 1.3110

                     13                     14                     15
                      A                      A                      A
 Frequencies --    288.7128               304.1871               324.0398
 Red. masses --      2.1838                 1.7530                 1.1727
 Frc consts  --      0.1073                 0.0956                 0.0725
 IR Inten    --      1.9661                 1.0727               108.5359

                     16                     17                     18
                      A                      A                      A
 Frequencies --    343.2605               376.5705               400.3866
 Red. masses --      2.6358                 2.3932                 3.2273
 Frc consts  --      0.1830                 0.1999                 0.3048
 IR Inten    --      2.2615                 0.0648                 0.5746

                     19                     20                     21
                      A                      A                      A
 Frequencies --    433.7195               466.3689               504.0320
 Red. masses --      1.9980                 3.3475                 2.3196
 Frc consts  --      0.2214                 0.4290                 0.3472
 IR Inten    --      0.5555                 0.9040                 1.8984

                     22                     23                     24
                      A                      A                      A
 Frequencies --    539.8700               589.1512               678.8253
 Red. masses --      2.7003                 2.5838                 2.7772
 Frc consts  --      0.4637                 0.5284                 0.7540
 IR Inten    --      1.7697                 4.4178                 1.4174

                     25                     26                     27
                      A                      A                      A
 Frequencies --    751.0831               765.9898               815.0610
 Red. masses --      1.3571                 1.8681                 2.2888
 Frc consts  --      0.4511                 0.6458                 0.8959
 IR Inten    --      2.3360                 1.0188                 1.3971

                     28                     29                     30
                      A                      A                      A
 Frequencies --    840.7844               891.0807               898.4233
 Red. masses --      2.1626                 1.4134                 1.6075
 Frc consts  --      0.9007                 0.6612                 0.7645
 IR Inten    --      0.5992                 0.3756                 0.5978

                     31                     32                     33
                      A                      A                      A
 Frequencies --    928.6411               937.2080               955.9748
 Red. masses --      1.6678                 1.8985                 1.6929
 Frc consts  --      0.8474                 0.9825                 0.9116
 IR Inten    --      1.3296                 7.5604                 1.4789

                     34                     35                     36
                      A                      A                      A
 Frequencies --    973.7045              1007.4463              1027.5528
 Red. masses --      2.0881                 1.6299                 1.5602
 Frc consts  --      1.1664                 0.9747                 0.9706
 IR Inten    --      0.5721                 5.7058                 4.6830

                     37                     38                     39
                      A                      A                      A
 Frequencies --   1036.5981              1059.4617              1064.4438
 Red. masses --      1.8799                 1.7360                 2.7644
 Frc consts  --      1.1902                 1.1481                 1.8454
 IR Inten    --      4.6585                 4.2075                25.7134

                     40                     41                     42
                      A                      A                      A
 Frequencies --   1066.1804              1082.0120              1088.9075
 Red. masses --      2.4041                 2.4961                 2.1427
 Frc consts  --      1.6101                 1.7218                 1.4969
 IR Inten    --      0.7801                20.8966                44.0874

                     43                     44                     45
                      A                      A                      A
 Frequencies --   1118.8477              1132.9574              1143.5810
 Red. masses --      1.8195                 1.3402                 1.6172
 Frc consts  --      1.3420                 1.0136                 1.2461
 IR Inten    --      0.0703                 3.3159                 2.4460

                     46                     47                     48
                      A                      A                      A
 Frequencies --   1148.3285              1174.8809              1205.2686
 Red. masses --      2.5078                 1.8036                 1.9724
 Frc consts  --      1.9484                 1.4669                 1.6881
 IR Inten    --     10.9218                 7.5445                 7.0870

                     49                     50                     51
                      A                      A                      A
 Frequencies --   1222.5122              1244.7065              1277.1297
 Red. masses --      1.6760                 1.4646                 1.3153
 Frc consts  --      1.4758                 1.3369                 1.2640
 IR Inten    --      6.8534                 8.4097                 2.1697

                     52                     53                     54
                      A                      A                      A
 Frequencies --   1284.4267              1297.5175              1307.1220
 Red. masses --      1.3916                 1.2152                 1.1921
 Frc consts  --      1.3527                 1.2054                 1.2001
 IR Inten    --      1.8121                 2.5899                 0.5687

                     55                     56                     57
                      A                      A                      A
 Frequencies --   1338.6082              1344.6506              1359.1413
 Red. masses --      1.2816                 1.2484                 1.1990
 Frc consts  --      1.3530                 1.3299                 1.3050
 IR Inten    --      0.6348                 1.3086                 2.0258

                     58                     59                     60
                      A                      A                      A
 Frequencies --   1370.6218              1381.3419              1384.4681
 Red. masses --      1.4397                 1.4010                 1.3726
 Frc consts  --      1.5936                 1.5750                 1.5501
 IR Inten    --      2.9691                 3.7566                 4.5118

                     61                     62                     63
                      A                      A                      A
 Frequencies --   1396.6638              1406.6789              1408.1178
 Red. masses --      1.3846                 1.2658                 1.4507
 Frc consts  --      1.5913                 1.4757                 1.6948
 IR Inten    --      2.0180                 8.0310                 2.1538

                     64                     65                     66
                      A                      A                      A
 Frequencies --   1411.1348              1422.2382              1435.1998
 Red. masses --      1.3174                 1.5811                 1.4020
 Frc consts  --      1.5457                 1.8844                 1.7015
 IR Inten    --      0.5869                 3.1098                 7.6875

                     67                     68                     69
                      A                      A                      A
 Frequencies --   1439.7920              1441.5375              1447.8832
 Red. masses --      1.2627                 1.2456                 1.2701
 Frc consts  --      1.5422                 1.5250                 1.5687
 IR Inten    --      2.2937                 0.2585                 4.0747

                     70                     71                     72
                      A                      A                      A
 Frequencies --   1448.9441              1511.9929              1517.1859
 Red. masses --      1.3167                 1.0732                 1.0762
 Frc consts  --      1.6287                 1.4455                 1.4595
 IR Inten    --     59.8236                 5.3247                 0.2393

                     73                     74                     75
                      A                      A                      A
 Frequencies --   1519.4286              1524.7961              1527.6218
 Red. masses --      1.0839                 1.0533                 1.0507
 Frc consts  --      1.4743                 1.4429                 1.4446
 IR Inten    --      2.1765                 2.6071                 2.4611

                     76                     77                     78
                      A                      A                      A
 Frequencies --   1529.2623              1532.0216              1535.8148
 Red. masses --      1.0407                 1.0583                 1.0615
 Frc consts  --      1.4340                 1.4635                 1.4751
 IR Inten    --      7.0140                 8.7992                 6.4840

                     79                     80                     81
                      A                      A                      A
 Frequencies --   1542.8447              1546.5594              1548.3391
 Red. masses --      1.0639                 1.0852                 1.0625
 Frc consts  --      1.4921                 1.5293                 1.5007
 IR Inten    --      1.7429                 3.1353                 1.9012

                     82                     83                     84
                      A                      A                      A
 Frequencies --   2990.9638              2994.3950              2996.6665
 Red. masses --      1.0806                 1.0745                 1.0808
 Frc consts  --      5.6956                 5.6762                 5.7185
 IR Inten    --     28.4136                27.2290                10.7223

                     85                     86                     87
                      A                      A                      A
 Frequencies --   3009.6634              3015.6302              3026.2074
 Red. masses --      1.0802                 1.0802                 1.0643
 Frc consts  --      5.7647                 5.7880                 5.7425
 IR Inten    --     27.1084                16.8302                10.1871

                     88                     89                     90
                      A                      A                      A
 Frequencies --   3029.0996              3032.0514              3041.5756
 Red. masses --      1.0606                 1.0675                 1.0499
 Frc consts  --      5.7339                 5.7819                 5.7225
 IR Inten    --     16.5371               116.9934                14.2009

                     91                     92                     93
                      A                      A                      A
 Frequencies --   3042.5595              3045.9088              3057.3851
 Red. masses --      1.0365                 1.0468                 1.0453
 Frc consts  --      5.6533                 5.7218                 5.7571
 IR Inten    --     36.1348                32.9875                11.8002

                     94                     95                     96
                      A                      A                      A
 Frequencies --   3059.5991              3064.0247              3064.4552
 Red. masses --      1.0998                 1.0963                 1.0954
 Frc consts  --      6.0657                 6.0640                 6.0608
 IR Inten    --      2.2345                 2.0716               108.7222

                     97                     98                     99
                      A                      A                      A
 Frequencies --   3084.0363              3094.0353              3106.3148
 Red. masses --      1.1023                 1.0933                 1.1021
 Frc consts  --      6.1771                 6.1663                 6.2655
 IR Inten    --     35.4461                49.1543                32.3669

                    100                    101                    102
                      A                      A                      A
 Frequencies --   3109.9900              3110.9257              3116.3866
 Red. masses --      1.1021                 1.1029                 1.1019
 Frc consts  --      6.2804                 6.2888                 6.3053
 IR Inten    --     45.7969                69.6089                43.4995

                    103                    104                    105
                      A                      A                      A
 Frequencies --   3117.8469              3135.6873              3762.7777
 Red. masses --      1.1003                 1.0999                 1.0653
 Frc consts  --      6.3018                 6.3716                 8.8867
 IR Inten    --     29.9421                37.1323                12.7934

 - Thermochemistry -
 -------------------
 Temperature   298.150 Kelvin.  Pressure   1.00000 Atm.
 Atom     1 has atomic number  6 and mass  12.00000

 Molecular mass:   184.18272 amu.
 Principal axes and moments of inertia in atomic units:
                           1         2         3
     Eigenvalues --  1789.136133381.861644341.61951
           X            0.99960  -0.02829   0.00041
           Y            0.02829   0.99960   0.00045
           Z           -0.00042  -0.00044   1.00000
 This molecule is an asymmetric top.
 Rotational symmetry number  1.
 Warning -- assumption of classical behavior for rotation
           may cause significant error
 Rotational temperatures (Kelvin)      0.04841     0.02561     0.01995
 Rotational constants (GHZ):           1.00872     0.53365     0.41568
 Zero-point vibrational energy     912344.4 (Joules/Mol)
                                  218.05555 (Kcal/Mol)
 Warning -- explicit consideration of  23 degrees of freedom as
           vibrations may cause significant error
 Vibrational temperatures:     92.51   111.23   151.26   168.71   221.55
          (Kelvin)            239.77   307.69   341.12   348.91   362.12
                              370.56   383.76   415.39   437.66   466.22
                              493.88   541.80   576.07   624.03   671.00
                              725.19   776.75   847.66   976.68  1080.64
                             1102.09  1172.69  1209.70  1282.07  1292.63
                             1336.11  1348.43  1375.43  1400.94  1449.49
                             1478.42  1491.43  1524.33  1531.50  1534.00
                             1556.77  1566.69  1609.77  1630.07  1645.36
                             1652.19  1690.39  1734.11  1758.92  1790.85
                             1837.50  1848.00  1866.84  1880.66  1925.96
                             1934.65  1955.50  1972.02  1987.44  1991.94
                             2009.49  2023.90  2025.97  2030.31  2046.28
                             2064.93  2071.54  2074.05  2083.18  2084.71
                             2175.42  2182.89  2186.12  2193.84  2197.91
                             2200.27  2204.24  2209.69  2219.81  2225.15
                             2227.71  4303.33  4308.27  4311.53  4330.23
                             4338.82  4354.04  4358.20  4362.45  4376.15
                             4377.56  4382.38  4398.90  4402.08  4408.45
                             4409.07  4437.24  4451.63  4469.29  4474.58
                             4475.93  4483.79  4485.89  4511.55  5413.80

 Zero-point correction=                           0.347494 (Hartree/Particle)
 Thermal correction to Energy=                    0.362256
 Thermal correction to Enthalpy=                  0.363200
 Thermal correction to Gibbs Free Energy=         0.307242
 Sum of electronic and zero-point Energies=           -546.676495
 Sum of electronic and thermal Energies=              -546.661733
 Sum of electronic and thermal Enthalpies=            -546.660788
 Sum of electronic and thermal Free Energies=         -546.716747

                     E (Thermal)             CV                S
                      KCal/Mol        Cal/Mol-Kelvin    Cal/Mol-Kelvin
 Total                  227.319             57.635            117.774
 Electronic               0.000              0.000              0.000
 Translational            0.889              2.981             41.539
 Rotational               0.889              2.981             31.641
 Vibrational            225.541             51.673             44.594
 Vibration     1          0.597              1.971              4.321
 Vibration     2          0.599              1.964              3.958
 Vibration     3          0.605              1.945              3.357
 Vibration     4          0.608              1.935              3.145
 Vibration     5          0.620              1.898              2.622
 Vibration     6          0.624              1.883              2.473
 Vibration     7          0.644              1.820              2.011
 Vibration     8          0.656              1.784              1.825
 Vibration     9          0.659              1.775              1.784
 Vibration    10          0.664              1.760              1.719
 Vibration    11          0.667              1.750              1.678
 Vibration    12          0.672              1.734              1.617
 Vibration    13          0.685              1.695              1.481
 Vibration    14          0.695              1.666              1.394
 Vibration    15          0.709              1.627              1.290
 Vibration    16          0.722              1.589              1.197
 Vibration    17          0.747              1.520              1.053
 Vibration    18          0.766              1.469              0.961
 Vibration    19          0.794              1.397              0.847
 Vibration    20          0.824              1.325              0.748
 Vibration    21          0.859              1.241              0.648
 Vibration    22          0.895              1.162              0.566
 Vibration    23          0.946              1.055              0.469

 Optimization completed.
    -- Stationary point found.
 Normal termination of Gaussian 16 at Sun Dec 13 20:28:28 2020.

 ----------------------------------------------------------------------
 # B3LYP/6-311++G(d,p) empiricaldispersion=gd3bj scf=xqc pop=npa geom=c
 heck
 ----------------------------------------------------------------------

 ---------------------------------------
 CID_147229310_JID_3902_Energie_neutraal
 ---------------------------------------
 Structure from the checkpoint file:  "JID_3902.chk"
 Charge =  0 Multiplicity = 1

 SCF Done:  E(RB3LYP) =  -547.185193462     A.U. after   13 cycles
 Normal termination of Gaussian 16 at Sun Dec 13 20:34:25 2020.

 ----------------------------------------------------------------------
 # B3LYP/6-311++G(d,p) empiricaldispersion=gd3bj scf=xqc pop=npa geom=c
 heck
 ----------------------------------------------------------------------

 -------------------------------------
 CID_147229310_JID_3902_Energie_kation
 -------------------------------------
 Structure from the checkpoint file:  "JID_3902.chk"
 Charge =  1 Multiplicity = 2

 SCF Done:  E(UB3LYP) =  -546.845498235     A.U. after   27 cycles
 Normal termination of Gaussian 16 at Sun Dec 13 20:51:48 2020.
 Gaussian 16:  ES64L-G16RevA.03 25-Dec-2016

 ----------------------------------------------------------------------
 # B3LYP/6-311++G(d,p) empiricaldispersion=gd3bj scf=xqc pop=npa geom=c
 heck
 ----------------------------------------------------------------------

 ------------------------------------
 CID_147229310_JID_3902_Energie_anion
 ------------------------------------
 Structure from the checkpoint file:  "JID_3902.chk"
 Charge = -1 Multiplicity = 2

                         Standard orientation:
 ---------------------------------------------------------------------
 Center     Atomic      Atomic             Coordinates (Angstroms)
 Number     Number       Type             X           Y           Z
 ---------------------------------------------------------------------
      1          6           0       -3.465612    1.885331    0.875483
      2          6           0       -2.763988    0.851066   -0.007884
      3          6           0       -1.234730    0.981437    0.035583
      4          6           0       -0.471519    0.005210   -0.894672
      5          6           0        0.745915    0.651661   -1.591533
      6          6           0        1.981134    0.884930   -0.696676
      7          6           0        2.373761   -0.441342   -0.002268
      8          6           0        1.174541   -1.064142    0.729661
      9          6           0       -0.012953   -1.310665   -0.212719
     10          6           0       -1.133896   -2.067540    0.502804
     11          8           0       -2.173229   -2.504509   -0.366518
     12          6           0        3.587514   -0.304062    0.921108
     13          6           0        1.824753    2.063610    0.277561
     14          1           0       -3.169340    1.770435    1.925066
     15          1           0       -4.555266    1.785700    0.822895
     16          1           0       -3.205622    2.905324    0.567839
     17          1           0       -3.076357   -0.151802    0.309514
     18          1           0       -3.102023    0.968053   -1.047624
     19          1           0       -0.984061    2.011872   -0.244639
     20          1           0       -0.900038    0.869047    1.074593
     21          1           0       -1.164346   -0.269526   -1.704892
     22          1           0        1.051039   -0.013703   -2.411348
     23          1           0        0.441496    1.597713   -2.058394
     24          1           0        2.808522    1.149913   -1.371461
     25          1           0        2.648847   -1.139990   -0.807729
     26          1           0        0.870805   -0.417932    1.565185
     27          1           0        1.483201   -2.016116    1.182386
     28          1           0        0.339099   -1.973317   -1.017520
     29          1           0       -0.728434   -2.982324    0.947550
     30          1           0       -1.536051   -1.460532    1.330231
     31          1           0       -2.538075   -1.720618   -0.803289
     32          1           0        3.918474   -1.287239    1.275154
     33          1           0        4.431192    0.167872    0.402958
     34          1           0        3.355824    0.302284    1.804082
     35          1           0        2.788013    2.333914    0.721826
     36          1           0        1.444772    2.948015   -0.246433
     37          1           0        1.134635    1.846059    1.097507
 ---------------------------------------------------------------------

 SCF Done:  E(UB3LYP) =  -547.170698698     A.U. after   29 cycles

 The electronic state is 2-A.
 Alpha  occ. eigenvalues --  -19.03013 -10.11873 -10.07611 -10.07404 -10.07298
 Alpha  occ. eigenvalues --  -10.07166 -10.06974 -10.06669 -10.06591 -10.06363
 Alpha  occ. eigenvalues --  -10.06239 -10.05833 -10.05395  -0.93078  -0.75038
 Alpha  occ. eigenvalues --   -0.70215  -0.67677  -0.66027  -0.61376  -0.58870
 Alpha  occ. eigenvalues --   -0.57436  -0.54366  -0.50545  -0.49711  -0.46453
 Alpha  occ. eigenvalues --   -0.43328  -0.41020  -0.39495  -0.36830  -0.35881
 Alpha  occ. eigenvalues --   -0.35157  -0.34512  -0.33273  -0.31589  -0.31339
 Alpha  occ. eigenvalues --   -0.30744  -0.30346  -0.28695  -0.28637  -0.27785
 Alpha  occ. eigenvalues --   -0.26855  -0.26484  -0.25631  -0.24416  -0.23850
 Alpha  occ. eigenvalues --   -0.23399  -0.22771  -0.21750  -0.20847  -0.20282
 Alpha  occ. eigenvalues --   -0.19531  -0.17696   0.04351
 Alpha virt. eigenvalues --    0.06152   0.06928   0.07291   0.08329   0.08554
 Alpha virt. eigenvalues --    0.08879   0.09617   0.09809   0.10656   0.10952
 Alpha virt. eigenvalues --    0.11282   0.11872   0.12126   0.12851   0.13364

  Beta  occ. eigenvalues --  -19.03008 -10.11864 -10.07607 -10.07398 -10.07280
  Beta  occ. eigenvalues --  -10.07157 -10.06964 -10.06657 -10.06576 -10.06329
  Beta  occ. eigenvalues --  -10.06223 -10.05804 -10.05370  -0.93069  -0.75013
  Beta  occ. eigenvalues --   -0.70186  -0.67650  -0.65994  -0.61340  -0.58824
  Beta  occ. eigenvalues --   -0.57394  -0.54315  -0.50495  -0.49641  -0.46415
  Beta  occ. eigenvalues --   -0.43297  -0.40992  -0.39464  -0.36797  -0.35846
  Beta  occ. eigenvalues --   -0.35130  -0.34487  -0.33235  -0.31567  -0.31301
  Beta  occ. eigenvalues --   -0.30712  -0.30304  -0.28663  -0.28605  -0.27757
  Beta  occ. eigenvalues --   -0.26828  -0.26436  -0.25595  -0.24387  -0.23815
  Beta  occ. eigenvalues --   -0.23368  -0.22743  -0.21728  -0.20817  -0.20254
  Beta  occ. eigenvalues --   -0.19500  -0.17681
  Beta virt. eigenvalues --    0.06415   0.07008   0.07404   0.07858   0.08764
  Beta virt. eigenvalues --    0.08946   0.09441   0.10025   0.10115   0.11065
  Beta virt. eigenvalues --    0.11312   0.11700   0.12171   0.12492   0.13107

 Mulliken charges and spin densities:
               1          2
     1  C    1.220204  -1.960842
     2  C   -0.935250   0.782449
     3  C    0.038447  -0.710348
     4  C    0.763162   0.190873
     5  C   -0.531164  -0.356490
     6  C   -0.317504   0.566542
     7  C   -0.754416   1.013430
     8  C    0.052957  -0.683316
     9  C   -0.537751   0.780139
    10  C   -0.141792  -0.687248
    11  O   -0.194023  -0.000565
    12  C    0.982065  -1.762254
    13  C    0.863909  -1.561823
    14  H   -0.251388   0.388994
    15  H   -0.251804   0.394453
    16  H   -0.353571   0.498627
    17  H    0.200101  -0.104691
    18  H   -0.252789   0.406290
    19  H    0.527481  -0.376840
    20  H    0.358507  -0.250706
    21  H    0.119881   0.091559
    22  H   -0.061201   0.204046
    23  H   -0.507576   0.690792
    24  H   -0.205172   0.426435
    25  H   -0.174641   0.358080
    26  H   -0.069529   0.245692
    27  H    0.103076   0.042529
    28  H    0.054829   0.146986
    29  H   -0.033870   0.202867
    30  H    0.083584   0.086812
    31  H    0.123718   0.127828
    32  H   -0.238826   0.372801
    33  H   -0.292189   0.436467
    34  H    0.088619   0.059354
    35  H   -0.134417   0.295166
    36  H   -0.156852   0.296545
    37  H   -0.184815   0.349366
 Sum of Mulliken charges =  -1.00000   1.00000

 Dipole moment (field-independent basis, Debye):
    X=             -0.6134    Y=             -2.8266    Z=              0.9180  Tot=              3.0346
 Quadrupole moment (field-independent basis, Debye-Ang):
   XX=           -164.0198   YY=           -140.7947   ZZ=           -121.8020
   XY=              4.3385   XZ=              2.9488   YZ=             -0.0290

 Summary of Natural Population Analysis:

                                       Natural Population
                Natural  -----------------------------------------------
    Atom  No    Charge         Core      Valence    Rydberg      Total
 -----------------------------------------------------------------------
      C    1   -0.28303      0.99967     2.27825    0.00511     3.28303
      C    2   -0.19083      0.99963     2.18237    0.00882     3.19083
      C    3   -0.19665      0.99960     2.18748    0.00957     3.19665
      C    4   -0.11082      0.99957     2.09828    0.01297     3.11082
      C    5   -0.18054      0.99960     2.17019    0.01076     3.18054
      C    6   -0.10789      0.99958     2.09642    0.01189     3.10789
      C    7   -0.10695      0.99958     2.09684    0.01053     3.10695
      C    8   -0.19102      0.99959     2.18194    0.00950     3.19102
      C    9   -0.11819      0.99956     2.10842    0.01020     3.11819
      C   10   -0.00539      0.99955     1.99418    0.01167     3.00539
      O   11   -0.37038      0.99990     3.36407    0.00641     4.37038
      C   12   -0.28390      0.99965     2.27810    0.00616     3.28390
      C   13   -0.28994      0.99964     2.28361    0.00669     3.28994
      H   14    0.09569      0.00000     0.40329    0.00102     0.40431
      H   15    0.09873      0.00000     0.40022    0.00105     0.40127
      H   16    0.09843      0.00000     0.40028    0.00128     0.40157
      H   17    0.08886      0.00000     0.40941    0.00173     0.41114
      H   18    0.09330      0.00000     0.40532    0.00138     0.40670
      H   19    0.10124      0.00000     0.39723    0.00153     0.39876
      H   20    0.09501      0.00000     0.40339    0.00160     0.40499
      H   21    0.09468      0.00000     0.40345    0.00187     0.40532
      H   22    0.09851      0.00000     0.40011    0.00138     0.40149
      H   23    0.09978      0.00000     0.39906    0.00116     0.40022
      H   24    0.09813      0.00000     0.40006    0.00182     0.40187
      H   25    0.09468      0.00000     0.40354    0.00179     0.40532
      H   26    0.09544      0.00000     0.40311    0.00145     0.40456
      H   27    0.09977      0.00000     0.39913    0.00110     0.40023
      H   28    0.09840      0.00000     0.39992    0.00168     0.40160
      H   29    0.08651      0.00000     0.41227    0.00121     0.41349
      H   30    0.07620      0.00000     0.42246    0.00134     0.42380
      H   31    0.22826      0.00000     0.26858    0.00316     0.27174
      H   32    0.09868      0.00000     0.40038    0.00094     0.40132
      H   33    0.10066      0.00000     0.39828    0.00106     0.39934
      H   34    0.09698      0.00000     0.40207    0.00096     0.40302
      H   35    0.10036      0.00000     0.39864    0.00101     0.39964
      H   36    0.10114      0.00000     0.39777    0.00109     0.39886
      H   37    0.09609      0.00000     0.40260    0.00131     0.40391
 =======================================================================
   * Total *   -0.00000     12.99513    38.85071    0.15417    52.00000

 Normal termination of Gaussian 16 at Sun Dec 13 21:10:13 2020.
