 Gaussian 16, Revision A.03,

 -----------------------------------------------------------
 # opt freq B3LYP/6-31G(d) empiricaldispersion=gd3bj scf=xqc
 -----------------------------------------------------------

 ------------------------------
 CID_82537938_JID_9168_neutraal
 ------------------------------
 Symbolic Z-matrix:
 Charge =  0 Multiplicity = 1

 SCF Done:  E(RB3LYP) =  -786.660234675     A.U. after   14 cycles
 SCF Done:  E(RB3LYP) =  -786.666672706     A.U. after   12 cycles
 SCF Done:  E(RB3LYP) =  -786.667167086     A.U. after   11 cycles
 SCF Done:  E(RB3LYP) =  -786.667224144     A.U. after   10 cycles
 SCF Done:  E(RB3LYP) =  -786.667249520     A.U. after    9 cycles
 SCF Done:  E(RB3LYP) =  -786.667269233     A.U. after    9 cycles
 SCF Done:  E(RB3LYP) =  -786.667289456     A.U. after   10 cycles
 SCF Done:  E(RB3LYP) =  -786.667329503     A.U. after   10 cycles
 SCF Done:  E(RB3LYP) =  -786.667375642     A.U. after   10 cycles
 SCF Done:  E(RB3LYP) =  -786.667441916     A.U. after   10 cycles
 SCF Done:  E(RB3LYP) =  -786.667486088     A.U. after    8 cycles
 SCF Done:  E(RB3LYP) =  -786.667486129     A.U. after    7 cycles
 SCF Done:  E(RB3LYP) =  -786.667486213     A.U. after    7 cycles
 SCF Done:  E(RB3LYP) =  -786.667486267     A.U. after    7 cycles
 SCF Done:  E(RB3LYP) =  -786.667486280     A.U. after    6 cycles
 Optimization completed.
    -- Stationary point found.
 Normal termination of Gaussian 16 at Mon Dec 14 13:34:34 2020.

 --------------------------------------------------------------------
 #N Geom=AllCheck Guess=TCheck SCRF=Check GenChk RB3LYP/6-31G(d) Freq
 --------------------------------------------------------------------

 Structure from the checkpoint file:  "JID_9168.chk"
 ------------------------------
 CID_82537938_JID_9168_neutraal
 ------------------------------
 Charge =  0 Multiplicity = 1

 SCF Done:  E(RB3LYP) =  -786.667486280     A.U. after    1 cycles

  Exact polarizability: 271.003 -14.072 181.762   4.487   8.989 113.899
 Approx polarizability: 354.676 -25.526 306.897   8.440  22.895 174.660

                      1                      2                      3
                      A                      A                      A
 Frequencies --     26.3357                34.3831                53.8993
 Red. masses --      3.4498                 3.1064                 2.6751
 Frc consts  --      0.0014                 0.0022                 0.0046
 IR Inten    --      0.2085                 0.6735                 0.3999

                      4                      5                      6
                      A                      A                      A
 Frequencies --     68.6148                91.1507               108.2902
 Red. masses --      1.5857                 2.7121                 2.6848
 Frc consts  --      0.0044                 0.0133                 0.0185
 IR Inten    --      0.8686                 1.2045                 1.8894

                      7                      8                      9
                      A                      A                      A
 Frequencies --    142.9406               154.3224               179.1181
 Red. masses --      2.3937                 2.5830                 3.1540
 Frc consts  --      0.0288                 0.0362                 0.0596
 IR Inten    --      3.8907                 0.2559                 5.8932

                     10                     11                     12
                      A                      A                      A
 Frequencies --    196.1872               228.6259               236.1045
 Red. masses --      3.8528                 3.6208                 3.5719
 Frc consts  --      0.0874                 0.1115                 0.1173
 IR Inten    --      3.6876                 1.0508                 3.3246

                     13                     14                     15
                      A                      A                      A
 Frequencies --    282.0229               314.5429               366.9404
 Red. masses --      2.9530                 2.2166                 4.7189
 Frc consts  --      0.1384                 0.1292                 0.3744
 IR Inten    --      0.6282                 1.8924                 1.3116

                     16                     17                     18
                      A                      A                      A
 Frequencies --    370.9065               405.4779               436.9909
 Red. masses --      3.2860                 2.3718                 3.1162
 Frc consts  --      0.2663                 0.2298                 0.3506
 IR Inten    --      0.8244                 0.4471                 2.1199

                     19                     20                     21
                      A                      A                      A
 Frequencies --    450.2553               461.8196               517.4414
 Red. masses --      2.5067                 3.2844                 3.7298
 Frc consts  --      0.2994                 0.4127                 0.5884
 IR Inten    --      2.1934                 1.2449                 1.3818

                     22                     23                     24
                      A                      A                      A
 Frequencies --    584.1712               598.4689               618.3961
 Red. masses --      3.6445                 5.3135                 4.8610
 Frc consts  --      0.7328                 1.1213                 1.0952
 IR Inten    --      0.7559                 0.8397                 5.9136

                     25                     26                     27
                      A                      A                      A
 Frequencies --    639.9503               665.6643               681.4824
 Red. masses --      3.0707                 2.9511                 2.5237
 Frc consts  --      0.7409                 0.7705                 0.6906
 IR Inten    --      2.1729                 1.1993                 1.5144

                     28                     29                     30
                      A                      A                      A
 Frequencies --    714.7180               729.8615               763.3406
 Red. masses --      1.3479                 4.6928                 2.3967
 Frc consts  --      0.4057                 1.4729                 0.8228
 IR Inten    --     34.2123                 5.7757                 8.2089

                     31                     32                     33
                      A                      A                      A
 Frequencies --    789.6311               794.3022               803.8458
 Red. masses --      3.4806                 1.9676                 2.1816
 Frc consts  --      1.2787                 0.7314                 0.8306
 IR Inten    --      1.5611                17.4846                11.0244

                     34                     35                     36
                      A                      A                      A
 Frequencies --    810.5561               825.5217               834.1068
 Red. masses --      2.2460                 1.2830                 2.8237
 Frc consts  --      0.8694                 0.5151                 1.1575
 IR Inten    --      8.7011                 1.3075                34.6434

                     37                     38                     39
                      A                      A                      A
 Frequencies --    841.3465               862.1813               887.2912
 Red. masses --      1.7294                 1.7064                 1.7831
 Frc consts  --      0.7213                 0.7473                 0.8271
 IR Inten    --     22.0224               118.5592                 1.3145

                     40                     41                     42
                      A                      A                      A
 Frequencies --    905.7917               926.1647               930.6538
 Red. masses --      1.2869                 3.4993                 2.7719
 Frc consts  --      0.6221                 1.7685                 1.4145
 IR Inten    --      0.0893                 5.9940                 1.5998

                     43                     44                     45
                      A                      A                      A
 Frequencies --    953.1548               961.5681              1001.7254
 Red. masses --      2.8754                 1.8211                 2.0929
 Frc consts  --      1.5391                 0.9921                 1.2374
 IR Inten    --     13.9538                 0.8147                 1.3715

                     46                     47                     48
                      A                      A                      A
 Frequencies --   1004.7788              1018.5589              1033.6835
 Red. masses --      2.0852                 1.8456                 1.6790
 Frc consts  --      1.2404                 1.1281                 1.0570
 IR Inten    --      8.6923                 5.7756                 8.0593

                     49                     50                     51
                      A                      A                      A
 Frequencies --   1038.2564              1083.5041              1088.3771
 Red. masses --      2.1004                 1.5255                 2.9919
 Frc consts  --      1.3340                 1.0552                 2.0881
 IR Inten    --      8.4539                10.6910                 7.6563

                     52                     53                     54
                      A                      A                      A
 Frequencies --   1106.8242              1112.0093              1133.3577
 Red. masses --      1.6608                 1.1901                 2.4286
 Frc consts  --      1.1988                 0.8670                 1.8380
 IR Inten    --      3.9188                22.2631                16.9847

                     55                     56                     57
                      A                      A                      A
 Frequencies --   1147.5669              1161.6388              1180.0974
 Red. masses --      2.6776                 1.2877                 1.7152
 Frc consts  --      2.0775                 1.0238                 1.4073
 IR Inten    --     14.8999                 0.1582                 6.7239

                     58                     59                     60
                      A                      A                      A
 Frequencies --   1195.7640              1199.8777              1217.1273
 Red. masses --      1.5726                 1.3346                 1.7794
 Frc consts  --      1.3248                 1.1321                 1.5531
 IR Inten    --     14.2458                20.1874                 4.0112

                     61                     62                     63
                      A                      A                      A
 Frequencies --   1234.4545              1243.6353              1246.3323
 Red. masses --      1.7035                 2.0066                 1.2892
 Frc consts  --      1.5295                 1.8285                 1.1798
 IR Inten    --     11.6478                31.1768                 4.1735

                     64                     65                     66
                      A                      A                      A
 Frequencies --   1287.0519              1291.7626              1306.9727
 Red. masses --      1.7042                 1.5908                 1.4494
 Frc consts  --      1.6633                 1.5640                 1.4587
 IR Inten    --     39.5222                 3.0964                 1.1271

                     67                     68                     69
                      A                      A                      A
 Frequencies --   1311.0824              1328.9843              1338.1881
 Red. masses --      1.4644                 1.6552                 1.4141
 Frc consts  --      1.4831                 1.7224                 1.4919
 IR Inten    --      4.2706                64.4546                21.3567

                     70                     71                     72
                      A                      A                      A
 Frequencies --   1346.0838              1352.7487              1357.3991
 Red. masses --      1.3647                 1.5384                 2.0873
 Frc consts  --      1.4569                 1.6586                 2.2659
 IR Inten    --     52.0034                 5.9976                25.2829

                     73                     74                     75
                      A                      A                      A
 Frequencies --   1387.4327              1394.8343              1399.4319
 Red. masses --      2.0261                 1.8737                 2.0031
 Frc consts  --      2.2979                 2.1478                 2.3114
 IR Inten    --     27.9582                29.6455                 3.7039

                     76                     77                     78
                      A                      A                      A
 Frequencies --   1408.0187              1429.0526              1433.8630
 Red. masses --      1.8696                 4.5847                 4.2104
 Frc consts  --      2.1838                 5.5164                 5.1003
 IR Inten    --     48.6642                54.0681                 5.7265

                     79                     80                     81
                      A                      A                      A
 Frequencies --   1480.1487              1485.3082              1505.6508
 Red. masses --      1.3258                 1.1431                 3.4333
 Frc consts  --      1.7114                 1.4859                 4.5858
 IR Inten    --     82.7707                 6.0782                22.2271

                     82                     83                     84
                      A                      A                      A
 Frequencies --   1507.3882              1520.1885              1521.9659
 Red. masses --      1.0429                 1.0945                 1.0904
 Frc consts  --      1.3962                 1.4903                 1.4882
 IR Inten    --      6.4103                 2.1139                12.4411

                     85                     86                     87
                      A                      A                      A
 Frequencies --   1525.7384              1539.7703              1541.9941
 Red. masses --      1.0908                 2.2031                 1.0930
 Frc consts  --      1.4962                 3.0774                 1.5312
 IR Inten    --      8.2657               265.6488                 2.8170

                     88                     89                     90
                      A                      A                      A
 Frequencies --   1552.1688              1557.9075              1566.2153
 Red. masses --      1.2887                 1.0859                 1.2949
 Frc consts  --      1.8293                 1.5528                 1.8714
 IR Inten    --     38.5317                 3.7012                11.2257

                     91                     92                     93
                      A                      A                      A
 Frequencies --   1575.6224              1626.9577              1685.0867
 Red. masses --      2.8414                 5.9710                 6.6033
 Frc consts  --      4.1561                 9.3122                11.0474
 IR Inten    --     11.4737                64.2540               100.3573

                     94                     95                     96
                      A                      A                      A
 Frequencies --   2942.2768              3000.4326              3031.6798
 Red. masses --      1.0731                 1.0656                 1.0685
 Frc consts  --      5.4734                 5.6523                 5.7859
 IR Inten    --     73.3448                60.2238                40.0644

                     97                     98                     99
                      A                      A                      A
 Frequencies --   3034.0935              3038.2545              3047.7467
 Red. masses --      1.0920                 1.0359                 1.0875
 Frc consts  --      5.9231                 5.6338                 5.9515
 IR Inten    --     18.7876                89.3845                35.1519

                    100                    101                    102
                      A                      A                      A
 Frequencies --   3050.4799              3054.5243              3066.3475
 Red. masses --      1.0684                 1.0701                 1.0639
 Frc consts  --      5.8576                 5.8826                 5.8938
 IR Inten    --     40.7911                70.5547                44.5716

                    103                    104                    105
                      A                      A                      A
 Frequencies --   3087.9321              3100.6891              3103.6441
 Red. masses --      1.1055                 1.1001                 1.0980
 Frc consts  --      6.2106                 6.2315                 6.2316
 IR Inten    --     30.0981                 5.6789                15.7056

                    106                    107                    108
                      A                      A                      A
 Frequencies --   3109.0823              3119.9460              3149.9575
 Red. masses --      1.1003                 1.1029                 1.0999
 Frc consts  --      6.2664                 6.3254                 6.4298
 IR Inten    --     52.9332                49.6130                11.8400

                    109                    110                    111
                      A                      A                      A
 Frequencies --   3190.2686              3215.0029              3220.3237
 Red. masses --      1.0885                 1.0890                 1.0916
 Frc consts  --      6.5272                 6.6320                 6.6701
 IR Inten    --     16.5917                17.4682                14.1886

                    112                    113                    114
                      A                      A                      A
 Frequencies --   3251.1139              3270.2004              3472.6218
 Red. masses --      1.0890                 1.1033                 1.0744
 Frc consts  --      6.7819                 6.9519                 7.6339
 IR Inten    --      1.7693                 9.3702                 2.2490

 - Thermochemistry -
 -------------------
 Temperature   298.150 Kelvin.  Pressure   1.00000 Atm.
 Atom     1 has atomic number  6 and mass  12.00000

 Molecular mass:   255.17355 amu.
 Principal axes and moments of inertia in atomic units:
                           1         2         3
     Eigenvalues --  1656.98256********************
           X            1.00000   0.00212   0.00016
           Y           -0.00212   0.99999   0.00296
           Z           -0.00015  -0.00296   1.00000
 This molecule is an asymmetric top.
 Rotational symmetry number  1.
 Warning -- assumption of classical behavior for rotation
           may cause significant error
 Rotational temperatures (Kelvin)      0.05227     0.00784     0.00720
 Rotational constants (GHZ):           1.08917     0.16328     0.15008
 Zero-point vibrational energy     920034.4 (Joules/Mol)
                                  219.89351 (Kcal/Mol)
 Warning -- explicit consideration of  24 degrees of freedom as
           vibrations may cause significant error
 Vibrational temperatures:     37.89    49.47    77.55    98.72   131.15
          (Kelvin)            155.81   205.66   222.04   257.71   282.27
                              328.94   339.70   405.77   452.56   527.95
                              533.65   583.39   628.73   647.82   664.46
                              744.48   840.49   861.06   889.73   920.75
                              957.74   980.50  1028.32  1050.11  1098.28
                             1136.10  1142.82  1156.55  1166.21  1187.74
                             1200.09  1210.51  1240.49  1276.61  1303.23
                             1332.54  1339.00  1371.38  1383.48  1441.26
                             1445.65  1465.48  1487.24  1493.82  1558.92
                             1565.93  1592.47  1599.93  1630.65  1651.09
                             1671.34  1697.90  1720.44  1726.36  1751.17
                             1776.10  1789.31  1793.19  1851.78  1858.56
                             1880.44  1886.36  1912.11  1925.35  1936.71
                             1946.30  1952.99  1996.21  2006.86  2013.47
                             2025.82  2056.09  2063.01  2129.60  2137.03
                             2166.30  2168.80  2187.21  2189.77  2195.20
                             2215.39  2218.59  2233.22  2241.48  2253.43
                             2266.97  2340.83  2424.46  4233.28  4316.95
                             4361.91  4365.38  4371.37  4385.03  4388.96
                             4394.78  4411.79  4442.85  4461.20  4465.45
                             4473.28  4488.91  4532.09  4590.09  4625.67
                             4633.33  4677.63  4705.09  4996.33

 Zero-point correction=                           0.350423 (Hartree/Particle)
 Thermal correction to Energy=                    0.367097
 Thermal correction to Enthalpy=                  0.368041
 Thermal correction to Gibbs Free Energy=         0.304663
 Sum of electronic and zero-point Energies=           -786.317064
 Sum of electronic and thermal Energies=              -786.300390
 Sum of electronic and thermal Enthalpies=            -786.299446
 Sum of electronic and thermal Free Energies=         -786.362823

                     E (Thermal)             CV                S
                      KCal/Mol        Cal/Mol-Kelvin    Cal/Mol-Kelvin
 Total                  230.357             65.706            133.390
 Electronic               0.000              0.000              0.000
 Translational            0.889              2.981             42.510
 Rotational               0.889              2.981             33.754
 Vibrational            228.579             59.745             57.126
 Vibration     1          0.593              1.985              6.088
 Vibration     2          0.594              1.983              5.559
 Vibration     3          0.596              1.976              4.669
 Vibration     4          0.598              1.969              4.193
 Vibration     5          0.602              1.955              3.635
 Vibration     6          0.606              1.943              3.299
 Vibration     7          0.616              1.910              2.764
 Vibration     8          0.620              1.898              2.618
 Vibration     9          0.629              1.868              2.338
 Vibration    10          0.636              1.845              2.169
 Vibration    11          0.651              1.797              1.890
 Vibration    12          0.655              1.785              1.832
 Vibration    13          0.681              1.707              1.521
 Vibration    14          0.702              1.646              1.338
 Vibration    15          0.740              1.540              1.093
 Vibration    16          0.743              1.532              1.076
 Vibration    17          0.770              1.458              0.943
 Vibration    18          0.797              1.390              0.836
 Vibration    19          0.809              1.360              0.795
 Vibration    20          0.820              1.335              0.761
 Vibration    21          0.872              1.211              0.616
 Vibration    22          0.941              1.066              0.478
 Vibration    23          0.956              1.035              0.452
 Vibration    24          0.978              0.993              0.419

 Optimization completed on the basis of negligible forces.
    -- Stationary point found.
 Normal termination of Gaussian 16 at Mon Dec 14 13:55:26 2020.

 ----------------------------------------------------------------------
 # B3LYP/6-311++G(d,p) empiricaldispersion=gd3bj scf=xqc pop=npa geom=c
 heck
 ----------------------------------------------------------------------

 --------------------------------------
 CID_82537938_JID_9168_Energie_neutraal
 --------------------------------------
 Structure from the checkpoint file:  "JID_9168.chk"
 Charge =  0 Multiplicity = 1

 SCF Done:  E(RB3LYP) =  -786.872365614     A.U. after   15 cycles
 Normal termination of Gaussian 16 at Mon Dec 14 14:05:23 2020.

 ----------------------------------------------------------------------
 # B3LYP/6-311++G(d,p) empiricaldispersion=gd3bj scf=xqc pop=npa geom=c
 heck
 ----------------------------------------------------------------------

 ------------------------------------
 CID_82537938_JID_9168_Energie_kation
 ------------------------------------
 Structure from the checkpoint file:  "JID_9168.chk"
 Charge =  1 Multiplicity = 2

 SCF Done:  E(UB3LYP) =  -786.638518931     A.U. after   24 cycles
 Normal termination of Gaussian 16 at Mon Dec 14 14:27:58 2020.
 Gaussian 16:  ES64L-G16RevA.03 25-Dec-2016

 ----------------------------------------------------------------------
 # B3LYP/6-311++G(d,p) empiricaldispersion=gd3bj scf=xqc pop=npa geom=c
 heck
 ----------------------------------------------------------------------

 -----------------------------------
 CID_82537938_JID_9168_Energie_anion
 -----------------------------------
 Structure from the checkpoint file:  "JID_9168.chk"
 Charge = -1 Multiplicity = 2

                         Standard orientation:
 ---------------------------------------------------------------------
 Center     Atomic      Atomic             Coordinates (Angstroms)
 Number     Number       Type             X           Y           Z
 ---------------------------------------------------------------------
      1          6           0        5.732172    0.632899    0.364231
      2          7           0        4.596309   -0.224512    0.119832
      3          6           0        4.629315   -1.583537   -0.130485
      4          6           0        3.356041   -2.062941   -0.311248
      5          6           0        2.462018   -0.947469   -0.167240
      6          6           0        3.273026    0.188265    0.101754
      7          6           0        2.714568    1.452652    0.294709
      8          6           0        1.334563    1.579568    0.218567
      9          6           0        0.493389    0.464112   -0.053257
     10          6           0        1.069000   -0.799343   -0.248800
     11          7           0       -0.883968    0.641200   -0.101800
     12          6           0       -1.503710    1.948854   -0.311128
     13          6           0       -2.911268    1.609802   -0.824963
     14          6           0       -3.184351    0.206343   -0.264455
     15          6           0       -1.795553   -0.442185   -0.415381
     16          6           0       -3.637065    0.196394    1.221968
     17          6           0       -4.692979   -0.948956    1.305434
     18          7           0       -4.724841   -1.631986   -0.003138
     19          6           0       -4.304142   -0.595740   -0.953915
     20          1           0        5.791531    1.430828   -0.386214
     21          1           0        5.671623    1.094379    1.357636
     22          1           0        6.646530    0.037902    0.312169
     23          1           0        5.578824   -2.101002   -0.157817
     24          1           0        3.087414   -3.088694   -0.522298
     25          1           0        3.332457    2.321309    0.504148
     26          1           0        0.887524    2.552515    0.387267
     27          1           0        0.449424   -1.660906   -0.470577
     28          1           0       -1.546227    2.520045    0.628608
     29          1           0       -0.935346    2.550613   -1.033458
     30          1           0       -3.663465    2.343183   -0.518308
     31          1           0       -2.907575    1.572571   -1.921744
     32          1           0       -1.648709   -0.828589   -1.441352
     33          1           0       -1.649240   -1.283597    0.273743
     34          1           0       -2.786129    0.034803    1.890614
     35          1           0       -4.084453    1.157272    1.499979
     36          1           0       -5.686855   -0.527917    1.499408
     37          1           0       -4.487352   -1.670395    2.101376
     38          1           0       -4.014011   -2.362821   -0.001682
     39          1           0       -5.161607    0.062319   -1.153649
     40          1           0       -3.997010   -1.039016   -1.906848
 ---------------------------------------------------------------------

 SCF Done:  E(UB3LYP) =  -786.861315564     A.U. after   33 cycles
 SCF Done:  E(UB3LYP) =  -786.861315564     a.u. after    1 cycles

 The electronic state is 2-A.
 Alpha  occ. eigenvalues --  -14.26539 -14.22951 -14.21352 -10.11857 -10.11382
 Alpha  occ. eigenvalues --  -10.11303 -10.11029 -10.10996 -10.10613 -10.10579
 Alpha  occ. eigenvalues --  -10.10045 -10.09782 -10.08645 -10.08171 -10.07848
 Alpha  occ. eigenvalues --  -10.07711 -10.07327 -10.06843 -10.06626  -0.89366
 Alpha  occ. eigenvalues --   -0.86531  -0.83424  -0.75380  -0.71775  -0.70027
 Alpha  occ. eigenvalues --   -0.66302  -0.64496  -0.64206  -0.62940  -0.59860
 Alpha  occ. eigenvalues --   -0.57819  -0.53248  -0.52169  -0.51360  -0.48421
 Alpha  occ. eigenvalues --   -0.47260  -0.46306  -0.43305  -0.42664  -0.42104
 Alpha  occ. eigenvalues --   -0.39568  -0.39304  -0.37358  -0.37109  -0.35784
 Alpha  occ. eigenvalues --   -0.35148  -0.34372  -0.33920  -0.33093  -0.32519
 Alpha  occ. eigenvalues --   -0.31552  -0.31315  -0.30600  -0.30482  -0.29513
 Alpha  occ. eigenvalues --   -0.28984  -0.28501  -0.27881  -0.26092  -0.24884
 Alpha  occ. eigenvalues --   -0.24419  -0.24300  -0.23594  -0.23431  -0.18741
 Alpha  occ. eigenvalues --   -0.16869  -0.15093  -0.11631  -0.08894   0.03713
 Alpha virt. eigenvalues --    0.04860   0.06096   0.06818   0.06904   0.06937
 Alpha virt. eigenvalues --    0.07385   0.08531   0.08770   0.09102   0.09232
 Alpha virt. eigenvalues --    0.09571   0.10040   0.10662   0.11081   0.11587

  Beta  occ. eigenvalues --  -14.26538 -14.22952 -14.21339 -10.11805 -10.11382
  Beta  occ. eigenvalues --  -10.11290 -10.11009 -10.10985 -10.10599 -10.10563
  Beta  occ. eigenvalues --  -10.10042 -10.09784 -10.08628 -10.08161 -10.07831
  Beta  occ. eigenvalues --  -10.07711 -10.07324 -10.06838 -10.06624  -0.89358
  Beta  occ. eigenvalues --   -0.86522  -0.83401  -0.75371  -0.71758  -0.70011
  Beta  occ. eigenvalues --   -0.66276  -0.64463  -0.64178  -0.62924  -0.59818
  Beta  occ. eigenvalues --   -0.57783  -0.53217  -0.52141  -0.51316  -0.48396
  Beta  occ. eigenvalues --   -0.47231  -0.46268  -0.43274  -0.42636  -0.42061
  Beta  occ. eigenvalues --   -0.39544  -0.39280  -0.37327  -0.37081  -0.35764
  Beta  occ. eigenvalues --   -0.35121  -0.34344  -0.33891  -0.33069  -0.32497
  Beta  occ. eigenvalues --   -0.31530  -0.31288  -0.30579  -0.30463  -0.29492
  Beta  occ. eigenvalues --   -0.28957  -0.28472  -0.27859  -0.26063  -0.24861
  Beta  occ. eigenvalues --   -0.24405  -0.24289  -0.23570  -0.23408  -0.18734
  Beta  occ. eigenvalues --   -0.16860  -0.15073  -0.11625  -0.08886
  Beta virt. eigenvalues --    0.05501   0.06140   0.06657   0.06914   0.07197
  Beta virt. eigenvalues --    0.07342   0.07670   0.08864   0.09047   0.09321
  Beta virt. eigenvalues --    0.09509   0.09840   0.10388   0.11006   0.11294

 Mulliken charges and spin densities:
               1          2
     1  C    0.923995  -1.253920
     2  N   -0.099549   0.225806
     3  C   -0.221880   0.216401
     4  C    0.673152  -0.459894
     5  C    0.172403  -0.004369
     6  C   -1.125387   0.273460
     7  C   -0.540539   0.298075
     8  C    0.334333  -0.303935
     9  C    0.203129  -0.952303
    10  C    0.296895  -0.139978
    11  N    0.400008   0.028915
    12  C   -0.249143   0.278072
    13  C    0.691003  -1.581204
    14  C   -1.256490   2.012932
    15  C    0.211056  -1.080971
    16  C    0.401825  -0.457866
    17  C    0.160076  -0.768528
    18  N   -0.115400   0.097968
    19  C   -0.138374  -0.698915
    20  H   -0.238750   0.409342
    21  H   -0.198880   0.369671
    22  H   -0.716763   0.864973
    23  H   -0.277118   0.451228
    24  H    0.036507   0.100958
    25  H   -0.084504   0.248525
    26  H   -0.096903   0.275587
    27  H   -0.100062   0.233695
    28  H    0.036461   0.108587
    29  H    0.016387   0.132593
    30  H   -0.260994   0.448303
    31  H    0.089697   0.073880
    32  H    0.101687   0.080435
    33  H    0.065518   0.144833
    34  H    0.107038   0.063553
    35  H   -0.109454   0.273664
    36  H    0.018708   0.143672
    37  H   -0.122533   0.286890
    38  H    0.071083   0.151087
    39  H    0.026800   0.155400
    40  H   -0.085039   0.253379
 Sum of Mulliken charges =  -1.00000   1.00000

 Dipole moment (field-independent basis, Debye):
    X=             -4.1574    Y=             -0.3104    Z=             -0.8369  Tot=              4.2521
 Quadrupole moment (field-independent basis, Debye-Ang):
   XX=           -262.5210   YY=           -154.6887   ZZ=           -147.3021
   XY=             -6.4353   XZ=             -1.8105   YZ=             -0.4993

 Summary of Natural Population Analysis:

                                       Natural Population
                Natural  -----------------------------------------------
    Atom  No    Charge         Core      Valence    Rydberg      Total
 -----------------------------------------------------------------------
      C    1   -0.17229      0.99964     2.16451    0.00814     3.17229
      N    2   -0.20963      0.99962     2.70009    0.00992     3.70963
      C    3    0.00653      0.99956     1.98160    0.01231     2.99347
      C    4   -0.15116      0.99953     2.14269    0.00894     3.15116
      C    5   -0.03532      0.99951     2.02719    0.00862     3.03532
      C    6    0.06697      0.99947     1.92266    0.01090     2.93303
      C    7   -0.10937      0.99953     2.10101    0.00883     3.10937
      C    8   -0.12450      0.99956     2.11715    0.00780     3.12450
      C    9    0.08971      0.99951     1.90056    0.01022     2.91029
      C   10   -0.12666      0.99950     2.12000    0.00715     3.12666
      N   11   -0.25827      0.99965     2.74895    0.00966     3.75827
      C   12   -0.07991      0.99963     2.06978    0.01049     3.07991
      C   13   -0.18904      0.99958     2.18014    0.00932     3.18904
      C   14   -0.05101      0.99956     2.03858    0.01288     3.05101
      C   15   -0.08050      0.99957     2.06821    0.01272     3.08050
      C   16   -0.19844      0.99959     2.19133    0.00752     3.19844
      C   17   -0.09065      0.99965     2.08106    0.00994     3.09065
      N   18   -0.33472      0.99977     2.82267    0.01228     3.83472
      C   19   -0.08493      0.99957     2.07445    0.01091     3.08493
      H   20    0.09761      0.00000     0.40075    0.00164     0.40239
      H   21    0.09745      0.00000     0.40094    0.00161     0.40255
      H   22    0.10433      0.00000     0.39342    0.00225     0.39567
      H   23    0.09964      0.00000     0.39943    0.00094     0.40036
      H   24    0.10435      0.00000     0.39493    0.00072     0.39565
      H   25    0.10372      0.00000     0.39524    0.00104     0.39628
      H   26    0.10171      0.00000     0.39694    0.00135     0.39829
      H   27    0.10203      0.00000     0.39652    0.00145     0.39797
      H   28    0.09102      0.00000     0.40757    0.00140     0.40898
      H   29    0.09491      0.00000     0.40381    0.00128     0.40509
      H   30    0.10457      0.00000     0.39414    0.00128     0.39543
      H   31    0.09842      0.00000     0.40037    0.00122     0.40158
      H   32    0.08828      0.00000     0.41019    0.00153     0.41172
      H   33    0.09854      0.00000     0.39963    0.00183     0.40146
      H   34    0.10413      0.00000     0.39433    0.00154     0.39587
      H   35    0.09984      0.00000     0.39877    0.00139     0.40016
      H   36    0.08825      0.00000     0.41016    0.00159     0.41175
      H   37    0.09488      0.00000     0.40381    0.00131     0.40512
      H   38    0.16930      0.00000     0.32751    0.00318     0.33070
      H   39    0.09140      0.00000     0.40726    0.00134     0.40860
      H   40    0.09878      0.00000     0.40004    0.00117     0.40122
 =======================================================================
   * Total *   -0.00000     18.99200    49.78838    0.21962    69.00000

 Normal termination of Gaussian 16 at Mon Dec 14 14:59:24 2020.
