 Gaussian 16, Revision A.03,

 -----------------------------------------------------------
 # opt freq B3LYP/6-31G(d) empiricaldispersion=gd3bj scf=xqc
 -----------------------------------------------------------

 ------------------------------
 CID_82050708_JID_6775_neutraal
 ------------------------------
 Symbolic Z-matrix:
 Charge =  0 Multiplicity = 1

 SCF Done:  E(RB3LYP) =  -1017.83345229     A.U. after   15 cycles
 SCF Done:  E(RB3LYP) =  -1017.83616550     A.U. after   13 cycles
 SCF Done:  E(RB3LYP) =  -1017.83494970     A.U. after   13 cycles
 SCF Done:  E(RB3LYP) =  -1017.83686359     A.U. after   12 cycles
 SCF Done:  E(RB3LYP) =  -1017.83623640     A.U. after   12 cycles
 SCF Done:  E(RB3LYP) =  -1017.83696765     A.U. after   13 cycles
 SCF Done:  E(RB3LYP) =  -1017.83701796     A.U. after   10 cycles
 SCF Done:  E(RB3LYP) =  -1017.83701660     A.U. after   10 cycles
 SCF Done:  E(RB3LYP) =  -1017.83701679     A.U. after   10 cycles
 SCF Done:  E(RB3LYP) =  -1017.83702110     A.U. after   10 cycles
 SCF Done:  E(RB3LYP) =  -1017.83702165     A.U. after    8 cycles
 SCF Done:  E(RB3LYP) =  -1017.83702172     A.U. after    8 cycles
 Optimization completed.
    -- Stationary point found.
 Normal termination of Gaussian 16 at Fri Dec 11 00:27:29 2020.

 --------------------------------------------------------------------
 #N Geom=AllCheck Guess=TCheck SCRF=Check GenChk RB3LYP/6-31G(d) Freq
 --------------------------------------------------------------------

 Structure from the checkpoint file:  "JID_6775.chk"
 ------------------------------
 CID_82050708_JID_6775_neutraal
 ------------------------------
 Charge =  0 Multiplicity = 1

 SCF Done:  E(RB3LYP) =  -1017.83702171     A.U. after    1 cycles

  Exact polarizability: 227.747   5.980 161.556  -5.582   1.412 110.372
 Approx polarizability: 288.406  15.327 283.538 -12.073  -0.565 174.583

                      1                      2                      3
                      A                      A                      A
 Frequencies --     23.5547                33.8983                61.6382
 Red. masses --      4.6899                 4.0914                 3.6031
 Frc consts  --      0.0015                 0.0028                 0.0081
 IR Inten    --      0.5695                 0.2654                 1.1132

                      4                      5                      6
                      A                      A                      A
 Frequencies --     79.3957               105.4948               115.5294
 Red. masses --      3.7471                 2.6277                 3.0226
 Frc consts  --      0.0139                 0.0172                 0.0238
 IR Inten    --      1.1593                 0.1425                 0.7823

                      7                      8                      9
                      A                      A                      A
 Frequencies --    140.1687               173.3616               181.9269
 Red. masses --      4.1774                 3.8262                 3.2763
 Frc consts  --      0.0484                 0.0678                 0.0639
 IR Inten    --      2.1276                 9.1028                 0.0491

                     10                     11                     12
                      A                      A                      A
 Frequencies --    243.7223               282.1256               293.4335
 Red. masses --      1.9959                 1.6478                 2.5451
 Frc consts  --      0.0699                 0.0773                 0.1291
 IR Inten    --      0.7853                 0.9907                 1.6589

                     13                     14                     15
                      A                      A                      A
 Frequencies --    311.2812               342.7286               356.7333
 Red. masses --      2.2795                 3.1674                 3.7560
 Frc consts  --      0.1301                 0.2192                 0.2816
 IR Inten    --      0.6925                 1.1998                 7.0047

                     16                     17                     18
                      A                      A                      A
 Frequencies --    366.2898               437.4731               451.3658
 Red. masses --      3.0445                 2.4879                 3.5602
 Frc consts  --      0.2407                 0.2805                 0.4273
 IR Inten    --      1.0308                 1.4879                 0.7560

                     19                     20                     21
                      A                      A                      A
 Frequencies --    466.6475               520.8788               523.3217
 Red. masses --      2.9319                 4.2310                 3.8828
 Frc consts  --      0.3762                 0.6763                 0.6265
 IR Inten    --      0.7093                 3.9513                 3.4105

                     22                     23                     24
                      A                      A                      A
 Frequencies --    577.0139               610.3889               633.9289
 Red. masses --      3.4539                 3.4787                 4.3581
 Frc consts  --      0.6775                 0.7636                 1.0319
 IR Inten    --     26.2893                 0.3114                 4.1712

                     25                     26                     27
                      A                      A                      A
 Frequencies --    660.9837               703.6312               716.6240
 Red. masses --      4.5448                 3.5256                 3.3677
 Frc consts  --      1.1699                 1.0284                 1.0190
 IR Inten    --      2.8776                16.4196                 0.8521

                     28                     29                     30
                      A                      A                      A
 Frequencies --    749.2893               774.0551               783.6110
 Red. masses --      4.6361                 1.2103                 2.2753
 Frc consts  --      1.5336                 0.4273                 0.8232
 IR Inten    --      0.3915                13.8993                10.5481

                     31                     32                     33
                      A                      A                      A
 Frequencies --    834.6653               852.6354               873.3496
 Red. masses --      1.6735                 1.6326                 3.2084
 Frc consts  --      0.6869                 0.6993                 1.4418
 IR Inten    --      5.0926                 6.4648                 2.2025

                     34                     35                     36
                      A                      A                      A
 Frequencies --    890.7390               918.0697               933.5971
 Red. masses --      2.8105                 1.4267                 1.7901
 Frc consts  --      1.3138                 0.7085                 0.9193
 IR Inten    --      0.9907                 1.0377                 1.2656

                     37                     38                     39
                      A                      A                      A
 Frequencies --    960.9596               961.8491               965.0802
 Red. masses --      1.6020                 1.5774                 1.7766
 Frc consts  --      0.8716                 0.8598                 0.9749
 IR Inten    --      0.4696                 0.8364                 8.4387

                     40                     41                     42
                      A                      A                      A
 Frequencies --    995.7375              1006.8927              1061.2339
 Red. masses --      1.9325                 2.2278                 1.9996
 Frc consts  --      1.1289                 1.3307                 1.3269
 IR Inten    --      4.8067                 4.5293                21.3764

                     43                     44                     45
                      A                      A                      A
 Frequencies --   1079.9368              1086.7052              1098.2459
 Red. masses --      1.6002                 1.7905                 1.7377
 Frc consts  --      1.0996                 1.2458                 1.2349
 IR Inten    --      0.1694                 0.2519                 5.8772

                     46                     47                     48
                      A                      A                      A
 Frequencies --   1115.4191              1150.4132              1168.8753
 Red. masses --      1.8872                 1.5813                 1.1760
 Frc consts  --      1.3834                 1.2331                 0.9466
 IR Inten    --      1.1631                63.6385                 2.0805

                     49                     50                     51
                      A                      A                      A
 Frequencies --   1175.4936              1200.3155              1219.1077
 Red. masses --      1.6540                 1.3764                 1.6861
 Frc consts  --      1.3466                 1.1683                 1.4764
 IR Inten    --      0.8728                 0.1673                 6.4968

                     52                     53                     54
                      A                      A                      A
 Frequencies --   1236.9569              1262.8861              1272.2003
 Red. masses --      2.3090                 1.2667                 1.5062
 Frc consts  --      2.0815                 1.1903                 1.4363
 IR Inten    --      2.5986                 4.7576                47.3319

                     55                     56                     57
                      A                      A                      A
 Frequencies --   1289.9585              1297.0599              1313.9737
 Red. masses --      1.2661                 1.1933                 2.1429
 Frc consts  --      1.2412                 1.1828                 2.1799
 IR Inten    --     10.8607                 1.0204               186.1677

                     58                     59                     60
                      A                      A                      A
 Frequencies --   1327.2990              1332.0841              1362.1278
 Red. masses --      1.3179                 1.3394                 5.0213
 Frc consts  --      1.3679                 1.4003                 5.4891
 IR Inten    --     23.1775                15.3150                33.0816

                     61                     62                     63
                      A                      A                      A
 Frequencies --   1375.5632              1388.8868              1395.7021
 Red. masses --      1.4439                 1.4781                 1.5471
 Frc consts  --      1.6097                 1.6799                 1.7756
 IR Inten    --      3.7764                 4.7126                 2.7768

                     64                     65                     66
                      A                      A                      A
 Frequencies --   1409.1489              1436.3546              1463.6569
 Red. masses --      1.6182                 1.2259                 3.4222
 Frc consts  --      1.8932                 1.4902                 4.3195
 IR Inten    --     13.4162                 8.7581                23.4198

                     67                     68                     69
                      A                      A                      A
 Frequencies --   1494.9781              1500.5296              1501.6135
 Red. masses --      1.1302                 1.1093                 1.1167
 Frc consts  --      1.4883                 1.4716                 1.4836
 IR Inten    --     25.2880                 5.5325                 8.8434

                     70                     71                     72
                      A                      A                      A
 Frequencies --   1508.7272              1520.6816              1521.7201
 Red. masses --      1.0880                 1.0441                 1.0876
 Frc consts  --      1.4592                 1.4226                 1.4838
 IR Inten    --      5.4693                 5.9773                 4.9754

                     73                     74                     75
                      A                      A                      A
 Frequencies --   1531.6332              1543.4796              1550.1868
 Red. masses --      1.1036                 1.0559                 2.3923
 Frc consts  --      1.5254                 1.4821                 3.3871
 IR Inten    --      1.7537                 1.9697                 2.2878

                     76                     77                     78
                      A                      A                      A
 Frequencies --   1625.6370              1663.1327              1751.0355
 Red. masses --      6.3806                 6.1374                11.0069
 Frc consts  --      9.9347                10.0020                19.8840
 IR Inten    --      4.6128                77.1258               156.6599

                     79                     80                     81
                      A                      A                      A
 Frequencies --   3015.4172              3019.1709              3033.6424
 Red. masses --      1.0696                 1.0701                 1.0676
 Frc consts  --      5.7304                 5.7473                 5.7889
 IR Inten    --     21.4243                13.4943                19.8750

                     82                     83                     84
                      A                      A                      A
 Frequencies --   3040.2069              3054.4561              3069.8575
 Red. masses --      1.0615                 1.0385                 1.0918
 Frc consts  --      5.7805                 5.7085                 6.0621
 IR Inten    --     32.8219                32.9095                36.1811

                     85                     86                     87
                      A                      A                      A
 Frequencies --   3074.3631              3074.7178              3087.1900
 Red. masses --      1.0597                 1.0926                 1.0957
 Frc consts  --      5.9013                 6.0856                 6.1527
 IR Inten    --     12.3013                26.9896                70.8529

                     88                     89                     90
                      A                      A                      A
 Frequencies --   3089.5887              3102.0586              3116.8147
 Red. masses --      1.1049                 1.0581                 1.1031
 Frc consts  --      6.2142                 5.9990                 6.3135
 IR Inten    --     48.8198                 7.5350                 9.8683

                     91                     92                     93
                      A                      A                      A
 Frequencies --   3123.7219              3151.9845              3160.3393
 Red. masses --      1.1008                 1.1038                 1.1073
 Frc consts  --      6.3287                 6.4613                 6.5158
 IR Inten    --     16.6849                17.9071                 6.2053

                     94                     95                     96
                      A                      A                      A
 Frequencies --   3179.0824              3205.3173              3225.4261
 Red. masses --      1.0892                 1.0896                 1.0916
 Frc consts  --      6.4855                 6.5959                 6.6910
 IR Inten    --     16.5801                 2.5789                10.6626

 - Thermochemistry -
 -------------------
 Temperature   298.150 Kelvin.  Pressure   1.00000 Atm.
 Atom     1 has atomic number  6 and mass  12.00000

 Molecular mass:   234.10784 amu.
 Principal axes and moments of inertia in atomic units:
                           1         2         3
     Eigenvalues --  1516.120838467.098079190.84616
           X            0.99998   0.00645  -0.00052
           Y           -0.00643   0.99938   0.03458
           Z            0.00074  -0.03458   0.99940
 This molecule is an asymmetric top.
 Rotational symmetry number  1.
 Warning -- assumption of classical behavior for rotation
           may cause significant error
 Rotational temperatures (Kelvin)      0.05713     0.01023     0.00942
 Rotational constants (GHZ):           1.19037     0.21315     0.19636
 Zero-point vibrational energy     765432.9 (Joules/Mol)
                                  182.94285 (Kcal/Mol)
 Warning -- explicit consideration of  23 degrees of freedom as
           vibrations may cause significant error
 Vibrational temperatures:     33.89    48.77    88.68   114.23   151.78
          (Kelvin)            166.22   201.67   249.43   261.75   350.66
                              405.92   422.19   447.86   493.11   513.26
                              527.01   629.43   649.41   671.40   749.43
                              752.94   830.19   878.21   912.08   951.01
                             1012.37  1031.06  1078.06  1113.69  1127.44
                             1200.90  1226.75  1256.56  1281.57  1320.90
                             1343.24  1382.61  1383.89  1388.54  1432.64
                             1448.69  1526.88  1553.79  1563.53  1580.13
                             1604.84  1655.19  1681.75  1691.27  1726.99
                             1754.02  1779.71  1817.01  1830.41  1855.96
                             1866.18  1890.52  1909.69  1916.57  1959.80
                             1979.13  1998.30  2008.10  2027.45  2066.59
                             2105.88  2150.94  2158.93  2160.49  2170.72
                             2187.92  2189.42  2203.68  2220.72  2230.37
                             2338.93  2392.88  2519.35  4338.51  4343.91
                             4364.73  4374.18  4394.68  4416.84  4423.32
                             4423.83  4441.78  4445.23  4463.17  4484.40
                             4494.34  4535.00  4547.02  4573.99  4611.74
                             4640.67

 Zero-point correction=                           0.291538 (Hartree/Particle)
 Thermal correction to Energy=                    0.307086
 Thermal correction to Enthalpy=                  0.308030
 Thermal correction to Gibbs Free Energy=         0.247145
 Sum of electronic and zero-point Energies=          -1017.545484
 Sum of electronic and thermal Energies=             -1017.529936
 Sum of electronic and thermal Enthalpies=           -1017.528992
 Sum of electronic and thermal Free Energies=        -1017.589877

                     E (Thermal)             CV                S
                      KCal/Mol        Cal/Mol-Kelvin    Cal/Mol-Kelvin
 Total                  192.699             59.475            128.145
 Electronic               0.000              0.000              0.000
 Translational            0.889              2.981             42.254
 Rotational               0.889              2.981             33.134
 Vibrational            190.922             53.514             52.757
 Vibration     1          0.593              1.985              6.309
 Vibration     2          0.594              1.983              5.587
 Vibration     3          0.597              1.973              4.404
 Vibration     4          0.600              1.963              3.906
 Vibration     5          0.605              1.945              3.350
 Vibration     6          0.608              1.937              3.174
 Vibration     7          0.615              1.913              2.802
 Vibration     8          0.627              1.875              2.399
 Vibration     9          0.630              1.864              2.309
 Vibration    10          0.659              1.773              1.776
 Vibration    11          0.681              1.707              1.521
 Vibration    12          0.688              1.686              1.454
 Vibration    13          0.700              1.652              1.356
 Vibration    14          0.722              1.590              1.199
 Vibration    15          0.732              1.561              1.136
 Vibration    16          0.739              1.542              1.095
 Vibration    17          0.798              1.388              0.835
 Vibration    18          0.810              1.358              0.792
 Vibration    19          0.824              1.324              0.747
 Vibration    20          0.876              1.204              0.608
 Vibration    21          0.878              1.198              0.602
 Vibration    22          0.933              1.081              0.491
 Vibration    23          0.969              1.010              0.432

 Optimization completed.
    -- Stationary point found.
 Normal termination of Gaussian 16 at Fri Dec 11 00:37:56 2020.

 ----------------------------------------------------------------------
 # B3LYP/6-311++G(d,p) empiricaldispersion=gd3bj scf=xqc pop=npa geom=c
 heck
 ----------------------------------------------------------------------

 --------------------------------------
 CID_82050708_JID_6775_Energie_neutraal
 --------------------------------------
 Structure from the checkpoint file:  "JID_6775.chk"
 Charge =  0 Multiplicity = 1

 SCF Done:  E(RB3LYP) =  -1018.02653530     A.U. after   15 cycles
 Normal termination of Gaussian 16 at Fri Dec 11 00:42:47 2020.

 ----------------------------------------------------------------------
 # B3LYP/6-311++G(d,p) empiricaldispersion=gd3bj scf=xqc pop=npa geom=c
 heck
 ----------------------------------------------------------------------

 ------------------------------------
 CID_82050708_JID_6775_Energie_kation
 ------------------------------------
 Structure from the checkpoint file:  "JID_6775.chk"
 Charge =  1 Multiplicity = 2

 SCF Done:  E(UB3LYP) =  -1017.73526233     A.U. after   26 cycles
 Normal termination of Gaussian 16 at Fri Dec 11 00:54:10 2020.
 Gaussian 16:  ES64L-G16RevA.03 25-Dec-2016

 ----------------------------------------------------------------------
 # B3LYP/6-311++G(d,p) empiricaldispersion=gd3bj scf=xqc pop=npa geom=c
 heck
 ----------------------------------------------------------------------

 -----------------------------------
 CID_82050708_JID_6775_Energie_anion
 -----------------------------------
 Structure from the checkpoint file:  "JID_6775.chk"
 Charge = -1 Multiplicity = 2

                         Standard orientation:
 ---------------------------------------------------------------------
 Center     Atomic      Atomic             Coordinates (Angstroms)
 Number     Number       Type             X           Y           Z
 ---------------------------------------------------------------------
      1          6           0        4.867978    1.184929    0.625212
      2          6           0        3.828605    0.315110    1.324473
      3         16           0        3.359686   -1.209915    0.408893
      4          6           0        2.696491   -0.501325   -1.155206
      5          6           0        1.577762    0.487100   -0.869598
      6          8           0        1.838099    1.684997   -0.853170
      7          6           0        0.206020   -0.010318   -0.571551
      8          6           0       -0.799697    0.936101   -0.344931
      9          6           0       -2.116696    0.564402   -0.074189
     10          6           0       -2.442559   -0.804302   -0.027605
     11          6           0       -3.862139   -1.271587    0.225126
     12          6           0       -4.757345   -0.188706    0.835944
     13          6           0       -4.595981    1.124386    0.065281
     14          6           0       -3.157690    1.635973    0.192810
     15          6           0       -1.433514   -1.752414   -0.246699
     16          6           0       -0.125971   -1.372743   -0.516828
     17          1           0        5.756175    0.604244    0.356520
     18          1           0        5.175481    2.001339    1.289888
     19          1           0        4.448472    1.636367   -0.277578
     20          1           0        4.209819   -0.071234    2.275772
     21          1           0        2.923932    0.890720    1.540613
     22          1           0        3.484663    0.018221   -1.702499
     23          1           0        2.363083   -1.360326   -1.742464
     24          1           0       -0.526642    1.986411   -0.388388
     25          1           0       -3.845245   -2.165086    0.861341
     26          1           0       -4.296958   -1.594173   -0.733149
     27          1           0       -4.479862   -0.028031    1.886871
     28          1           0       -5.801148   -0.522680    0.829467
     29          1           0       -4.837332    0.954758   -0.993291
     30          1           0       -5.295449    1.883354    0.433754
     31          1           0       -2.988292    2.485296   -0.479796
     32          1           0       -3.007791    2.024081    1.211359
     33          1           0       -1.685731   -2.809238   -0.199659
     34          1           0        0.631467   -2.134989   -0.659117
 ---------------------------------------------------------------------

 SCF Done:  E(UB3LYP) =  -1018.03921232     A.U. after   27 cycles

 The electronic state is 2-A.
 Alpha  occ. eigenvalues --  -88.70897 -18.91821 -10.07899 -10.06294 -10.06291
 Alpha  occ. eigenvalues --  -10.06267 -10.05996 -10.05471 -10.05440 -10.05178
 Alpha  occ. eigenvalues --  -10.03683 -10.02820 -10.02766 -10.02500 -10.01454
 Alpha  occ. eigenvalues --  -10.01170  -7.79521  -5.75915  -5.75564  -5.74891
 Alpha  occ. eigenvalues --   -0.86084  -0.73155  -0.68939  -0.68356  -0.64136
 Alpha  occ. eigenvalues --   -0.62800  -0.60636  -0.58502  -0.54487  -0.51346
 Alpha  occ. eigenvalues --   -0.49190  -0.47009  -0.45570  -0.43499  -0.38977
 Alpha  occ. eigenvalues --   -0.36719  -0.35252  -0.34878  -0.34048  -0.31973
 Alpha  occ. eigenvalues --   -0.31892  -0.30595  -0.30284  -0.28744  -0.27975
 Alpha  occ. eigenvalues --   -0.27717  -0.27026  -0.26432  -0.25612  -0.25490
 Alpha  occ. eigenvalues --   -0.24447  -0.23787  -0.22899  -0.22187  -0.21567
 Alpha  occ. eigenvalues --   -0.19785  -0.19099  -0.18731  -0.18134  -0.11301
 Alpha  occ. eigenvalues --   -0.10775  -0.09899  -0.07943   0.04254
 Alpha virt. eigenvalues --    0.07111   0.08352   0.08877   0.09433   0.09727
 Alpha virt. eigenvalues --    0.10099   0.10759   0.11380   0.11512   0.11829
 Alpha virt. eigenvalues --    0.12184   0.12553   0.12868   0.13630   0.13960

  Beta  occ. eigenvalues --  -88.70862 -18.91229 -10.07901 -10.06287 -10.06261
  Beta  occ. eigenvalues --  -10.06025 -10.05912 -10.05466 -10.05464 -10.05177
  Beta  occ. eigenvalues --  -10.03774 -10.02857 -10.02463 -10.02392 -10.01378
  Beta  occ. eigenvalues --  -10.00962  -7.79485  -5.75856  -5.75514  -5.74864
  Beta  occ. eigenvalues --   -0.85001  -0.72969  -0.68765  -0.68274  -0.64000
  Beta  occ. eigenvalues --   -0.62552  -0.60434  -0.58259  -0.54310  -0.51215
  Beta  occ. eigenvalues --   -0.48918  -0.46770  -0.45407  -0.43167  -0.38665
  Beta  occ. eigenvalues --   -0.36543  -0.35175  -0.34755  -0.33880  -0.31866
  Beta  occ. eigenvalues --   -0.31811  -0.30443  -0.30105  -0.28680  -0.27774
  Beta  occ. eigenvalues --   -0.27547  -0.26807  -0.26060  -0.25519  -0.25144
  Beta  occ. eigenvalues --   -0.24175  -0.23222  -0.22846  -0.22056  -0.20910
  Beta  occ. eigenvalues --   -0.19230  -0.18815  -0.18643  -0.16730  -0.10829
  Beta  occ. eigenvalues --   -0.10017  -0.08630  -0.07496
  Beta virt. eigenvalues --    0.07029   0.08286   0.08787   0.09222   0.09652
  Beta virt. eigenvalues --    0.10039   0.10398   0.10872   0.11447   0.11535
  Beta virt. eigenvalues --    0.11842   0.12149   0.12637   0.13031   0.13561

 Mulliken charges and spin densities:
               1          2
     1  C   -0.546811  -0.016146
     2  C   -0.397828  -0.008654
     3  S   -0.005719   0.017244
     4  C    0.078023   0.006662
     5  C   -0.511500   0.228879
     6  O   -0.373234   0.211641
     7  C    1.314243  -0.018544
     8  C    0.087162   0.184915
     9  C    0.100718  -0.124979
    10  C   -0.029938   0.216898
    11  C   -0.394918  -0.127571
    12  C   -0.250107  -0.031875
    13  C   -0.229884  -0.010195
    14  C   -0.566883  -0.036036
    15  C   -0.657880   0.029421
    16  C   -0.910097   0.169954
    17  H    0.095846   0.006916
    18  H    0.095785  -0.001223
    19  H    0.198478   0.001467
    20  H    0.145020   0.008246
    21  H    0.237888  -0.003181
    22  H    0.218925   0.028589
    23  H    0.167751   0.027557
    24  H    0.178766  -0.013256
    25  H    0.135707  -0.019335
    26  H    0.038974   0.119102
    27  H    0.103612   0.012317
    28  H    0.082542   0.063388
    29  H    0.093068   0.026616
    30  H    0.118945   0.023050
    31  H    0.110653   0.017463
    32  H    0.154418  -0.007950
    33  H    0.126200   0.009899
    34  H   -0.007927   0.008721
 Sum of Mulliken charges =  -1.00000   1.00000

 Dipole moment (field-independent basis, Debye):
    X=             -2.1916    Y=             -0.6571    Z=              1.8465  Tot=              2.9401
 Quadrupole moment (field-independent basis, Debye-Ang):
   XX=           -152.2541   YY=           -124.8370   ZZ=           -114.9689
   XY=             -1.6446   XZ=              0.3895   YZ=              4.6270

 Summary of Natural Population Analysis:

                                       Natural Population
                Natural  -----------------------------------------------
    Atom  No    Charge         Core      Valence    Rydberg      Total
 -----------------------------------------------------------------------
      C    1   -0.29461      0.99966     2.28979    0.00516     3.29461
      C    2   -0.25191      0.99961     2.24383    0.00847     3.25191
      S    3    0.08382      4.99964     2.89471    0.02183     7.91618
      C    4   -0.28311      0.99956     2.27418    0.00937     3.28311
      C    5    0.30434      0.99961     1.67523    0.02082     2.69566
      O    6   -0.25242      0.99988     3.24602    0.00652     4.25242
      C    7   -0.05626      0.99947     2.04450    0.01229     3.05626
      C    8   -0.03427      0.99949     2.02623    0.00855     3.03427
      C    9   -0.04610      0.99948     2.03777    0.00885     3.04610
      C   10    0.03240      0.99947     1.95719    0.01094     2.96760
      C   11   -0.19482      0.99961     2.18784    0.00737     3.19482
      C   12   -0.18588      0.99964     2.17864    0.00760     3.18588
      C   13   -0.18752      0.99964     2.18018    0.00770     3.18752
      C   14   -0.19008      0.99961     2.18345    0.00702     3.19008
      C   15   -0.12294      0.99953     2.11482    0.00859     3.12294
      C   16   -0.06625      0.99954     2.05908    0.00763     3.06625
      H   17    0.09172      0.00000     0.40627    0.00201     0.40828
      H   18    0.09203      0.00000     0.40696    0.00101     0.40797
      H   19    0.11276      0.00000     0.38601    0.00123     0.38724
      H   20    0.09506      0.00000     0.40379    0.00114     0.40494
      H   21    0.10885      0.00000     0.38976    0.00139     0.39115
      H   22    0.10265      0.00000     0.39470    0.00265     0.39735
      H   23    0.10624      0.00000     0.39195    0.00182     0.39376
      H   24    0.10269      0.00000     0.39586    0.00145     0.39731
      H   25    0.09755      0.00000     0.40139    0.00107     0.40245
      H   26    0.09714      0.00000     0.40096    0.00190     0.40286
      H   27    0.09145      0.00000     0.40723    0.00133     0.40855
      H   28    0.09094      0.00000     0.40736    0.00171     0.40906
      H   29    0.09189      0.00000     0.40649    0.00162     0.40811
      H   30    0.09122      0.00000     0.40735    0.00143     0.40878
      H   31    0.09876      0.00000     0.40007    0.00117     0.40124
      H   32    0.09354      0.00000     0.40519    0.00127     0.40646
      H   33    0.08839      0.00000     0.41026    0.00135     0.41161
      H   34    0.09276      0.00000     0.40563    0.00161     0.40724
 =======================================================================
   * Total *   -0.00000     19.99345    42.82068    0.18588    63.00000

 Normal termination of Gaussian 16 at Fri Dec 11 01:05:43 2020.
