 Gaussian 16, Revision A.03,

 -----------------------------------------------------------
 # opt freq B3LYP/6-31G(d) empiricaldispersion=gd3bj scf=xqc
 -----------------------------------------------------------

 ----------------------------
 CID_60886256_JID_91_neutraal
 ----------------------------
 Symbolic Z-matrix:
 Charge =  0 Multiplicity = 1

 SCF Done:  E(RB3LYP) =  -803.955672538     A.U. after   13 cycles
 SCF Done:  E(RB3LYP) =  -803.961189594     A.U. after   11 cycles
 SCF Done:  E(RB3LYP) =  -803.960661608     A.U. after   13 cycles
 SCF Done:  E(RB3LYP) =  -803.961552735     A.U. after   11 cycles
 SCF Done:  E(RB3LYP) =  -803.962304504     A.U. after   11 cycles
 SCF Done:  E(RB3LYP) =  -803.962059988     A.U. after   11 cycles
 SCF Done:  E(RB3LYP) =  -803.962611402     A.U. after   10 cycles
 SCF Done:  E(RB3LYP) =  -803.962715078     A.U. after   10 cycles
 SCF Done:  E(RB3LYP) =  -803.962792031     A.U. after   10 cycles
 SCF Done:  E(RB3LYP) =  -803.962889427     A.U. after   10 cycles
 SCF Done:  E(RB3LYP) =  -803.963017017     A.U. after   10 cycles
 SCF Done:  E(RB3LYP) =  -803.963018728     A.U. after    8 cycles
 SCF Done:  E(RB3LYP) =  -803.963019140     A.U. after    8 cycles
 SCF Done:  E(RB3LYP) =  -803.963019192     A.U. after    7 cycles
 SCF Done:  E(RB3LYP) =  -803.963019233     A.U. after    6 cycles
 Optimization completed.
    -- Stationary point found.
 Normal termination of Gaussian 16 at Tue Dec  8 10:19:23 2020.

 --------------------------------------------------------------------
 #N Geom=AllCheck Guess=TCheck SCRF=Check GenChk RB3LYP/6-31G(d) Freq
 --------------------------------------------------------------------

 Structure from the checkpoint file:  "JID_91.chk"
 ----------------------------
 CID_60886256_JID_91_neutraal
 ----------------------------
 Charge =  0 Multiplicity = 1

 SCF Done:  E(RB3LYP) =  -803.963019233     A.U. after    1 cycles

  Exact polarizability: 116.634  -3.424  94.427   5.318   0.996  86.367
 Approx polarizability: 147.398  -3.477 133.685  10.834   3.026 137.081

                      1                      2                      3
                      A                      A                      A
 Frequencies --     31.2132                69.9069                85.2197
 Red. masses --      3.0563                 3.7599                 2.7842
 Frc consts  --      0.0018                 0.0108                 0.0119
 IR Inten    --      0.3028                 3.9425                 0.2876

                      4                      5                      6
                      A                      A                      A
 Frequencies --    136.0970               145.4231               197.9342
 Red. masses --      3.1456                 1.9360                 3.1900
 Frc consts  --      0.0343                 0.0241                 0.0736
 IR Inten    --      2.3682                 4.9687                 0.4594

                      7                      8                      9
                      A                      A                      A
 Frequencies --    205.4363               251.4442               270.4912
 Red. masses --      3.2413                 1.2895                 2.0243
 Frc consts  --      0.0806                 0.0480                 0.0873
 IR Inten    --      2.9604                97.5071                23.1107

                     10                     11                     12
                      A                      A                      A
 Frequencies --    330.4340               371.1448               384.7012
 Red. masses --      1.2873                 3.2327                 3.4026
 Frc consts  --      0.0828                 0.2624                 0.2967
 IR Inten    --     69.1311                 9.8375                 4.1773

                     13                     14                     15
                      A                      A                      A
 Frequencies --    449.2012               474.9148               541.8512
 Red. masses --      2.9577                 3.4963                 3.9103
 Frc consts  --      0.3516                 0.4646                 0.6764
 IR Inten    --     12.5439                13.1020                 2.5305

                     16                     17                     18
                      A                      A                      A
 Frequencies --    598.8120               662.6970               743.1426
 Red. masses --      2.5775                 4.0936                 2.3785
 Frc consts  --      0.5445                 1.0592                 0.7739
 IR Inten    --      0.4982                 3.7468                10.1403

                     19                     20                     21
                      A                      A                      A
 Frequencies --    800.7094               832.1978               891.4067
 Red. masses --      1.4666                 1.7929                 2.4443
 Frc consts  --      0.5540                 0.7316                 1.1443
 IR Inten    --      2.0489                 3.8559                 5.6337

                     22                     23                     24
                      A                      A                      A
 Frequencies --    908.8760               918.5174               940.0191
 Red. masses --      1.3192                 2.5051                 1.8417
 Frc consts  --      0.6420                 1.2452                 0.9589
 IR Inten    --     77.0930                 1.6059                22.7165

                     25                     26                     27
                      A                      A                      A
 Frequencies --    942.8621               988.7076              1026.3899
 Red. masses --      1.8553                 1.7791                 2.1485
 Frc consts  --      0.9718                 1.0247                 1.3336
 IR Inten    --     13.0387                 2.9986                 2.7271

                     28                     29                     30
                      A                      A                      A
 Frequencies --   1048.3328              1068.1209              1106.4956
 Red. masses --      1.8031                 3.3916                 2.9977
 Frc consts  --      1.1675                 2.2798                 2.1624
 IR Inten    --     25.9065                22.6755                 2.6176

                     31                     32                     33
                      A                      A                      A
 Frequencies --   1124.7173              1137.9156              1163.4606
 Red. masses --      1.8739                 1.9785                 1.5855
 Frc consts  --      1.3966                 1.5094                 1.2645
 IR Inten    --      5.7230               103.3193                 4.5578

                     34                     35                     36
                      A                      A                      A
 Frequencies --   1170.6821              1199.4082              1228.0898
 Red. masses --      1.2353                 1.3224                 1.2347
 Frc consts  --      0.9975                 1.1208                 1.0971
 IR Inten    --      0.1167                11.9075                 3.7591

                     37                     38                     39
                      A                      A                      A
 Frequencies --   1254.5951              1265.8003              1302.7721
 Red. masses --      1.3295                 1.2710                 1.1865
 Frc consts  --      1.2330                 1.1998                 1.1865
 IR Inten    --      6.1557                 1.3658                 0.9829

                     40                     41                     42
                      A                      A                      A
 Frequencies --   1318.6496              1330.2181              1343.5859
 Red. masses --      1.3504                 1.3374                 1.3221
 Frc consts  --      1.3834                 1.3943                 1.4061
 IR Inten    --     20.9842                 6.5848                 2.6641

                     43                     44                     45
                      A                      A                      A
 Frequencies --   1350.0024              1359.9928              1380.0818
 Red. masses --      1.2390                 1.1624                 1.3414
 Frc consts  --      1.3304                 1.2667                 1.5053
 IR Inten    --      1.3866                 2.2919                 2.5101

                     46                     47                     48
                      A                      A                      A
 Frequencies --   1382.5540              1442.8726              1449.8921
 Red. masses --      1.4419                 1.4082                 1.2472
 Frc consts  --      1.6239                 1.7273                 1.5447
 IR Inten    --      7.5513                 4.8815                66.7560

                     49                     50                     51
                      A                      A                      A
 Frequencies --   1487.1881              1519.6164              1529.8074
 Red. masses --      1.0984                 1.0811                 1.0892
 Frc consts  --      1.4313                 1.4708                 1.5018
 IR Inten    --      5.4966                 2.8809                 1.6934

                     52                     53                     54
                      A                      A                      A
 Frequencies --   1537.6029              1551.4878              1686.5336
 Red. masses --      1.0866                 1.0928                 1.0873
 Frc consts  --      1.5136                 1.5499                 1.8222
 IR Inten    --      0.6473                 5.5586                52.3004

                     55                     56                     57
                      A                      A                      A
 Frequencies --   2968.4650              3019.3057              3029.3458
 Red. masses --      1.0726                 1.0827                 1.0718
 Frc consts  --      5.5685                 5.8152                 5.7954
 IR Inten    --     80.2595                 4.8533                36.1827

                     58                     59                     60
                      A                      A                      A
 Frequencies --   3058.6965              3066.3479              3072.6029
 Red. masses --      1.0874                 1.0635                 1.0831
 Frc consts  --      5.9937                 5.8916                 6.0248
 IR Inten    --     32.5489                29.0845                28.0859

                     61                     62                     63
                      A                      A                      A
 Frequencies --   3080.5348              3087.0804              3104.5006
 Red. masses --      1.0643                 1.0616                 1.0990
 Frc consts  --      5.9508                 5.9608                 6.2406
 IR Inten    --     20.5556                30.2044                23.6519

                     64                     65                     66
                      A                      A                      A
 Frequencies --   3115.3355              3129.5201              3140.2992
 Red. masses --      1.0983                 1.1053                 1.1062
 Frc consts  --      6.2800                 6.3783                 6.4273
 IR Inten    --     27.7647                32.5963                13.2591

                     67                     68                     69
                      A                      A                      A
 Frequencies --   3462.1681              3547.4785              3724.3367
 Red. masses --      1.0502                 1.0916                 1.0657
 Frc consts  --      7.4169                 8.0942                 8.7090
 IR Inten    --      2.5929                 0.1161                 8.1622

 - Thermochemistry -
 -------------------
 Temperature   298.150 Kelvin.  Pressure   1.00000 Atm.
 Atom     1 has atomic number  6 and mass  12.00000

 Molecular mass:   161.08744 amu.
 Principal axes and moments of inertia in atomic units:
                           1         2         3
     Eigenvalues --  1051.065082460.325563028.04432
           X            0.99989  -0.01017   0.01054
           Y            0.01037   0.99977  -0.01893
           Z           -0.01034   0.01904   0.99977
 This molecule is an asymmetric top.
 Rotational symmetry number  1.
 Warning -- assumption of classical behavior for rotation
           may cause significant error
 Rotational temperatures (Kelvin)      0.08241     0.03520     0.02860
 Rotational constants (GHZ):           1.71706     0.73354     0.59601
 Zero-point vibrational energy     583456.1 (Joules/Mol)
                                  139.44936 (Kcal/Mol)
 Warning -- explicit consideration of  16 degrees of freedom as
           vibrations may cause significant error
 Vibrational temperatures:     44.91   100.58   122.61   195.81   209.23
          (Kelvin)            284.78   295.58   361.77   389.18   475.42
                              533.99   553.50   646.30   683.30   779.60
                              861.56   953.47  1069.22  1152.04  1197.35
                             1282.54  1307.67  1321.54  1352.48  1356.57
                             1422.53  1476.75  1508.32  1536.79  1592.00
                             1618.22  1637.21  1673.96  1684.35  1725.68
                             1766.95  1805.08  1821.20  1874.40  1897.24
                             1913.89  1933.12  1942.35  1956.73  1985.63
                             1989.19  2075.97  2086.07  2139.73  2186.39
                             2201.05  2212.27  2232.24  2426.55  4270.96
                             4344.11  4358.55  4400.78  4411.79  4420.79
                             4432.20  4441.62  4466.68  4482.27  4502.68
                             4518.19  4981.29  5104.03  5358.49

 Zero-point correction=                           0.222227 (Hartree/Particle)
 Thermal correction to Energy=                    0.233810
 Thermal correction to Enthalpy=                  0.234754
 Thermal correction to Gibbs Free Energy=         0.183946
 Sum of electronic and zero-point Energies=           -803.740793
 Sum of electronic and thermal Energies=              -803.729210
 Sum of electronic and thermal Enthalpies=            -803.728266
 Sum of electronic and thermal Free Energies=         -803.779073

                     E (Thermal)             CV                S
                      KCal/Mol        Cal/Mol-Kelvin    Cal/Mol-Kelvin
 Total                  146.718             42.564            106.934
 Electronic               0.000              0.000              0.000
 Translational            0.889              2.981             41.139
 Rotational               0.889              2.981             30.438
 Vibrational            144.940             36.602             35.356
 Vibration     1          0.594              1.983              5.751
 Vibration     2          0.598              1.968              4.156
 Vibration     3          0.601              1.959              3.767
 Vibration     4          0.614              1.917              2.858
 Vibration     5          0.617              1.908              2.731
 Vibration     6          0.637              1.843              2.152
 Vibration     7          0.640              1.832              2.084
 Vibration     8          0.663              1.760              1.720
 Vibration     9          0.674              1.728              1.593
 Vibration    10          0.713              1.615              1.258
 Vibration    11          0.743              1.531              1.075
 Vibration    12          0.754              1.503              1.021
 Vibration    13          0.808              1.363              0.798
 Vibration    14          0.832              1.306              0.724
 Vibration    15          0.897              1.158              0.561
 Vibration    16          0.957              1.034              0.452

                           ! Non-Optimized Parameters !
 Normal termination of Gaussian 16 at Tue Dec  8 10:23:53 2020.

 ----------------------------------------------------------------------
 # B3LYP/6-311++G(d,p) empiricaldispersion=gd3bj scf=xqc pop=npa geom=c
 heck
 ----------------------------------------------------------------------

 ------------------------------------
 CID_60886256_JID_91_Energie_neutraal
 ------------------------------------
 Structure from the checkpoint file:  "JID_91.chk"
 Charge =  0 Multiplicity = 1

 SCF Done:  E(RB3LYP) =  -804.122930851     A.U. after   13 cycles
 Normal termination of Gaussian 16 at Tue Dec  8 10:25:31 2020.

 ----------------------------------------------------------------------
 # B3LYP/6-311++G(d,p) empiricaldispersion=gd3bj scf=xqc pop=npa geom=c
 heck
 ----------------------------------------------------------------------

 ----------------------------------
 CID_60886256_JID_91_Energie_kation
 ----------------------------------
 Structure from the checkpoint file:  "JID_91.chk"
 Charge =  1 Multiplicity = 2

 SCF Done:  E(UB3LYP) =  -803.825708262     A.U. after   18 cycles
 Normal termination of Gaussian 16 at Tue Dec  8 10:28:25 2020.
 Gaussian 16:  ES64L-G16RevA.03 25-Dec-2016

 ----------------------------------------------------------------------
 # B3LYP/6-311++G(d,p) empiricaldispersion=gd3bj scf=xqc pop=npa geom=c
 heck
 ----------------------------------------------------------------------

 ---------------------------------
 CID_60886256_JID_91_Energie_anion
 ---------------------------------
 Structure from the checkpoint file:  "JID_91.chk"
 Charge = -1 Multiplicity = 2

                         Standard orientation:
 ---------------------------------------------------------------------
 Center     Atomic      Atomic             Coordinates (Angstroms)
 Number     Number       Type             X           Y           Z
 ---------------------------------------------------------------------
      1          6           0       -1.841093    1.900105    0.180951
      2          6           0       -2.696394    0.635459    0.398704
      3          6           0       -1.668185   -0.504640    0.448402
      4          6           0       -0.701304   -0.112547   -0.687003
      5          6           0       -0.561851    1.421398   -0.572454
      6         16           0        0.847047   -1.085739   -0.812374
      7          6           0        1.677227   -0.730699    0.796349
      8          6           0        3.030083   -0.044208    0.618597
      9          7           0        2.859814    1.285706    0.030854
     10          8           0       -2.198267   -1.810407    0.373434
     11          1           0       -2.385012    2.672724   -0.370254
     12          1           0       -1.563795    2.337048    1.146395
     13          1           0       -3.362758    0.465058   -0.459373
     14          1           0       -3.321977    0.674003    1.295301
     15          1           0       -1.139580   -0.469684    1.408281
     16          1           0       -1.204420   -0.360983   -1.632947
     17          1           0       -0.467226    1.871344   -1.565317
     18          1           0        0.343577    1.687365   -0.020436
     19          1           0        1.020681   -0.091322    1.391912
     20          1           0        1.798629   -1.680401    1.324976
     21          1           0        3.481470    0.077209    1.611957
     22          1           0        3.697618   -0.710119    0.043830
     23          1           0        3.765710    1.743895   -0.052154
     24          1           0        2.506120    1.169765   -0.918814
     25          1           0       -2.585249   -1.919964   -0.510096
 ---------------------------------------------------------------------

 SCF Done:  E(UB3LYP) =  -804.105022632     A.U. after   33 cycles
 SCF Done:  E(UB3LYP) =  -804.105022632     a.u. after    1 cycles

 The electronic state is 2-A.
 Alpha  occ. eigenvalues --  -88.73059 -19.02101 -14.19048 -10.12133 -10.09717
 Alpha  occ. eigenvalues --  -10.09271 -10.09188 -10.07060 -10.06565 -10.06508
 Alpha  occ. eigenvalues --   -7.81671  -5.78072  -5.77692  -5.77047  -0.92607
 Alpha  occ. eigenvalues --   -0.78471  -0.74114  -0.67923  -0.62464  -0.60253
 Alpha  occ. eigenvalues --   -0.55753  -0.50520  -0.48279  -0.45888  -0.40452
 Alpha  occ. eigenvalues --   -0.39335  -0.38686  -0.36276  -0.34034  -0.32754
 Alpha  occ. eigenvalues --   -0.32186  -0.30512  -0.29200  -0.27968  -0.27183
 Alpha  occ. eigenvalues --   -0.26445  -0.24659  -0.24148  -0.22408  -0.22017
 Alpha  occ. eigenvalues --   -0.20023  -0.17071  -0.14608  -0.11851   0.04892
 Alpha virt. eigenvalues --    0.05970   0.07893   0.08046   0.09048   0.09551
 Alpha virt. eigenvalues --    0.09956   0.11137   0.11356   0.11703   0.12534
 Alpha virt. eigenvalues --    0.13111   0.13429   0.14308   0.15030   0.15942

  Beta  occ. eigenvalues --  -88.73056 -19.02070 -14.19024 -10.12136 -10.09683
  Beta  occ. eigenvalues --  -10.09261 -10.09150 -10.07050 -10.06561 -10.06476
  Beta  occ. eigenvalues --   -7.81669  -5.78066  -5.77690  -5.77042  -0.92548
  Beta  occ. eigenvalues --   -0.78425  -0.74078  -0.67885  -0.62409  -0.60220
  Beta  occ. eigenvalues --   -0.55699  -0.50440  -0.48222  -0.45844  -0.40374
  Beta  occ. eigenvalues --   -0.39277  -0.38644  -0.36235  -0.34013  -0.32702
  Beta  occ. eigenvalues --   -0.32133  -0.30469  -0.29167  -0.27925  -0.27152
  Beta  occ. eigenvalues --   -0.26398  -0.24631  -0.24112  -0.22362  -0.21979
  Beta  occ. eigenvalues --   -0.19985  -0.17037  -0.14574  -0.11828
  Beta virt. eigenvalues --    0.07246   0.07664   0.08240   0.08612   0.09627
  Beta virt. eigenvalues --    0.10108   0.10556   0.11434   0.11613   0.12114
  Beta virt. eigenvalues --    0.13005   0.13290   0.13562   0.14384   0.15168

 Mulliken charges and spin densities:
               1          2
     1  C    0.002534  -0.454349
     2  C    0.352341  -0.604808
     3  C   -0.278085  -0.339101
     4  C    0.486022  -0.144643
     5  C   -0.504519  -0.011775
     6  S    0.056690  -0.032361
     7  C   -0.972967   0.743797
     8  C    1.869179  -2.368614
     9  N   -0.555074   0.175257
    10  O   -0.182360   0.007880
    11  H   -0.155904   0.313653
    12  H    0.169931  -0.046773
    13  H   -0.443025   0.616351
    14  H   -0.003383   0.144099
    15  H    0.208930  -0.010959
    16  H   -0.533372   0.809415
    17  H    0.096864   0.035476
    18  H    0.195018  -0.003849
    19  H    0.188805  -0.071128
    20  H   -0.039074   0.269570
    21  H   -0.800664   0.956550
    22  H   -0.316564   0.452003
    23  H   -0.113101   0.376712
    24  H    0.219093  -0.011392
    25  H    0.052685   0.198991
 Sum of Mulliken charges =  -1.00000   1.00000

 Dipole moment (field-independent basis, Debye):
    X=             -1.6386    Y=              0.9464    Z=              1.0298  Tot=              2.1543
 Quadrupole moment (field-independent basis, Debye-Ang):
   XX=           -154.4266   YY=           -103.1364   ZZ=           -101.7937
   XY=             -4.1247   XZ=            -19.8629   YZ=              0.0803

 Summary of Natural Population Analysis:

                                       Natural Population
                Natural  -----------------------------------------------
    Atom  No    Charge         Core      Valence    Rydberg      Total
 -----------------------------------------------------------------------
      C    1   -0.19197      0.99964     2.18450    0.00783     3.19197
      C    2   -0.19977      0.99961     2.19076    0.00940     3.19977
      C    3    0.06074      0.99947     1.92515    0.01463     2.93926
      C    4   -0.17946      0.99951     2.16320    0.01675     3.17946
      C    5   -0.20572      0.99960     2.19585    0.01027     3.20572
      S    6    0.08959      4.99959     2.89403    0.01679     7.91041
      C    7   -0.25448      0.99958     2.24426    0.01064     3.25448
      C    8   -0.09277      0.99962     2.08012    0.01303     3.09277
      N    9   -0.42827      0.99977     2.91675    0.01176     3.92827
      O   10   -0.36629      0.99989     3.35980    0.00659     4.36629
      H   11    0.10118      0.00000     0.39785    0.00097     0.39882
      H   12    0.09347      0.00000     0.40563    0.00090     0.40653
      H   13    0.10117      0.00000     0.39438    0.00444     0.39883
      H   14    0.09922      0.00000     0.40003    0.00075     0.40078
      H   15    0.08421      0.00000     0.41437    0.00142     0.41579
      H   16    0.10873      0.00000     0.38872    0.00255     0.39127
      H   17    0.10130      0.00000     0.39789    0.00081     0.39870
      H   18    0.11296      0.00000     0.38591    0.00113     0.38704
      H   19    0.10341      0.00000     0.39511    0.00148     0.39659
      H   20    0.10421      0.00000     0.39480    0.00099     0.39579
      H   21    0.09539      0.00000     0.40076    0.00385     0.40461
      H   22    0.08020      0.00000     0.41766    0.00214     0.41980
      H   23    0.17766      0.00000     0.32012    0.00222     0.32234
      H   24    0.17613      0.00000     0.32187    0.00200     0.32387
      H   25    0.22915      0.00000     0.26743    0.00342     0.27085
 =======================================================================
   * Total *   -0.00000     13.99629    29.85694    0.14677    44.00000

 Normal termination of Gaussian 16 at Tue Dec  8 10:34:37 2020.
