 Gaussian 16, Revision A.03,

 -----------------------------------------------------------
 # opt freq B3LYP/6-31G(d) empiricaldispersion=gd3bj scf=xqc
 -----------------------------------------------------------

 -----------------------------
 CID_150428609_JID_66_neutraal
 -----------------------------
 Symbolic Z-matrix:
 Charge =  0 Multiplicity = 1

 SCF Done:  E(RB3LYP) =  -542.627346017     A.U. after   17 cycles
 SCF Done:  E(RB3LYP) =  -542.635882194     A.U. after   16 cycles
 SCF Done:  E(RB3LYP) =  -542.636179421     A.U. after   14 cycles
 SCF Done:  E(RB3LYP) =  -542.637337337     A.U. after   15 cycles
 SCF Done:  E(RB3LYP) =  -542.637816916     A.U. after   13 cycles
 SCF Done:  E(RB3LYP) =  -542.638021554     A.U. after   13 cycles
 SCF Done:  E(RB3LYP) =  -542.638232603     A.U. after   13 cycles
 SCF Done:  E(RB3LYP) =  -542.638429901     A.U. after   14 cycles
 SCF Done:  E(RB3LYP) =  -542.638675098     A.U. after   14 cycles
 SCF Done:  E(RB3LYP) =  -542.638941127     A.U. after   13 cycles
 SCF Done:  E(RB3LYP) =  -542.639316332     A.U. after    9 cycles
 SCF Done:  E(RB3LYP) =  -542.639316438     A.U. after    9 cycles
 SCF Done:  E(RB3LYP) =  -542.639316509     A.U. after    8 cycles
 SCF Done:  E(RB3LYP) =  -542.639316563     A.U. after    8 cycles
 SCF Done:  E(RB3LYP) =  -542.639316594     A.U. after    8 cycles
 SCF Done:  E(RB3LYP) =  -542.639316615     A.U. after    8 cycles
 Optimization completed.
    -- Stationary point found.
 Normal termination of Gaussian 16 at Tue Dec  8 10:18:33 2020.

 --------------------------------------------------------------------
 #N Geom=AllCheck Guess=TCheck SCRF=Check GenChk RB3LYP/6-31G(d) Freq
 --------------------------------------------------------------------

 Structure from the checkpoint file:  "JID_66.chk"
 -----------------------------
 CID_150428609_JID_66_neutraal
 -----------------------------
 Charge =  0 Multiplicity = 1

 SCF Done:  E(RB3LYP) =  -542.639316615     A.U. after    1 cycles

  Exact polarizability:  98.372   5.832  68.917  -2.646  -5.037  51.686
 Approx polarizability: 172.261  10.311  96.906  -5.644 -11.019  79.330

                      1                      2                      3
                      A                      A                      A
 Frequencies --     24.7435                60.9744                99.0094
 Red. masses --      4.7190                 8.6911                 4.9507
 Frc consts  --      0.0017                 0.0190                 0.0286
 IR Inten    --      0.6456                 1.4977                 3.5445

                      4                      5                      6
                      A                      A                      A
 Frequencies --    109.3607               184.8941               203.6242
 Red. masses --      2.8429                 6.6598                 1.2612
 Frc consts  --      0.0200                 0.1341                 0.0308
 IR Inten    --      3.3508                 3.6804                 1.6965

                      7                      8                      9
                      A                      A                      A
 Frequencies --    244.7244               280.3154               330.8137
 Red. masses --      6.7721                 3.2853                 5.6950
 Frc consts  --      0.2390                 0.1521                 0.3672
 IR Inten    --      5.2261                 6.7851                 7.3445

                     10                     11                     12
                      A                      A                      A
 Frequencies --    348.8594               374.4876               417.0937
 Red. masses --      3.1533                 2.1435                 1.9957
 Frc consts  --      0.2261                 0.1771                 0.2046
 IR Inten    --      4.3613                53.7743                32.7730

                     13                     14                     15
                      A                      A                      A
 Frequencies --    491.6704               504.5480               553.1948
 Red. masses --      3.4958                12.0455                 4.8877
 Frc consts  --      0.4979                 1.8067                 0.8813
 IR Inten    --     38.4923                18.1650                 9.1197

                     16                     17                     18
                      A                      A                      A
 Frequencies --    639.5984               718.6495               802.8127
 Red. masses --      9.9615                 2.1650                 2.3356
 Frc consts  --      2.4010                 0.6588                 0.8869
 IR Inten    --      7.7184                24.4646               300.0001

                     19                     20                     21
                      A                      A                      A
 Frequencies --    902.9691               995.4057              1009.0186
 Red. masses --      7.0882                 1.6281                 1.5782
 Frc consts  --      3.4051                 0.9505                 0.9467
 IR Inten    --     56.5891                 9.5290                 1.6567

                     22                     23                     24
                      A                      A                      A
 Frequencies --   1101.4389              1133.2833              1156.7871
 Red. masses --      6.5473                 4.6863                 3.3600
 Frc consts  --      4.6798                 3.5462                 2.6491
 IR Inten    --     11.5897               120.3986               116.2781

                     25                     26                     27
                      A                      A                      A
 Frequencies --   1173.3169              1182.9941              1259.0373
 Red. masses --      1.4370                 1.7663                 2.7307
 Frc consts  --      1.1656                 1.4564                 2.5503
 IR Inten    --     24.0453                32.2072                32.3004

                     28                     29                     30
                      A                      A                      A
 Frequencies --   1285.7217              1357.2476              1390.0751
 Red. masses --      4.9973                 1.6314                 1.3040
 Frc consts  --      4.8673                 1.7707                 1.4846
 IR Inten    --     41.1137               250.1395                 2.6863

                     31                     32                     33
                      A                      A                      A
 Frequencies --   1410.0595              1456.7723              1488.0732
 Red. masses --      1.3043                 1.5046                 1.1623
 Frc consts  --      1.5280                 1.8813                 1.5164
 IR Inten    --     24.2115                23.1085                 2.8002

                     34                     35                     36
                      A                      A                      A
 Frequencies --   1518.8039              1525.4062              1550.6548
 Red. masses --      1.1519                 1.1187                 1.0751
 Frc consts  --      1.5656                 1.5337                 1.5230
 IR Inten    --     39.7900                 9.6002                39.0983

                     37                     38                     39
                      A                      A                      A
 Frequencies --   1781.7359              2244.8850              3041.6975
 Red. masses --      8.7490                13.9435                 1.0398
 Frc consts  --     16.3643                41.4009                 5.6680
 IR Inten    --    239.7846               399.9356                32.6668

                     40                     41                     42
                      A                      A                      A
 Frequencies --   3056.4061              3077.2078              3109.8921
 Red. masses --      1.0851                 1.0893                 1.0979
 Frc consts  --      5.9723                 6.0772                 6.2563
 IR Inten    --     35.8106                32.2262                31.9121

                     43                     44                     45
                      A                      A                      A
 Frequencies --   3137.6898              3498.5665              3736.6055
 Red. masses --      1.1041                 1.0738                 1.0648
 Frc consts  --      6.4044                 7.7435                 8.7597
 IR Inten    --     26.4741                 1.3830                45.3034

 - Thermochemistry -
 -------------------
 Temperature   298.150 Kelvin.  Pressure   1.00000 Atm.
 Atom     1 has atomic number  6 and mass  12.00000

 Molecular mass:   145.05997 amu.
 Principal axes and moments of inertia in atomic units:
                           1         2         3
     Eigenvalues --   893.268041917.745932348.24562
           X            0.99938  -0.03442  -0.00800
           Y            0.03463   0.99901   0.02803
           Z            0.00703  -0.02829   0.99958
 This molecule is an asymmetric top.
 Rotational symmetry number  1.
 Warning -- assumption of classical behavior for rotation
           may cause significant error
 Rotational temperatures (Kelvin)      0.09696     0.04516     0.03688
 Rotational constants (GHZ):           2.02038     0.94107     0.76855
 Zero-point vibrational energy     334781.7 (Joules/Mol)
                                   80.01474 (Kcal/Mol)
 Warning -- explicit consideration of  15 degrees of freedom as
           vibrations may cause significant error
 Vibrational temperatures:     35.60    87.73   142.45   157.35   266.02
          (Kelvin)            292.97   352.10   403.31   475.97   501.93
                              538.80   600.10   707.40   725.93   795.92
                              920.24  1033.98  1155.07  1299.17  1432.17
                             1451.75  1584.72  1630.54  1664.36  1688.14
                             1702.06  1811.47  1849.87  1952.78  2000.01
                             2028.76  2095.97  2141.01  2185.22  2194.72
                             2231.05  2563.52  3229.89  4376.32  4397.49
                             4427.42  4474.44  4514.44  5033.66  5376.14

 Zero-point correction=                           0.127512 (Hartree/Particle)
 Thermal correction to Energy=                    0.138217
 Thermal correction to Enthalpy=                  0.139161
 Thermal correction to Gibbs Free Energy=         0.089954
 Sum of electronic and zero-point Energies=           -542.511805
 Sum of electronic and thermal Energies=              -542.501100
 Sum of electronic and thermal Enthalpies=            -542.500156
 Sum of electronic and thermal Free Energies=         -542.549362

                     E (Thermal)             CV                S
                      KCal/Mol        Cal/Mol-Kelvin    Cal/Mol-Kelvin
 Total                   86.732             36.676            103.564
 Electronic               0.000              0.000              0.000
 Translational            0.889              2.981             40.827
 Rotational               0.889              2.981             29.777
 Vibrational             84.955             30.714             32.960
 Vibration     1          0.593              1.985              6.212
 Vibration     2          0.597              1.973              4.425
 Vibration     3          0.604              1.950              3.474
 Vibration     4          0.606              1.942              3.280
 Vibration     5          0.631              1.860              2.278
 Vibration     6          0.639              1.835              2.100
 Vibration     7          0.660              1.772              1.768
 Vibration     8          0.680              1.710              1.532
 Vibration     9          0.713              1.614              1.256
 Vibration    10          0.726              1.578              1.171
 Vibration    11          0.746              1.524              1.061
 Vibration    12          0.780              1.433              0.902
 Vibration    13          0.847              1.269              0.679
 Vibration    14          0.860              1.240              0.647
 Vibration    15          0.909              1.133              0.538

 Optimization completed.
    -- Stationary point found.
 Normal termination of Gaussian 16 at Tue Dec  8 10:21:05 2020.

 ----------------------------------------------------------------------
 # B3LYP/6-311++G(d,p) empiricaldispersion=gd3bj scf=xqc pop=npa geom=c
 heck
 ----------------------------------------------------------------------

 -------------------------------------
 CID_150428609_JID_66_Energie_neutraal
 -------------------------------------
 Structure from the checkpoint file:  "JID_66.chk"
 Charge =  0 Multiplicity = 1

 SCF Done:  E(RB3LYP) =  -542.812132855     A.U. after   16 cycles
 Normal termination of Gaussian 16 at Tue Dec  8 10:21:59 2020.

 ----------------------------------------------------------------------
 # B3LYP/6-311++G(d,p) empiricaldispersion=gd3bj scf=xqc pop=npa geom=c
 heck
 ----------------------------------------------------------------------

 -----------------------------------
 CID_150428609_JID_66_Energie_kation
 -----------------------------------
 Structure from the checkpoint file:  "JID_66.chk"
 Charge =  1 Multiplicity = 2

 SCF Done:  E(UB3LYP) =  -542.489945992     A.U. after   24 cycles
 Normal termination of Gaussian 16 at Tue Dec  8 10:23:41 2020.
 Gaussian 16:  ES64L-G16RevA.03 25-Dec-2016

 ----------------------------------------------------------------------
 # B3LYP/6-311++G(d,p) empiricaldispersion=gd3bj scf=xqc pop=npa geom=c
 heck
 ----------------------------------------------------------------------

 ----------------------------------
 CID_150428609_JID_66_Energie_anion
 ----------------------------------
 Structure from the checkpoint file:  "JID_66.chk"
 Charge = -1 Multiplicity = 2

                         Standard orientation:
 ---------------------------------------------------------------------
 Center     Atomic      Atomic             Coordinates (Angstroms)
 Number     Number       Type             X           Y           Z
 ---------------------------------------------------------------------
      1          6           0       -2.159697    1.719773    0.637839
      2          7           0       -2.187516    0.280237    0.364283
      3          6           0       -1.247512   -0.213255   -0.604986
      4          7           0        0.159114   -0.330181   -0.167245
      5          6           0        0.671042   -1.379723    0.562762
      6          8           0        1.759055   -1.350782    1.109137
      7          7           0        0.805961    0.927885   -0.128362
      8          7           0        2.034432    0.862371   -0.376141
      9          7           0        3.146154    1.027757   -0.552417
     10          8           0       -1.615589   -1.512339   -0.988777
     11          1           0       -2.277706    2.261953   -0.305626
     12          1           0       -1.235780    2.067226    1.117963
     13          1           0       -3.010981    1.969386    1.277519
     14          1           0       -2.096200   -0.254244    1.226883
     15          1           0       -1.232258    0.492657   -1.445276
     16          1           0        0.000770   -2.250356    0.545820
     17          1           0       -2.585586   -1.518902   -0.934679
 ---------------------------------------------------------------------

 SCF Done:  E(UB3LYP) =  -542.813105179     A.U. after   31 cycles

 The electronic state is 2-A.
 Alpha  occ. eigenvalues --  -19.03188 -18.97605 -14.29732 -14.25024 -14.23502
 Alpha  occ. eigenvalues --  -14.21306 -14.20670 -10.18252 -10.14844 -10.08066
 Alpha  occ. eigenvalues --   -0.98833  -0.95706  -0.92206  -0.86593  -0.80289
 Alpha  occ. eigenvalues --   -0.74904  -0.59423  -0.55933  -0.52992  -0.44812
 Alpha  occ. eigenvalues --   -0.41690  -0.39088  -0.38235  -0.35892  -0.34334
 Alpha  occ. eigenvalues --   -0.33704  -0.31997  -0.30655  -0.29522  -0.28678
 Alpha  occ. eigenvalues --   -0.27907  -0.26472  -0.21437  -0.20580  -0.17243
 Alpha  occ. eigenvalues --   -0.14916  -0.13421  -0.09190   0.04790
 Alpha virt. eigenvalues --    0.06973   0.08093   0.09096   0.10747   0.11702
 Alpha virt. eigenvalues --    0.12221   0.13082   0.13209   0.15202   0.16269
 Alpha virt. eigenvalues --    0.16594   0.17908   0.18395   0.18634   0.19568

  Beta  occ. eigenvalues --  -19.03166 -18.97597 -14.29305 -14.24897 -14.23548
  Beta  occ. eigenvalues --  -14.20698 -14.20652 -10.18235 -10.14842 -10.08022
  Beta  occ. eigenvalues --   -0.98161  -0.95552  -0.92090  -0.86296  -0.80207
  Beta  occ. eigenvalues --   -0.74555  -0.59349  -0.55777  -0.52668  -0.44751
  Beta  occ. eigenvalues --   -0.41507  -0.38874  -0.38074  -0.35137  -0.33879
  Beta  occ. eigenvalues --   -0.32849  -0.31880  -0.30352  -0.28875  -0.28110
  Beta  occ. eigenvalues --   -0.27640  -0.26380  -0.20704  -0.20515  -0.16872
  Beta  occ. eigenvalues --   -0.14798  -0.13233  -0.08998
  Beta virt. eigenvalues --    0.07625   0.08846   0.09447   0.11067   0.11670
  Beta virt. eigenvalues --    0.11799   0.12576   0.13382   0.13593   0.15467
  Beta virt. eigenvalues --    0.16325   0.16783   0.17849   0.18392   0.18831

 Mulliken charges and spin densities:
               1          2
     1  C    0.638044  -1.071269
     2  N   -0.428802   0.278911
     3  C    0.499684  -0.941946
     4  N    0.123163   0.045775
     5  C   -0.017126   0.051593
     6  O   -0.369473  -0.005030
     7  N   -0.728763   0.278296
     8  N    0.663265  -0.012832
     9  N   -0.321383   0.255981
    10  O   -0.304210   0.018890
    11  H   -0.152834   0.304281
    12  H   -0.056709   0.215259
    13  H   -0.586514   0.729397
    14  H    0.020987   0.235745
    15  H   -0.026620   0.259225
    16  H    0.135309  -0.012625
    17  H   -0.088019   0.370350
 Sum of Mulliken charges =  -1.00000   1.00000

 Dipole moment (field-independent basis, Debye):
    X=             -1.4432    Y=             -1.6873    Z=             -0.5142  Tot=              2.2791
 Quadrupole moment (field-independent basis, Debye-Ang):
   XX=           -114.9316   YY=            -82.0587   ZZ=            -76.5265
   XY=              2.4931   XZ=              0.6531   YZ=             -1.6663

 Summary of Natural Population Analysis:

                                       Natural Population
                Natural  -----------------------------------------------
    Atom  No    Charge         Core      Valence    Rydberg      Total
 -----------------------------------------------------------------------
      C    1   -0.18019      0.99965     2.17195    0.00860     3.18019
      N    2   -0.35036      0.99973     2.83770    0.01292     3.85036
      C    3    0.24570      0.99961     1.73448    0.02021     2.75430
      N    4   -0.16949      0.99965     2.65681    0.01303     3.66949
      C    5    0.25285      0.99970     1.72523    0.02222     2.74715
      O    6   -0.31405      0.99989     3.30740    0.00676     4.31405
      N    7   -0.15229      0.99971     2.63639    0.01619     3.65229
      N    8    0.14501      0.99971     2.33976    0.01552     3.35499
      N    9    0.04806      0.99981     2.43919    0.01293     3.45194
      O   10   -0.37075      0.99989     3.36389    0.00697     4.37075
      H   11    0.09389      0.00000     0.40461    0.00150     0.40611
      H   12    0.09444      0.00000     0.40376    0.00180     0.40556
      H   13    0.09433      0.00000     0.40362    0.00205     0.40567
      H   14    0.17648      0.00000     0.32098    0.00254     0.32352
      H   15    0.08396      0.00000     0.41414    0.00190     0.41604
      H   16    0.06474      0.00000     0.43344    0.00182     0.43526
      H   17    0.23768      0.00000     0.25677    0.00555     0.26232
 =======================================================================
   * Total *    0.00000      9.99735    27.85014    0.15252    38.00000

 Normal termination of Gaussian 16 at Tue Dec  8 10:25:50 2020.
