 Gaussian 16, Revision A.03,

 -----------------------------------------------------------
 # opt freq B3LYP/6-31G(d) empiricaldispersion=gd3bj scf=xqc
 -----------------------------------------------------------

 -------------------------------
 CID_123636601_JID_3483_neutraal
 -------------------------------
 Symbolic Z-matrix:
 Charge =  0 Multiplicity = 1

 SCF Done:  E(RB3LYP) =  -631.216693063     A.U. after   15 cycles
 SCF Done:  E(RB3LYP) =  -631.221556611     A.U. after   14 cycles
 SCF Done:  E(RB3LYP) =  -631.222017484     A.U. after   14 cycles
 SCF Done:  E(RB3LYP) =  -631.222439492     A.U. after   13 cycles
 SCF Done:  E(RB3LYP) =  -631.222412818     A.U. after   13 cycles
 SCF Done:  E(RB3LYP) =  -631.223226320     A.U. after   13 cycles
 SCF Done:  E(RB3LYP) =  -631.223479774     A.U. after   13 cycles
 SCF Done:  E(RB3LYP) =  -631.223530466     A.U. after   12 cycles
 SCF Done:  E(RB3LYP) =  -631.223554960     A.U. after   11 cycles
 SCF Done:  E(RB3LYP) =  -631.223558067     A.U. after   10 cycles
 SCF Done:  E(RB3LYP) =  -631.223560564     A.U. after    9 cycles
 SCF Done:  E(RB3LYP) =  -631.223561182     A.U. after    8 cycles
 SCF Done:  E(RB3LYP) =  -631.223561381     A.U. after    8 cycles
 SCF Done:  E(RB3LYP) =  -631.223561456     A.U. after    7 cycles
 SCF Done:  E(RB3LYP) =  -631.223561511     A.U. after    7 cycles
 Optimization completed.
    -- Stationary point found.
 Normal termination of Gaussian 16 at Wed Dec  9 23:25:30 2020.

 --------------------------------------------------------------------
 #N Geom=AllCheck Guess=TCheck SCRF=Check GenChk RB3LYP/6-31G(d) Freq
 --------------------------------------------------------------------

 Structure from the checkpoint file:  "JID_3483.chk"
 -------------------------------
 CID_123636601_JID_3483_neutraal
 -------------------------------
 Charge =  0 Multiplicity = 1

 SCF Done:  E(RB3LYP) =  -631.223561511     A.U. after    1 cycles

  Exact polarizability: 152.698  -4.040 104.459  -6.089  -1.846  77.369
 Approx polarizability: 213.062 -29.154 164.840 -14.313   7.697 121.435

                      1                      2                      3
                      A                      A                      A
 Frequencies --     24.7432                46.5148                57.3724
 Red. masses --      5.7772                 4.7814                 3.9094
 Frc consts  --      0.0021                 0.0061                 0.0076
 IR Inten    --      0.7021                 1.3743                 2.8266

                      4                      5                      6
                      A                      A                      A
 Frequencies --     74.3363                85.4967               124.4873
 Red. masses --      3.4897                 3.8146                 2.3712
 Frc consts  --      0.0114                 0.0164                 0.0217
 IR Inten    --      2.7913                 6.8756                 8.4417

                      7                      8                      9
                      A                      A                      A
 Frequencies --    139.4615               154.5934               159.1512
 Red. masses --      2.0455                 2.0270                 2.1161
 Frc consts  --      0.0234                 0.0285                 0.0316
 IR Inten    --      2.7462                 3.6721                 5.6397

                     10                     11                     12
                      A                      A                      A
 Frequencies --    194.5035               203.3063               229.4242
 Red. masses --      3.4337                 1.8948                 2.4402
 Frc consts  --      0.0765                 0.0461                 0.0757
 IR Inten    --      5.2607                 2.5631                 6.2298

                     13                     14                     15
                      A                      A                      A
 Frequencies --    290.7852               328.2302               376.8379
 Red. masses --      4.0569                 3.1568                 2.2850
 Frc consts  --      0.2021                 0.2004                 0.1912
 IR Inten    --      4.7475                 7.0540                 2.6345

                     16                     17                     18
                      A                      A                      A
 Frequencies --    405.1802               431.3467               477.6317
 Red. masses --      2.2700                 4.2680                 3.6187
 Frc consts  --      0.2196                 0.4679                 0.4864
 IR Inten    --      3.7133                 5.4415                 0.6770

                     19                     20                     21
                      A                      A                      A
 Frequencies --    519.8136               565.5033               607.5514
 Red. masses --      3.0203                 3.5705                 2.3068
 Frc consts  --      0.4808                 0.6727                 0.5017
 IR Inten    --     12.6398                30.7867                 0.8909

                     22                     23                     24
                      A                      A                      A
 Frequencies --    641.0913               714.6346               741.9975
 Red. masses --      4.8414                 4.7110                 3.2829
 Frc consts  --      1.1724                 1.4175                 1.0649
 IR Inten    --      8.6215                 8.0148                 8.7884

                     25                     26                     27
                      A                      A                      A
 Frequencies --    767.3948               871.7144               886.3419
 Red. masses --      2.8633                 2.1047                 1.9854
 Frc consts  --      0.9935                 0.9423                 0.9190
 IR Inten    --      4.5241                11.8708                 6.7121

                     28                     29                     30
                      A                      A                      A
 Frequencies --    946.0344               965.2523              1017.0379
 Red. masses --      2.3380                 1.6300                 1.3336
 Frc consts  --      1.2328                 0.8948                 0.8127
 IR Inten    --      3.1383                 4.6262                28.4480

                     31                     32                     33
                      A                      A                      A
 Frequencies --   1027.1621              1033.3764              1065.6612
 Red. masses --      2.2647                 1.4429                 1.9512
 Frc consts  --      1.4078                 0.9078                 1.3056
 IR Inten    --      9.0541                22.6711                 7.9015

                     34                     35                     36
                      A                      A                      A
 Frequencies --   1087.1085              1131.1616              1159.4828
 Red. masses --      2.0081                 3.3691                 1.3451
 Frc consts  --      1.3982                 2.5399                 1.0654
 IR Inten    --     37.9042               180.7370                 3.3523

                     37                     38                     39
                      A                      A                      A
 Frequencies --   1171.9059              1198.4541              1233.8358
 Red. masses --      1.5510                 2.0062                 2.5272
 Frc consts  --      1.2550                 1.6977                 2.2668
 IR Inten    --      8.7281                48.3315                26.9141

                     40                     41                     42
                      A                      A                      A
 Frequencies --   1262.2588              1280.8865              1316.1171
 Red. masses --      1.2615                 1.4637                 2.2711
 Frc consts  --      1.1842                 1.4149                 2.3178
 IR Inten    --      1.3144                 8.8847               104.5777

                     43                     44                     45
                      A                      A                      A
 Frequencies --   1326.4708              1379.5320              1409.1525
 Red. masses --      1.4350                 1.4606                 1.2596
 Frc consts  --      1.4876                 1.6378                 1.4737
 IR Inten    --      1.7659                32.5416                16.8495

                     46                     47                     48
                      A                      A                      A
 Frequencies --   1413.1123              1433.5747              1458.4710
 Red. masses --      1.3470                 1.2069                 1.9033
 Frc consts  --      1.5848                 1.4613                 2.3853
 IR Inten    --     35.8589                 1.5623               100.7928

                     49                     50                     51
                      A                      A                      A
 Frequencies --   1493.4676              1495.4016              1502.0366
 Red. masses --      1.0536                 1.1950                 1.0574
 Frc consts  --      1.3846                 1.5745                 1.4055
 IR Inten    --      5.6691                19.2386                 7.6108

                     52                     53                     54
                      A                      A                      A
 Frequencies --   1503.2126              1512.3977              1523.5097
 Red. masses --      1.1194                 1.2226                 1.0505
 Frc consts  --      1.4903                 1.6477                 1.4366
 IR Inten    --      0.7988                25.6111                16.1258

                     55                     56                     57
                      A                      A                      A
 Frequencies --   1553.2062              1695.7893              1734.1170
 Red. masses --      1.1925                 6.6109                 9.1891
 Frc consts  --      1.6949                11.2009                16.2809
 IR Inten    --     49.6458                32.4968               205.7776

                     58                     59                     60
                      A                      A                      A
 Frequencies --   1800.3537              1826.4265              2916.1105
 Red. masses --      9.5415                10.3074                 1.0846
 Frc consts  --     18.2215                20.2583                 5.4343
 IR Inten    --    278.0338               157.6367               104.0842

                     61                     62                     63
                      A                      A                      A
 Frequencies --   3041.6844              3045.8034              3054.8903
 Red. masses --      1.0418                 1.0462                 1.0611
 Frc consts  --      5.6788                 5.7182                 5.8347
 IR Inten    --     34.5757                 1.8359                21.1811

                     64                     65                     66
                      A                      A                      A
 Frequencies --   3071.3065              3094.9972              3114.5509
 Red. masses --      1.0679                 1.1015                 1.1012
 Frc consts  --      5.9353                 6.2166                 6.2939
 IR Inten    --     37.8102                25.7274                14.6576

                     67                     68                     69
                      A                      A                      A
 Frequencies --   3118.1827              3154.4079              3177.2753
 Red. masses --      1.0899                 1.0988                 1.1031
 Frc consts  --      6.2437                 6.4415                 6.5610
 IR Inten    --     19.4716                 2.8581                 8.4344

                     70                     71                     72
                      A                      A                      A
 Frequencies --   3182.3576              3186.1684              3202.7167
 Red. masses --      1.0898                 1.0964                 1.0909
 Frc consts  --      6.5025                 6.5578                 6.5931
 IR Inten    --      1.7034                 8.1466                 3.0470

 - Thermochemistry -
 -------------------
 Temperature   298.150 Kelvin.  Pressure   1.00000 Atm.
 Atom     1 has atomic number  6 and mass  12.00000

 Molecular mass:   183.08954 amu.
 Principal axes and moments of inertia in atomic units:
                           1         2         3
     Eigenvalues --   992.234225150.077295562.21724
           X            0.99996   0.00629   0.00558
           Y           -0.00602   0.99889  -0.04674
           Z           -0.00587   0.04671   0.99889
 This molecule is an asymmetric top.
 Rotational symmetry number  1.
 Warning -- assumption of classical behavior for rotation
           may cause significant error
 Rotational temperatures (Kelvin)      0.08729     0.01682     0.01557
 Rotational constants (GHZ):           1.81887     0.35043     0.32446
 Zero-point vibrational energy     558870.6 (Joules/Mol)
                                  133.57327 (Kcal/Mol)
 Warning -- explicit consideration of  21 degrees of freedom as
           vibrations may cause significant error
 Vibrational temperatures:     35.60    66.92    82.55   106.95   123.01
          (Kelvin)            179.11   200.65   222.43   228.98   279.85
                              292.51   330.09   418.38   472.25   542.19
                              582.96   620.61   687.21   747.90   813.63
                              874.13   922.39  1028.20  1067.57  1104.11
                             1254.20  1275.25  1361.13  1388.78  1463.29
                             1477.86  1486.80  1533.25  1564.11  1627.49
                             1668.24  1686.11  1724.31  1775.21  1816.11
                             1842.91  1893.60  1908.50  1984.84  2027.46
                             2033.15  2062.59  2098.41  2148.77  2151.55
                             2161.10  2162.79  2176.00  2191.99  2234.72
                             2439.86  2495.01  2590.31  2627.82  4195.63
                             4376.31  4382.23  4395.31  4418.93  4453.01
                             4481.14  4486.37  4538.49  4571.39  4578.70
                             4584.19  4607.99

 Zero-point correction=                           0.212863 (Hartree/Particle)
 Thermal correction to Energy=                    0.227572
 Thermal correction to Enthalpy=                  0.228516
 Thermal correction to Gibbs Free Energy=         0.169405
 Sum of electronic and zero-point Energies=           -631.010699
 Sum of electronic and thermal Energies=              -630.995990
 Sum of electronic and thermal Enthalpies=            -630.995046
 Sum of electronic and thermal Free Energies=         -631.054156

                     E (Thermal)             CV                S
                      KCal/Mol        Cal/Mol-Kelvin    Cal/Mol-Kelvin
 Total                  142.803             50.849            124.408
 Electronic               0.000              0.000              0.000
 Translational            0.889              2.981             41.521
 Rotational               0.889              2.981             31.719
 Vibrational            141.026             44.888             51.168
 Vibration     1          0.593              1.985              6.212
 Vibration     2          0.595              1.979              4.960
 Vibration     3          0.596              1.975              4.546
 Vibration     4          0.599              1.966              4.035
 Vibration     5          0.601              1.959              3.761
 Vibration     6          0.610              1.929              3.029
 Vibration     7          0.615              1.914              2.811
 Vibration     8          0.620              1.898              2.615
 Vibration     9          0.621              1.892              2.560
 Vibration    10          0.635              1.848              2.184
 Vibration    11          0.639              1.835              2.103
 Vibration    12          0.652              1.796              1.883
 Vibration    13          0.687              1.691              1.469
 Vibration    14          0.711              1.619              1.269
 Vibration    15          0.747              1.519              1.052
 Vibration    16          0.770              1.459              0.944
 Vibration    17          0.792              1.402              0.854
 Vibration    18          0.834              1.300              0.716
 Vibration    19          0.875              1.206              0.610
 Vibration    20          0.921              1.106              0.513
 Vibration    21          0.966              1.016              0.437

                           ! Non-Optimized Parameters !
 Normal termination of Gaussian 16 at Wed Dec  9 23:31:35 2020.

 ----------------------------------------------------------------------
 # B3LYP/6-311++G(d,p) empiricaldispersion=gd3bj scf=xqc pop=npa geom=c
 heck
 ----------------------------------------------------------------------

 ---------------------------------------
 CID_123636601_JID_3483_Energie_neutraal
 ---------------------------------------
 Structure from the checkpoint file:  "JID_3483.chk"
 Charge =  0 Multiplicity = 1

 SCF Done:  E(RB3LYP) =  -631.412302199     A.U. after   16 cycles
 Normal termination of Gaussian 16 at Wed Dec  9 23:34:03 2020.

 ----------------------------------------------------------------------
 # B3LYP/6-311++G(d,p) empiricaldispersion=gd3bj scf=xqc pop=npa geom=c
 heck
 ----------------------------------------------------------------------

 -------------------------------------
 CID_123636601_JID_3483_Energie_kation
 -------------------------------------
 Structure from the checkpoint file:  "JID_3483.chk"
 Charge =  1 Multiplicity = 2

 SCF Done:  E(UB3LYP) =  -631.087280080     A.U. after   27 cycles
 Normal termination of Gaussian 16 at Wed Dec  9 23:39:36 2020.
 Gaussian 16:  ES64L-G16RevA.03 25-Dec-2016

 ----------------------------------------------------------------------
 # B3LYP/6-311++G(d,p) empiricaldispersion=gd3bj scf=xqc pop=npa geom=c
 heck
 ----------------------------------------------------------------------

 ------------------------------------
 CID_123636601_JID_3483_Energie_anion
 ------------------------------------
 Structure from the checkpoint file:  "JID_3483.chk"
 Charge = -1 Multiplicity = 2

                         Standard orientation:
 ---------------------------------------------------------------------
 Center     Atomic      Atomic             Coordinates (Angstroms)
 Number     Number       Type             X           Y           Z
 ---------------------------------------------------------------------
      1          6           0        2.541996   -1.205136    1.379342
      2          6           0        3.040596   -0.420093    0.182598
      3          8           0        3.749907   -0.913702   -0.670224
      4          6           0        2.657099    1.058642    0.104653
      5          6           0        1.417944    1.299904   -0.781438
      6          7           0        0.149128    0.912897   -0.163358
      7          6           0       -0.459578    1.882982    0.735710
      8          6           0       -0.303476   -0.358324   -0.382581
      9          8           0        0.364642   -1.203361   -0.976540
     10          6           0       -1.677248   -0.748756    0.061189
     11          6           0       -2.804935   -0.056946   -0.163143
     12          6           0       -4.122903   -0.630155    0.162868
     13          8           0       -5.174059   -0.040095    0.009170
     14          1           0        2.620307   -2.275223    1.181939
     15          1           0        1.510610   -0.941208    1.631332
     16          1           0        3.163193   -0.954668    2.250501
     17          1           0        2.488221    1.476893    1.104831
     18          1           0        3.500393    1.587137   -0.351236
     19          1           0        1.347822    2.366749   -1.019765
     20          1           0        1.527620    0.742301   -1.712906
     21          1           0       -0.916302    2.713027    0.181542
     22          1           0       -1.222486    1.408256    1.350504
     23          1           0        0.306969    2.296780    1.400590
     24          1           0       -1.734425   -1.763840    0.450398
     25          1           0       -2.803808    0.939909   -0.596812
     26          1           0       -4.092894   -1.661835    0.578151
 ---------------------------------------------------------------------

 SCF Done:  E(UB3LYP) =  -631.446152512     A.U. after   26 cycles

 The electronic state is 2-A.
 Alpha  occ. eigenvalues --  -19.00744 -18.93969 -18.92343 -14.21689 -10.15991
 Alpha  occ. eigenvalues --  -10.12010 -10.10565 -10.09506 -10.08275 -10.07209
 Alpha  occ. eigenvalues --  -10.06262 -10.00621 -10.00389  -0.94136  -0.89863
 Alpha  occ. eigenvalues --   -0.86180  -0.81344  -0.68541  -0.64031  -0.62744
 Alpha  occ. eigenvalues --   -0.59651  -0.55408  -0.48945  -0.43336  -0.42836
 Alpha  occ. eigenvalues --   -0.40415  -0.38203  -0.36988  -0.36305  -0.34497
 Alpha  occ. eigenvalues --   -0.33828  -0.33199  -0.30891  -0.30462  -0.29893
 Alpha  occ. eigenvalues --   -0.28950  -0.27959  -0.26952  -0.26698  -0.25378
 Alpha  occ. eigenvalues --   -0.24615  -0.24354  -0.22981  -0.21430  -0.15081
 Alpha  occ. eigenvalues --   -0.13498  -0.12649  -0.11406  -0.08227   0.03356
 Alpha virt. eigenvalues --    0.06236   0.08125   0.08455   0.09324   0.10061
 Alpha virt. eigenvalues --    0.11388   0.12031   0.12303   0.12401   0.13174
 Alpha virt. eigenvalues --    0.13774   0.14677   0.15006   0.15864   0.16030

  Beta  occ. eigenvalues --  -19.00723 -18.93747 -18.91764 -14.21632 -10.15978
  Beta  occ. eigenvalues --  -10.11915 -10.10565 -10.09507 -10.08267 -10.07208
  Beta  occ. eigenvalues --  -10.06049 -10.00253 -10.00156  -0.94099  -0.89507
  Beta  occ. eigenvalues --   -0.85157  -0.81149  -0.68483  -0.63815  -0.62107
  Beta  occ. eigenvalues --   -0.59599  -0.55207  -0.47935  -0.43202  -0.42694
  Beta  occ. eigenvalues --   -0.39926  -0.38097  -0.36917  -0.36182  -0.34352
  Beta  occ. eigenvalues --   -0.33591  -0.33128  -0.30803  -0.30265  -0.29683
  Beta  occ. eigenvalues --   -0.28865  -0.27777  -0.26871  -0.26351  -0.25118
  Beta  occ. eigenvalues --   -0.24223  -0.23764  -0.21168  -0.20265  -0.15048
  Beta  occ. eigenvalues --   -0.12470  -0.11871  -0.09513  -0.07699
  Beta virt. eigenvalues --    0.06213   0.08092   0.08468   0.09250   0.10001
  Beta virt. eigenvalues --    0.10546   0.11383   0.11989   0.12271   0.12433
  Beta virt. eigenvalues --    0.13154   0.13777   0.14674   0.15035   0.15979

 Mulliken charges and spin densities:
               1          2
     1  C   -0.570574  -0.001765
     2  C    0.170130   0.016529
     3  O   -0.276370   0.007341
     4  C   -0.086012  -0.099970
     5  C   -0.254567   0.050765
     6  N    0.109458   0.015813
     7  C   -0.413962  -0.010658
     8  C   -0.769016   0.033380
     9  O   -0.290672   0.071950
    10  C    0.099544   0.384454
    11  C    0.172563   0.095744
    12  C   -0.275465   0.206237
    13  O   -0.397594   0.182930
    14  H    0.170342  -0.000210
    15  H    0.188706   0.008699
    16  H    0.123586   0.007110
    17  H    0.119710  -0.006392
    18  H    0.125688   0.046866
    19  H    0.107253   0.045343
    20  H    0.223574  -0.012614
    21  H    0.146883   0.005422
    22  H    0.196465  -0.002116
    23  H    0.091753   0.000670
    24  H    0.164808  -0.016758
    25  H    0.119884  -0.015155
    26  H    0.003884  -0.013616
 Sum of Mulliken charges =  -1.00000   1.00000

 Dipole moment (field-independent basis, Debye):
    X=              9.0748    Y=              4.3846    Z=              3.6775  Tot=             10.7285
 Quadrupole moment (field-independent basis, Debye-Ang):
   XX=           -168.2904   YY=            -86.7217   ZZ=            -86.0305
   XY=              6.6182   XZ=              7.0168   YZ=             -5.3372

 Summary of Natural Population Analysis:

                                       Natural Population
                Natural  -----------------------------------------------
    Atom  No    Charge         Core      Valence    Rydberg      Total
 -----------------------------------------------------------------------
      C    1   -0.33158      0.99961     2.32706    0.00490     3.33158
      C    2    0.29908      0.99969     1.67844    0.02278     2.70092
      O    3   -0.28801      0.99987     3.28020    0.00794     4.28801
      C    4   -0.23882      0.99957     2.23196    0.00728     3.23882
      C    5   -0.07964      0.99961     2.07065    0.00938     3.07964
      N    6   -0.25767      0.99963     2.74819    0.00985     3.75767
      C    7   -0.17547      0.99965     2.16957    0.00626     3.17547
      C    8    0.34075      0.99962     1.63622    0.02341     2.65925
      O    9   -0.30929      0.99988     3.30347    0.00594     4.30929
      C   10   -0.03818      0.99950     2.02888    0.00980     3.03818
      C   11   -0.11399      0.99950     2.10528    0.00921     3.11399
      C   12    0.21630      0.99971     1.76237    0.02162     2.78370
      O   13   -0.24450      0.99988     3.23597    0.00865     4.24450
      H   14    0.11157      0.00000     0.38742    0.00102     0.38843
      H   15    0.11444      0.00000     0.38473    0.00083     0.38556
      H   16    0.10099      0.00000     0.39810    0.00091     0.39901
      H   17    0.09707      0.00000     0.40201    0.00093     0.40293
      H   18    0.10454      0.00000     0.39304    0.00242     0.39546
      H   19    0.08925      0.00000     0.40910    0.00165     0.41075
      H   20    0.11533      0.00000     0.38339    0.00128     0.38467
      H   21    0.08692      0.00000     0.41178    0.00130     0.41308
      H   22    0.11595      0.00000     0.38312    0.00093     0.38405
      H   23    0.08262      0.00000     0.41616    0.00122     0.41738
      H   24    0.08923      0.00000     0.40879    0.00198     0.41077
      H   25    0.08632      0.00000     0.41158    0.00211     0.41368
      H   26    0.02682      0.00000     0.47011    0.00307     0.47318
 =======================================================================
   * Total *    0.00000     12.99573    35.83757    0.16669    49.00000

 Normal termination of Gaussian 16 at Wed Dec  9 23:44:54 2020.
