 Gaussian 16, Revision A.03,

 -----------------------------------------------------------
 # opt freq B3LYP/6-31G(d) empiricaldispersion=gd3bj scf=xqc
 -----------------------------------------------------------

 -------------------------------
 CID_143956334_JID_2247_neutraal
 -------------------------------
 Symbolic Z-matrix:
 Charge =  0 Multiplicity = 1

 SCF Done:  E(RB3LYP) =  -480.563494104     A.U. after   14 cycles
 SCF Done:  E(RB3LYP) =  -480.566091966     A.U. after   13 cycles
 SCF Done:  E(RB3LYP) =  -480.566586921     A.U. after   12 cycles
 SCF Done:  E(RB3LYP) =  -480.566679661     A.U. after   12 cycles
 SCF Done:  E(RB3LYP) =  -480.566693768     A.U. after   10 cycles
 SCF Done:  E(RB3LYP) =  -480.566697455     A.U. after    8 cycles
 SCF Done:  E(RB3LYP) =  -480.566698056     A.U. after    8 cycles
 SCF Done:  E(RB3LYP) =  -480.566698347     A.U. after    7 cycles
 Optimization completed.
    -- Stationary point found.
 Normal termination of Gaussian 16 at Wed Dec  9 16:53:27 2020.

 --------------------------------------------------------------------
 #N Geom=AllCheck Guess=TCheck SCRF=Check GenChk RB3LYP/6-31G(d) Freq
 --------------------------------------------------------------------

 Structure from the checkpoint file:  "JID_2247.chk"
 -------------------------------
 CID_143956334_JID_2247_neutraal
 -------------------------------
 Charge =  0 Multiplicity = 1

 SCF Done:  E(RB3LYP) =  -480.566698347     A.U. after    1 cycles

  Exact polarizability: 157.574   1.036 130.523   0.408  -1.005  61.271
 Approx polarizability: 249.144  -1.090 224.486   4.097  -4.023  96.972

                      1                      2                      3
                      A                      A                      A
 Frequencies --    101.5813               121.4415               179.5688
 Red. masses --      3.2922                 4.0135                 1.0928
 Frc consts  --      0.0200                 0.0349                 0.0208
 IR Inten    --      0.5964                 1.9315                 0.4242

                      4                      5                      6
                      A                      A                      A
 Frequencies --    216.1287               255.3145               313.3880
 Red. masses --      2.8106                 3.1116                 2.7865
 Frc consts  --      0.0774                 0.1195                 0.1612
 IR Inten    --      0.4263                 2.0967                 1.6232

                      7                      8                      9
                      A                      A                      A
 Frequencies --    335.0975               376.1701               404.7250
 Red. masses --      3.6136                 4.1086                 3.5914
 Frc consts  --      0.2391                 0.3425                 0.3466
 IR Inten    --      3.7692                 1.6484                 0.1128

                     10                     11                     12
                      A                      A                      A
 Frequencies --    466.6023               494.4895               519.0413
 Red. masses --      4.3422                 3.2567                 3.6744
 Frc consts  --      0.5570                 0.4692                 0.5832
 IR Inten    --      2.1697                 4.2189                 0.3931

                     13                     14                     15
                      A                      A                      A
 Frequencies --    545.5570               599.7789               620.6530
 Red. masses --      4.1197                 3.9207                 3.2544
 Frc consts  --      0.7224                 0.8310                 0.7386
 IR Inten    --      0.2344                 3.7972                 3.8942

                     16                     17                     18
                      A                      A                      A
 Frequencies --    684.9678               730.8968               778.2684
 Red. masses --      3.5444                 1.9868                 1.6856
 Frc consts  --      0.9798                 0.6253                 0.6015
 IR Inten    --      8.6691                28.3245                13.4597

                     19                     20                     21
                      A                      A                      A
 Frequencies --    809.8242               838.8538               845.4418
 Red. masses --      2.2595                 2.7546                 3.6672
 Frc consts  --      0.8730                 1.1420                 1.5444
 IR Inten    --     19.6876                11.6040                 6.2588

                     22                     23                     24
                      A                      A                      A
 Frequencies --    899.7241               913.1272               950.8130
 Red. masses --      2.8141                 1.3997                 1.9950
 Frc consts  --      1.3422                 0.6876                 1.0627
 IR Inten    --      0.9754                 0.7283                13.1317

                     25                     26                     27
                      A                      A                      A
 Frequencies --    974.3091               974.8785               982.5835
 Red. masses --      1.3231                 1.8312                 1.5708
 Frc consts  --      0.7400                 1.0254                 0.8936
 IR Inten    --      1.9929                 0.6062                 1.7472

                     28                     29                     30
                      A                      A                      A
 Frequencies --   1004.0079              1032.1380              1073.2485
 Red. masses --      2.1013                 1.7746                 1.5723
 Frc consts  --      1.2480                 1.1139                 1.0671
 IR Inten    --      2.1134                 1.5528                 2.1530

                     31                     32                     33
                      A                      A                      A
 Frequencies --   1076.9548              1117.3890              1193.5981
 Red. masses --      2.0469                 1.8677                 1.1467
 Frc consts  --      1.3988                 1.3739                 0.9626
 IR Inten    --      1.0565                 5.3996                 3.9465

                     34                     35                     36
                      A                      A                      A
 Frequencies --   1199.3524              1211.1671              1255.9272
 Red. masses --      1.2921                 2.9632                 1.4026
 Frc consts  --      1.0950                 2.5610                 1.3035
 IR Inten    --      1.0225                 0.8288                 3.3749

                     37                     38                     39
                      A                      A                      A
 Frequencies --   1260.9500              1294.4777              1338.2572
 Red. masses --      2.1843                 1.7680                 2.1314
 Frc consts  --      2.0463                 1.7455                 2.2490
 IR Inten    --      1.8921                 0.3482                 1.1280

                     40                     41                     42
                      A                      A                      A
 Frequencies --   1366.8110              1421.4752              1444.2597
 Red. masses --      2.3570                 1.4036                 1.2509
 Frc consts  --      2.5943                 1.6710                 1.5373
 IR Inten    --      2.8602                 2.2422                 0.8385

                     43                     44                     45
                      A                      A                      A
 Frequencies --   1453.8059              1481.8313              1509.9977
 Red. masses --      1.5492                 2.4233                 1.5517
 Frc consts  --      1.9292                 3.1351                 2.0846
 IR Inten    --      2.1149                 3.9422                13.0721

                     46                     47                     48
                      A                      A                      A
 Frequencies --   1512.9260              1523.0463              1534.7702
 Red. masses --      1.5658                 1.0760                 1.1221
 Frc consts  --      2.1116                 1.4706                 1.5573
 IR Inten    --      7.1189                 6.5724                10.2875

                     49                     50                     51
                      A                      A                      A
 Frequencies --   1615.0409              1640.1135              1657.5568
 Red. masses --      7.8344                 6.2538                 6.7563
 Frc consts  --     12.0399                 9.9116                10.9370
 IR Inten    --      9.8542                16.4435                 4.9097

                     52                     53                     54
                      A                      A                      A
 Frequencies --   1708.1212              3030.6930              3042.1111
 Red. masses --      6.0311                 1.0719                 1.0386
 Frc consts  --     10.3677                 5.8008                 5.6632
 IR Inten    --     16.5915                18.3263                27.7466

                     55                     56                     57
                      A                      A                      A
 Frequencies --   3092.4810              3102.2724              3127.7232
 Red. masses --      1.1009                 1.0867                 1.0995
 Frc consts  --      6.2029                 6.1620                 6.3374
 IR Inten    --     20.4869                53.3500                19.6542

                     58                     59                     60
                      A                      A                      A
 Frequencies --   3144.9255              3164.5559              3181.3445
 Red. masses --      1.0900                 1.0857                 1.0870
 Frc consts  --      6.3517                 6.4061                 6.4822
 IR Inten    --     10.6767                13.7993                10.5076

                     61                     62                     63
                      A                      A                      A
 Frequencies --   3186.9620              3199.5585              3220.5821
 Red. masses --      1.0970                 1.0919                 1.0945
 Frc consts  --      6.5647                 6.5856                 6.6886
 IR Inten    --     33.0900                24.1897                13.5712

 - Thermochemistry -
 -------------------
 Temperature   298.150 Kelvin.  Pressure   1.00000 Atm.
 Atom     1 has atomic number  6 and mass  12.00000

 Molecular mass:   157.08915 amu.
 Principal axes and moments of inertia in atomic units:
                           1         2         3
     Eigenvalues --  1152.496131961.479092914.42720
           X            0.99987  -0.01617  -0.00158
           Y            0.01618   0.99985   0.00652
           Z            0.00147  -0.00655   0.99998
 This molecule is an asymmetric top.
 Rotational symmetry number  1.
 Warning -- assumption of classical behavior for rotation
           may cause significant error
 Rotational temperatures (Kelvin)      0.07515     0.04416     0.02972
 Rotational constants (GHZ):           1.56594     0.92009     0.61924
 Zero-point vibrational energy     504546.9 (Joules/Mol)
                                  120.58961 (Kcal/Mol)
 Warning -- explicit consideration of  15 degrees of freedom as
           vibrations may cause significant error
 Vibrational temperatures:    146.15   174.73   258.36   310.96   367.34
          (Kelvin)            450.90   482.13   541.22   582.31   671.34
                              711.46   746.78   784.93   862.95   892.98
                              985.52  1051.60  1119.75  1165.16  1206.92
                             1216.40  1294.50  1313.79  1368.01  1401.81
                             1402.63  1413.72  1444.54  1485.02  1544.17
                             1549.50  1607.67  1717.32  1725.60  1742.60
                             1807.00  1814.23  1862.46  1925.45  1966.54
                             2045.19  2077.97  2091.70  2132.02  2172.55
                             2176.76  2191.32  2208.19  2323.68  2359.76
                             2384.85  2457.61  4360.49  4376.92  4449.39
                             4463.48  4500.10  4524.85  4553.09  4577.25
                             4585.33  4603.45  4633.70

 Zero-point correction=                           0.192172 (Hartree/Particle)
 Thermal correction to Energy=                    0.201740
 Thermal correction to Enthalpy=                  0.202684
 Thermal correction to Gibbs Free Energy=         0.157687
 Sum of electronic and zero-point Energies=           -480.374527
 Sum of electronic and thermal Energies=              -480.364959
 Sum of electronic and thermal Enthalpies=            -480.364015
 Sum of electronic and thermal Free Energies=         -480.409011

                     E (Thermal)             CV                S
                      KCal/Mol        Cal/Mol-Kelvin    Cal/Mol-Kelvin
 Total                  126.593             38.969             94.703
 Electronic               0.000              0.000              0.000
 Translational            0.889              2.981             41.064
 Rotational               0.889              2.981             30.267
 Vibrational            124.816             33.008             23.372
 Vibration     1          0.604              1.948              3.424
 Vibration     2          0.609              1.931              3.077
 Vibration     3          0.629              1.867              2.333
 Vibration     4          0.645              1.816              1.991
 Vibration     5          0.666              1.754              1.694
 Vibration     6          0.701              1.648              1.344
 Vibration     7          0.716              1.605              1.235
 Vibration     8          0.747              1.521              1.055
 Vibration     9          0.770              1.460              0.945
 Vibration    10          0.824              1.324              0.747
 Vibration    11          0.850              1.262              0.672
 Vibration    12          0.874              1.208              0.612
 Vibration    13          0.901              1.149              0.553
 Vibration    14          0.958              1.032              0.450
 Vibration    15          0.981              0.988              0.415

                           ! Non-Optimized Parameters !
 Normal termination of Gaussian 16 at Wed Dec  9 16:59:05 2020.

 ----------------------------------------------------------------------
 # B3LYP/6-311++G(d,p) empiricaldispersion=gd3bj scf=xqc pop=npa geom=c
 heck
 ----------------------------------------------------------------------

 ---------------------------------------
 CID_143956334_JID_2247_Energie_neutraal
 ---------------------------------------
 Structure from the checkpoint file:  "JID_2247.chk"
 Charge =  0 Multiplicity = 1

 SCF Done:  E(RB3LYP) =  -480.688551100     A.U. after   14 cycles
 Normal termination of Gaussian 16 at Wed Dec  9 17:01:29 2020.

 ----------------------------------------------------------------------
 # B3LYP/6-311++G(d,p) empiricaldispersion=gd3bj scf=xqc pop=npa geom=c
 heck
 ----------------------------------------------------------------------

 -------------------------------------
 CID_143956334_JID_2247_Energie_kation
 -------------------------------------
 Structure from the checkpoint file:  "JID_2247.chk"
 Charge =  1 Multiplicity = 2

 SCF Done:  E(UB3LYP) =  -480.394981939     A.U. after   24 cycles
 Normal termination of Gaussian 16 at Wed Dec  9 17:06:57 2020.
 Gaussian 16:  ES64L-G16RevA.03 25-Dec-2016

 ----------------------------------------------------------------------
 # B3LYP/6-311++G(d,p) empiricaldispersion=gd3bj scf=xqc pop=npa geom=c
 heck
 ----------------------------------------------------------------------

 ------------------------------------
 CID_143956334_JID_2247_Energie_anion
 ------------------------------------
 Structure from the checkpoint file:  "JID_2247.chk"
 Charge = -1 Multiplicity = 2

                         Standard orientation:
 ---------------------------------------------------------------------
 Center     Atomic      Atomic             Coordinates (Angstroms)
 Number     Number       Type             X           Y           Z
 ---------------------------------------------------------------------
      1          6           0       -2.076652    2.097320    0.021754
      2          6           0       -1.587669    0.666710    0.005437
      3          6           0       -0.245417    0.349285    0.287957
      4          6           0        0.776613    1.401505    0.662066
      5          6           0        1.812673    1.479569   -0.428390
      6          6           0        2.641030    0.448180   -0.668285
      7          6           0        2.548619   -0.823335    0.042992
      8          7           0        1.496088   -1.443133    0.461270
      9          6           0        0.185335   -0.996956    0.244264
     10          6           0       -0.752748   -2.014814   -0.008553
     11          6           0       -2.072610   -1.699371   -0.290070
     12          6           0       -2.483493   -0.364314   -0.287101
     13          1           0       -1.993017    2.549138    1.018021
     14          1           0       -3.128401    2.147637   -0.274255
     15          1           0       -1.508373    2.731821   -0.669208
     16          1           0        1.263128    1.109610    1.603417
     17          1           0        0.308618    2.372635    0.826130
     18          1           0        1.887256    2.390085   -1.019442
     19          1           0        3.442680    0.542642   -1.398817
     20          1           0        3.491296   -1.357347    0.197263
     21          1           0       -0.400565   -3.040896   -0.002007
     22          1           0       -2.787922   -2.487739   -0.506389
     23          1           0       -3.521408   -0.118329   -0.496032
 ---------------------------------------------------------------------

 SCF Done:  E(UB3LYP) =  -480.690364400     A.U. after   30 cycles

 The electronic state is 2-A.
 Alpha  occ. eigenvalues --  -14.11650 -10.04583 -10.04217 -10.03506 -10.02741
 Alpha  occ. eigenvalues --  -10.02694 -10.02591 -10.02252 -10.01884 -10.01243
 Alpha  occ. eigenvalues --  -10.00297 -10.00181  -0.75851  -0.70130  -0.65262
 Alpha  occ. eigenvalues --   -0.62277  -0.60391  -0.55126  -0.52539  -0.48847
 Alpha  occ. eigenvalues --   -0.43681  -0.41774  -0.38239  -0.35291  -0.33533
 Alpha  occ. eigenvalues --   -0.31152  -0.30461  -0.29654  -0.28035  -0.26817
 Alpha  occ. eigenvalues --   -0.26400  -0.25992  -0.23162  -0.22217  -0.20932
 Alpha  occ. eigenvalues --   -0.20551  -0.19410  -0.16944  -0.11786  -0.10036
 Alpha  occ. eigenvalues --   -0.08732  -0.06529   0.05744
 Alpha virt. eigenvalues --    0.08451   0.09662   0.10201   0.11194   0.11373
 Alpha virt. eigenvalues --    0.12090   0.12738   0.13584   0.13791   0.14195
 Alpha virt. eigenvalues --    0.14662   0.14959   0.15391   0.17385   0.17871

  Beta  occ. eigenvalues --  -14.11249 -10.04577 -10.04217 -10.03498 -10.02794
  Beta  occ. eigenvalues --  -10.02725 -10.02486 -10.01927 -10.01731 -10.01113
  Beta  occ. eigenvalues --  -10.00245  -9.99804  -0.75211  -0.69832  -0.64873
  Beta  occ. eigenvalues --   -0.62052  -0.60033  -0.54915  -0.52428  -0.48127
  Beta  occ. eigenvalues --   -0.43518  -0.41285  -0.37949  -0.35154  -0.33281
  Beta  occ. eigenvalues --   -0.30944  -0.30239  -0.29532  -0.27741  -0.26698
  Beta  occ. eigenvalues --   -0.26259  -0.25805  -0.22732  -0.21994  -0.20737
  Beta  occ. eigenvalues --   -0.20184  -0.19008  -0.15703  -0.10688  -0.09536
  Beta  occ. eigenvalues --   -0.07295  -0.05755
  Beta virt. eigenvalues --    0.08351   0.09586   0.10092   0.11080   0.11335
  Beta virt. eigenvalues --    0.11708   0.12052   0.12850   0.13636   0.13792
  Beta virt. eigenvalues --    0.14476   0.14752   0.15023   0.15952   0.17343

 Mulliken charges and spin densities:
               1          2
     1  C   -0.425877  -0.221731
     2  C    0.377333   0.078622
     3  C    0.646677   0.241819
     4  C    0.010977  -0.071844
     5  C   -0.351856   0.343143
     6  C   -0.113326  -0.036307
     7  C   -0.420921   0.273475
     8  N   -0.029442   0.155264
     9  C   -0.720305  -0.030971
    10  C   -0.125089   0.058115
    11  C   -0.284476  -0.041727
    12  C   -0.652854   0.057089
    13  H    0.132407   0.013898
    14  H    0.091405   0.030443
    15  H    0.080347   0.070829
    16  H    0.118265   0.048694
    17  H    0.147177  -0.039532
    18  H    0.051017   0.031183
    19  H    0.077376   0.032043
    20  H    0.101987  -0.008260
    21  H    0.134540  -0.003641
    22  H    0.110659   0.005801
    23  H    0.043980   0.013594
 Sum of Mulliken charges =  -1.00000   1.00000

 Dipole moment (field-independent basis, Debye):
    X=             -3.3157    Y=              2.2270    Z=              0.0425  Tot=              3.9944
 Quadrupole moment (field-independent basis, Debye-Ang):
   XX=            -99.4535   YY=            -88.6961   ZZ=            -83.8959
   XY=              0.9969   XZ=             -1.5570   YZ=              3.4167

 Summary of Natural Population Analysis:

                                       Natural Population
                Natural  -----------------------------------------------
    Atom  No    Charge         Core      Valence    Rydberg      Total
 -----------------------------------------------------------------------
      C    1   -0.29014      0.99964     2.28539    0.00511     3.29014
      C    2   -0.02845      0.99947     2.02072    0.00825     3.02845
      C    3    0.00342      0.99943     1.98661    0.01054     2.99658
      C    4   -0.22393      0.99960     2.21510    0.00923     3.22393
      C    5    0.01981      0.99954     1.97011    0.01054     2.98019
      C    6   -0.16038      0.99952     2.15123    0.00963     3.16038
      C    7    0.10263      0.99961     1.88242    0.01533     2.89737
      N    8   -0.20494      0.99966     2.69089    0.01439     3.70494
      C    9    0.07443      0.99942     1.91322    0.01293     2.92557
      C   10   -0.07805      0.99952     2.06899    0.00954     3.07805
      C   11   -0.12567      0.99957     2.11703    0.00907     3.12567
      C   12   -0.08925      0.99952     2.07998    0.00974     3.08925
      H   13    0.09621      0.00000     0.40251    0.00127     0.40379
      H   14    0.09528      0.00000     0.40365    0.00107     0.40472
      H   15    0.09956      0.00000     0.39890    0.00154     0.40044
      H   16    0.10443      0.00000     0.39351    0.00206     0.39557
      H   17    0.09686      0.00000     0.40193    0.00121     0.40314
      H   18    0.08004      0.00000     0.41854    0.00142     0.41996
      H   19    0.09057      0.00000     0.40750    0.00193     0.40943
      H   20    0.06688      0.00000     0.43139    0.00173     0.43312
      H   21    0.09649      0.00000     0.40201    0.00150     0.40351
      H   22    0.08887      0.00000     0.40956    0.00157     0.41113
      H   23    0.08535      0.00000     0.41309    0.00155     0.41465
 =======================================================================
   * Total *    0.00000     11.99453    29.86431    0.14116    42.00000

 Normal termination of Gaussian 16 at Wed Dec  9 17:14:08 2020.
