 Gaussian 16, Revision A.03,

 -----------------------------------------------------------
 # opt freq B3LYP/6-31G(d) empiricaldispersion=gd3bj scf=xqc
 -----------------------------------------------------------

 -------------------------------
 CID_112545713_JID_4926_neutraal
 -------------------------------
 Symbolic Z-matrix:
 Charge =  0 Multiplicity = 1

 SCF Done:  E(RB3LYP) =  -610.923733812     A.U. after   14 cycles
 SCF Done:  E(RB3LYP) =  -610.929939810     A.U. after   12 cycles
 SCF Done:  E(RB3LYP) =  -610.930708844     A.U. after   12 cycles
 SCF Done:  E(RB3LYP) =  -610.930822111     A.U. after   12 cycles
 SCF Done:  E(RB3LYP) =  -610.931298900     A.U. after   11 cycles
 SCF Done:  E(RB3LYP) =  -610.931345324     A.U. after   10 cycles
 SCF Done:  E(RB3LYP) =  -610.931359842     A.U. after    9 cycles
 SCF Done:  E(RB3LYP) =  -610.931361184     A.U. after    8 cycles
 SCF Done:  E(RB3LYP) =  -610.931361777     A.U. after    8 cycles
 SCF Done:  E(RB3LYP) =  -610.931361863     A.U. after    7 cycles
 SCF Done:  E(RB3LYP) =  -610.931653917     A.U. after   11 cycles
 SCF Done:  E(RB3LYP) =  -610.931701304     A.U. after   10 cycles
 SCF Done:  E(RB3LYP) =  -610.931696390     A.U. after   11 cycles
 SCF Done:  E(RB3LYP) =  -610.931715729     A.U. after   10 cycles
 SCF Done:  E(RB3LYP) =  -610.931715456     A.U. after    9 cycles
 SCF Done:  E(RB3LYP) =  -610.931716114     A.U. after    8 cycles
 Optimization completed.
    -- Stationary point found.
 Normal termination of Gaussian 16 at Thu Dec 10 11:12:16 2020.

 --------------------------------------------------------------------
 #N Geom=AllCheck Guess=TCheck SCRF=Check GenChk RB3LYP/6-31G(d) Freq
 --------------------------------------------------------------------

 Structure from the checkpoint file:  "JID_4926.chk"
 -------------------------------
 CID_112545713_JID_4926_neutraal
 -------------------------------
 Charge =  0 Multiplicity = 1

 SCF Done:  E(RB3LYP) =  -610.931716114     A.U. after    1 cycles

  Exact polarizability: 149.310  -0.541 127.213  -0.702  -3.991  95.461
 Approx polarizability: 203.523  -1.032 196.432  -5.713 -10.259 144.615

                      1                      2                      3
                      A                      A                      A
 Frequencies --     49.8683                92.6056               102.7886
 Red. masses --      3.5118                 3.0790                 3.4654
 Frc consts  --      0.0051                 0.0156                 0.0216
 IR Inten    --      0.7815                 0.1806                 0.1575

                      4                      5                      6
                      A                      A                      A
 Frequencies --    134.2068               159.4042               200.5006
 Red. masses --      1.1550                 1.9880                 2.6232
 Frc consts  --      0.0123                 0.0298                 0.0621
 IR Inten    --      0.2086                 0.2817                 0.3579

                      7                      8                      9
                      A                      A                      A
 Frequencies --    222.1828               244.9371               280.0122
 Red. masses --      1.2383                 3.0223                 1.6932
 Frc consts  --      0.0360                 0.1068                 0.0782
 IR Inten    --      0.4398                 0.1934                 0.8066

                     10                     11                     12
                      A                      A                      A
 Frequencies --    283.4418               304.2136               327.8626
 Red. masses --      2.6863                 3.5251                 2.4116
 Frc consts  --      0.1272                 0.1922                 0.1527
 IR Inten    --      2.7035                 1.7673                 1.5422

                     13                     14                     15
                      A                      A                      A
 Frequencies --    351.3673               358.0293               434.2646
 Red. masses --      2.5791                 2.0942                 2.6124
 Frc consts  --      0.1876                 0.1582                 0.2903
 IR Inten    --      1.4921                 1.2966                 5.4116

                     16                     17                     18
                      A                      A                      A
 Frequencies --    438.2764               453.6192               477.7564
 Red. masses --      2.8558                 2.1826                 2.9587
 Frc consts  --      0.3232                 0.2646                 0.3979
 IR Inten    --      8.7815                 0.9529                 2.7943

                     19                     20                     21
                      A                      A                      A
 Frequencies --    491.3613               516.8457               632.9293
 Red. masses --      1.4962                 2.0796                 3.0566
 Frc consts  --      0.2128                 0.3273                 0.7214
 IR Inten    --     47.4007                 6.2852                 7.0148

                     22                     23                     24
                      A                      A                      A
 Frequencies --    652.9624               684.8740               690.4974
 Red. masses --      2.0643                 3.0990                 3.9642
 Frc consts  --      0.5186                 0.8564                 1.1136
 IR Inten    --    109.1435                13.5614                 8.1710

                     25                     26                     27
                      A                      A                      A
 Frequencies --    710.7360               745.5719               797.5125
 Red. masses --      3.7379                 1.8364                 3.1777
 Frc consts  --      1.1125                 0.6014                 1.1908
 IR Inten    --     20.5040                31.1854                 5.3299

                     28                     29                     30
                      A                      A                      A
 Frequencies --    850.2928               878.3180               883.1781
 Red. masses --      2.4118                 1.4658                 1.5893
 Frc consts  --      1.0274                 0.6663                 0.7304
 IR Inten    --      9.4123                12.0346                35.8908

                     31                     32                     33
                      A                      A                      A
 Frequencies --    925.3389               936.7794               958.5916
 Red. masses --      2.6184                 1.6531                 3.5859
 Frc consts  --      1.3210                 0.8547                 1.9414
 IR Inten    --      7.4498                 3.3345                34.6836

                     34                     35                     36
                      A                      A                      A
 Frequencies --    982.7410              1014.4726              1018.9042
 Red. masses --      1.8357                 1.6630                 2.0478
 Frc consts  --      1.0445                 1.0084                 1.2526
 IR Inten    --      3.6842                 9.0368                 2.5330

                     37                     38                     39
                      A                      A                      A
 Frequencies --   1021.2019              1063.6169              1071.8366
 Red. masses --      1.5285                 1.8996                 1.4459
 Frc consts  --      0.9391                 1.2662                 0.9787
 IR Inten    --      2.0751                24.9107                 3.5809

                     40                     41                     42
                      A                      A                      A
 Frequencies --   1101.2803              1138.6834              1150.7965
 Red. masses --      2.0970                 2.1323                 2.7567
 Frc consts  --      1.4984                 1.6289                 2.1510
 IR Inten    --      3.2770                 1.6701                27.0735

                     43                     44                     45
                      A                      A                      A
 Frequencies --   1162.6077              1164.8303              1189.1107
 Red. masses --      1.9904                 2.5793                 2.7603
 Frc consts  --      1.5851                 2.0619                 2.2996
 IR Inten    --      5.2775                33.3913                14.9331

                     46                     47                     48
                      A                      A                      A
 Frequencies --   1195.9610              1229.7932              1267.7933
 Red. masses --      2.5193                 2.8938                 1.8021
 Frc consts  --      2.1231                 2.5786                 1.7066
 IR Inten    --      4.7811                 2.6191                 4.9376

                     49                     50                     51
                      A                      A                      A
 Frequencies --   1273.1179              1317.6323              1320.7113
 Red. masses --      1.6016                 1.9221                 1.3840
 Frc consts  --      1.5295                 1.9661                 1.4224
 IR Inten    --     31.4891                23.6390                19.1737

                     52                     53                     54
                      A                      A                      A
 Frequencies --   1334.8649              1368.5860              1391.0413
 Red. masses --      1.2691                 1.3731                 4.1848
 Frc consts  --      1.3323                 1.5153                 4.7709
 IR Inten    --      3.7217                16.9977                 6.2463

                     55                     56                     57
                      A                      A                      A
 Frequencies --   1408.9191              1416.9907              1423.7996
 Red. masses --      1.3904                 1.2753                 1.3613
 Frc consts  --      1.6262                 1.5086                 1.6259
 IR Inten    --      4.6234                13.0554                14.4412

                     58                     59                     60
                      A                      A                      A
 Frequencies --   1440.0263              1448.1410              1459.3808
 Red. masses --      1.6304                 1.4523                 1.8414
 Frc consts  --      1.9920                 1.7944                 2.3107
 IR Inten    --      0.1150                14.3686                 6.3457

                     61                     62                     63
                      A                      A                      A
 Frequencies --   1492.0589              1503.9244              1508.7798
 Red. masses --      1.2660                 1.2165                 1.1711
 Frc consts  --      1.6606                 1.6211                 1.5707
 IR Inten    --      0.5249                 1.3767                12.3793

                     64                     65                     66
                      A                      A                      A
 Frequencies --   1511.2178              1514.2596              1523.6732
 Red. masses --      1.2597                 1.1356                 1.0967
 Frc consts  --      1.6950                 1.5341                 1.5001
 IR Inten    --     13.3385                13.0664                 0.2516

                     67                     68                     69
                      A                      A                      A
 Frequencies --   1526.4197              1529.5715              1534.5136
 Red. masses --      1.1386                 1.0658                 1.1003
 Frc consts  --      1.5630                 1.4692                 1.5265
 IR Inten    --      1.9625                 1.5822                 4.4636

                     70                     71                     72
                      A                      A                      A
 Frequencies --   1544.4790              1551.8409              1619.7726
 Red. masses --      1.7768                 1.0528                 4.2627
 Frc consts  --      2.4972                 1.4939                 6.5894
 IR Inten    --      8.0520                 4.9623                 7.8798

                     73                     74                     75
                      A                      A                      A
 Frequencies --   2903.6762              2967.2086              3043.3029
 Red. masses --      1.0733                 1.0702                 1.0829
 Frc consts  --      5.3315                 5.5516                 5.9093
 IR Inten    --     86.5654                84.8712                34.3749

                     76                     77                     78
                      A                      A                      A
 Frequencies --   3044.4285              3056.8527              3067.0956
 Red. masses --      1.0405                 1.0449                 1.0421
 Frc consts  --      5.6819                 5.7529                 5.7759
 IR Inten    --     31.0184                30.6122                13.2985

                     79                     80                     81
                      A                      A                      A
 Frequencies --   3079.9207              3087.9579              3096.1304
 Red. masses --      1.0867                 1.0893                 1.1006
 Frc consts  --      6.0734                 6.1197                 6.2161
 IR Inten    --     58.2693                34.7117                17.8597

                     82                     83                     84
                      A                      A                      A
 Frequencies --   3126.0219              3138.3397              3139.5250
 Red. masses --      1.0959                 1.0990                 1.0975
 Frc consts  --      6.3095                 6.3774                 6.3738
 IR Inten    --     37.9361                23.4039                16.2926

                     85                     86                     87
                      A                      A                      A
 Frequencies --   3155.7667              3179.9834              3271.6662
 Red. masses --      1.1028                 1.0984                 1.0955
 Frc consts  --      6.4710                 6.5444                 6.9089
 IR Inten    --     14.9027                18.0673                 4.9609

                     88                     89                     90
                      A                      A                      A
 Frequencies --   3510.8898              3549.9566              3654.0530
 Red. masses --      1.0751                 1.0747                 1.0810
 Frc consts  --      7.8078                 7.9796                 8.5039
 IR Inten    --      0.8438                 0.6140                60.3091

 - Thermochemistry -
 -------------------
 Temperature   298.150 Kelvin.  Pressure   1.00000 Atm.
 Atom     1 has atomic number  6 and mass  12.00000

 Molecular mass:   194.15315 amu.
 Principal axes and moments of inertia in atomic units:
                           1         2         3
     Eigenvalues --  1362.201483845.376094262.90431
           X            0.99983   0.01766   0.00563
           Y           -0.01758   0.99974  -0.01472
           Z           -0.00589   0.01462   0.99988
 This molecule is an asymmetric top.
 Rotational symmetry number  1.
 Warning -- assumption of classical behavior for rotation
           may cause significant error
 Rotational temperatures (Kelvin)      0.06358     0.02252     0.02032
 Rotational constants (GHZ):           1.32487     0.46933     0.42336
 Zero-point vibrational energy     748152.0 (Joules/Mol)
                                  178.81263 (Kcal/Mol)
 Warning -- explicit consideration of  20 degrees of freedom as
           vibrations may cause significant error
 Vibrational temperatures:     71.75   133.24   147.89   193.09   229.35
          (Kelvin)            288.48   319.67   352.41   402.88   407.81
                              437.70   471.72   505.54   515.12   624.81
                              630.58   652.66   687.38   706.96   743.63
                              910.64   939.47   985.38   993.47  1022.59
                             1072.71  1147.44  1223.38  1263.70  1270.70
                             1331.36  1347.82  1379.20  1413.95  1459.60
                             1465.98  1469.28  1530.31  1542.13  1584.50
                             1638.31  1655.74  1672.73  1675.93  1710.87
                             1720.72  1769.40  1824.07  1831.73  1895.78
                             1900.21  1920.57  1969.09  2001.40  2027.12
                             2038.73  2048.53  2071.88  2083.55  2099.72
                             2146.74  2163.81  2170.80  2174.31  2178.68
                             2192.23  2196.18  2200.71  2207.82  2222.16
                             2232.75  2330.49  4177.74  4269.15  4378.63
                             4380.25  4398.13  4412.87  4431.32  4442.88
                             4454.64  4497.65  4515.37  4517.08  4540.44
                             4575.29  4707.20  5051.39  5107.60  5257.37

 Zero-point correction=                           0.284956 (Hartree/Particle)
 Thermal correction to Energy=                    0.298509
 Thermal correction to Enthalpy=                  0.299453
 Thermal correction to Gibbs Free Energy=         0.245748
 Sum of electronic and zero-point Energies=           -610.646760
 Sum of electronic and thermal Energies=              -610.633207
 Sum of electronic and thermal Enthalpies=            -610.632263
 Sum of electronic and thermal Free Energies=         -610.685969

                     E (Thermal)             CV                S
                      KCal/Mol        Cal/Mol-Kelvin    Cal/Mol-Kelvin
 Total                  187.317             53.851            113.033
 Electronic               0.000              0.000              0.000
 Translational            0.889              2.981             41.696
 Rotational               0.889              2.981             31.480
 Vibrational            185.540             47.889             39.858
 Vibration     1          0.595              1.978              4.823
 Vibration     2          0.602              1.954              3.604
 Vibration     3          0.605              1.947              3.401
 Vibration     4          0.613              1.919              2.885
 Vibration     5          0.621              1.892              2.557
 Vibration     6          0.638              1.839              2.128
 Vibration     7          0.648              1.807              1.941
 Vibration     8          0.660              1.771              1.767
 Vibration     9          0.680              1.711              1.534
 Vibration    10          0.682              1.704              1.513
 Vibration    11          0.695              1.666              1.394
 Vibration    12          0.711              1.620              1.271
 Vibration    13          0.728              1.572              1.160
 Vibration    14          0.733              1.559              1.131
 Vibration    15          0.795              1.396              0.845
 Vibration    16          0.798              1.387              0.832
 Vibration    17          0.812              1.353              0.785
 Vibration    18          0.834              1.299              0.716
 Vibration    19          0.847              1.269              0.680
 Vibration    20          0.872              1.213              0.617

 Optimization completed.
    -- Stationary point found.
 Normal termination of Gaussian 16 at Thu Dec 10 11:21:59 2020.

 ----------------------------------------------------------------------
 # B3LYP/6-311++G(d,p) empiricaldispersion=gd3bj scf=xqc pop=npa geom=c
 heck
 ----------------------------------------------------------------------

 ---------------------------------------
 CID_112545713_JID_4926_Energie_neutraal
 ---------------------------------------
 Structure from the checkpoint file:  "JID_4926.chk"
 Charge =  0 Multiplicity = 1

 SCF Done:  E(RB3LYP) =  -611.105794259     A.U. after   14 cycles
 Normal termination of Gaussian 16 at Thu Dec 10 11:25:40 2020.

 ----------------------------------------------------------------------
 # B3LYP/6-311++G(d,p) empiricaldispersion=gd3bj scf=xqc pop=npa geom=c
 heck
 ----------------------------------------------------------------------

 -------------------------------------
 CID_112545713_JID_4926_Energie_kation
 -------------------------------------
 Structure from the checkpoint file:  "JID_4926.chk"
 Charge =  1 Multiplicity = 2

 SCF Done:  E(UB3LYP) =  -610.823906609     A.U. after   22 cycles
 Normal termination of Gaussian 16 at Thu Dec 10 11:33:28 2020.
 Gaussian 16:  ES64L-G16RevA.03 25-Dec-2016

 ----------------------------------------------------------------------
 # B3LYP/6-311++G(d,p) empiricaldispersion=gd3bj scf=xqc pop=npa geom=c
 heck
 ----------------------------------------------------------------------

 ------------------------------------
 CID_112545713_JID_4926_Energie_anion
 ------------------------------------
 Structure from the checkpoint file:  "JID_4926.chk"
 Charge = -1 Multiplicity = 2

                         Standard orientation:
 ---------------------------------------------------------------------
 Center     Atomic      Atomic             Coordinates (Angstroms)
 Number     Number       Type             X           Y           Z
 ---------------------------------------------------------------------
      1          6           0       -3.245338   -0.854519   -1.129173
      2          6           0       -2.271720    0.323761   -1.001664
      3          6           0       -2.590988    1.185370    0.232091
      4          7           0       -2.132256    0.481525    1.426585
      5          6           0       -0.674909    0.384256    1.424235
      6          6           0       -0.211856   -0.511518    0.245009
      7          7           0       -0.860016   -0.109433   -1.034432
      8          6           0       -0.580916   -1.971078    0.562023
      9          6           0        1.286931   -0.382392    0.061488
     10          6           0        2.035408    0.772502   -0.173903
     11          7           0        3.327703    0.355125   -0.283127
     12          7           0        3.490095   -0.977744   -0.139387
     13          6           0        2.252446   -1.422349    0.066384
     14          6           0        1.692658    2.226260   -0.292561
     15          1           0       -2.902984   -1.540792   -1.908507
     16          1           0       -4.244571   -0.489299   -1.395713
     17          1           0       -3.333068   -1.403997   -0.189299
     18          1           0       -2.399557    0.951488   -1.892615
     19          1           0       -2.102251    2.175136    0.118213
     20          1           0       -3.671183    1.354851    0.307604
     21          1           0       -2.446611    0.964769    2.263703
     22          1           0       -0.339563   -0.058658    2.368265
     23          1           0       -0.201029    1.378523    1.338874
     24          1           0       -0.299594    0.615973   -1.467837
     25          1           0       -0.392914   -2.604418   -0.308632
     26          1           0        0.007404   -2.339878    1.409152
     27          1           0       -1.634352   -2.042902    0.832337
     28          1           0        4.139324    0.929346   -0.456903
     29          1           0        2.087672   -2.480991    0.208226
     30          1           0        1.753254    2.742402    0.673808
     31          1           0        2.375012    2.734353   -0.984231
     32          1           0        0.676030    2.366032   -0.667488
 ---------------------------------------------------------------------

 SCF Done:  E(UB3LYP) =  -611.096904637     A.U. after   29 cycles

 The electronic state is 2-A.
 Alpha  occ. eigenvalues --  -14.28030 -14.22736 -14.19760 -14.19178 -10.11463
 Alpha  occ. eigenvalues --  -10.11422 -10.09719 -10.08811 -10.08675 -10.08663
 Alpha  occ. eigenvalues --  -10.07539 -10.06779 -10.05524 -10.05510  -0.94430
 Alpha  occ. eigenvalues --   -0.83351  -0.77879  -0.72651  -0.71166  -0.66836
 Alpha  occ. eigenvalues --   -0.62873  -0.60579  -0.58491  -0.55004  -0.52344
 Alpha  occ. eigenvalues --   -0.50581  -0.47381  -0.43645  -0.41581  -0.40557
 Alpha  occ. eigenvalues --   -0.36765  -0.36118  -0.35984  -0.34567  -0.34430
 Alpha  occ. eigenvalues --   -0.33666  -0.32301  -0.31242  -0.30304  -0.30032
 Alpha  occ. eigenvalues --   -0.29277  -0.28947  -0.27709  -0.26354  -0.26124
 Alpha  occ. eigenvalues --   -0.23887  -0.23346  -0.22426  -0.19267  -0.15940
 Alpha  occ. eigenvalues --   -0.14326  -0.13772  -0.11437   0.04111
 Alpha virt. eigenvalues --    0.06362   0.07414   0.07972   0.08532   0.09379
 Alpha virt. eigenvalues --    0.09741   0.09936   0.10520   0.11130   0.11394
 Alpha virt. eigenvalues --    0.12152   0.12657   0.12921   0.13270   0.13763

  Beta  occ. eigenvalues --  -14.27998 -14.22731 -14.19739 -14.19166 -10.11464
  Beta  occ. eigenvalues --  -10.11422 -10.09709 -10.08796 -10.08675 -10.08635
  Beta  occ. eigenvalues --  -10.07468 -10.06776 -10.05514 -10.05505  -0.94405
  Beta  occ. eigenvalues --   -0.83324  -0.77849  -0.72617  -0.71142  -0.66798
  Beta  occ. eigenvalues --   -0.62845  -0.60498  -0.58455  -0.54957  -0.52316
  Beta  occ. eigenvalues --   -0.50539  -0.47350  -0.43585  -0.41532  -0.40500
  Beta  occ. eigenvalues --   -0.36725  -0.36095  -0.35959  -0.34527  -0.34401
  Beta  occ. eigenvalues --   -0.33622  -0.32265  -0.31214  -0.30254  -0.29984
  Beta  occ. eigenvalues --   -0.29254  -0.28917  -0.27689  -0.26332  -0.26096
  Beta  occ. eigenvalues --   -0.23863  -0.23323  -0.22395  -0.19249  -0.15924
  Beta  occ. eigenvalues --   -0.14296  -0.13743  -0.11410
  Beta virt. eigenvalues --    0.06581   0.07656   0.07997   0.08238   0.09205
  Beta virt. eigenvalues --    0.09801   0.10033   0.10411   0.10762   0.11286
  Beta virt. eigenvalues --    0.11857   0.12411   0.12866   0.13195   0.13522

 Mulliken charges and spin densities:
               1          2
     1  C    0.024973  -0.564768
     2  C   -0.743287   0.768212
     3  C    1.153208  -1.482044
     4  N   -0.283128   0.113753
     5  C   -0.519934  -0.212130
     6  C    0.084153  -0.275765
     7  N    0.074224   0.003087
     8  C   -0.441927  -0.277156
     9  C    1.306488  -0.893361
    10  C   -1.869218   1.448205
    11  N    0.039416  -0.002618
    12  N   -0.366422   0.102438
    13  C    0.046187   0.318369
    14  C    1.977299  -2.688681
    15  H    0.099111   0.042908
    16  H    0.014571   0.114785
    17  H    0.068054   0.070154
    18  H   -0.398604   0.582787
    19  H   -0.274985   0.400904
    20  H   -0.276663   0.456504
    21  H   -0.051958   0.310952
    22  H   -0.103194   0.293393
    23  H    0.268295  -0.141539
    24  H    0.192935   0.060839
    25  H    0.103814   0.045661
    26  H    0.145135  -0.028552
    27  H    0.202433  -0.054936
    28  H   -0.096394   0.435598
    29  H    0.115535   0.056248
    30  H   -0.583528   0.788529
    31  H   -0.674706   0.825401
    32  H   -0.231885   0.382826
 Sum of Mulliken charges =  -1.00000   1.00000

 Dipole moment (field-independent basis, Debye):
    X=             -2.3139    Y=             -6.0795    Z=              1.0940  Tot=              6.5963
 Quadrupole moment (field-independent basis, Debye-Ang):
   XX=           -155.6825   YY=           -135.5919   ZZ=           -119.6930
   XY=             -2.2028   XZ=              3.4760   YZ=              0.7651

 Summary of Natural Population Analysis:

                                       Natural Population
                Natural  -----------------------------------------------
    Atom  No    Charge         Core      Valence    Rydberg      Total
 -----------------------------------------------------------------------
      C    1   -0.28922      0.99964     2.28340    0.00618     3.28922
      C    2   -0.01591      0.99959     2.00236    0.01396     3.01591
      C    3   -0.09278      0.99960     2.08139    0.01179     3.09278
      N    4   -0.34607      0.99973     2.83388    0.01245     3.84607
      C    5   -0.08926      0.99957     2.07772    0.01197     3.08926
      C    6    0.05317      0.99953     1.93317    0.01413     2.94683
      N    7   -0.34735      0.99971     2.83539    0.01225     3.84735
      C    8   -0.28819      0.99963     2.28255    0.00601     3.28819
      C    9   -0.07720      0.99944     2.06474    0.01302     3.07720
      C   10    0.08716      0.99950     1.90112    0.01223     2.91284
      N   11   -0.16786      0.99965     2.65450    0.01371     3.66786
      N   12   -0.16059      0.99974     2.64751    0.01334     3.66059
      C   13   -0.00746      0.99957     1.99494    0.01295     3.00746
      C   14   -0.30631      0.99963     2.29965    0.00703     3.30631
      H   15    0.10120      0.00000     0.39789    0.00091     0.39880
      H   16    0.09544      0.00000     0.40378    0.00078     0.40456
      H   17    0.10001      0.00000     0.39887    0.00112     0.39999
      H   18    0.09558      0.00000     0.40321    0.00121     0.40442
      H   19    0.08267      0.00000     0.41469    0.00265     0.41733
      H   20    0.09587      0.00000     0.40273    0.00140     0.40413
      H   21    0.17738      0.00000     0.31988    0.00274     0.32262
      H   22    0.09650      0.00000     0.40239    0.00111     0.40350
      H   23    0.08564      0.00000     0.41216    0.00220     0.41436
      H   24    0.18115      0.00000     0.31567    0.00318     0.31885
      H   25    0.10246      0.00000     0.39663    0.00091     0.39754
      H   26    0.09627      0.00000     0.40294    0.00079     0.40373
      H   27    0.10694      0.00000     0.39197    0.00108     0.39306
      H   28    0.20008      0.00000     0.29618    0.00374     0.29992
      H   29    0.09729      0.00000     0.40174    0.00097     0.40271
      H   30    0.11244      0.00000     0.38522    0.00234     0.38756
      H   31    0.11100      0.00000     0.38574    0.00326     0.38900
      H   32    0.10994      0.00000     0.38765    0.00241     0.39006
 =======================================================================
   * Total *   -0.00000     13.99454    38.81165    0.19381    53.00000

 Normal termination of Gaussian 16 at Thu Dec 10 11:43:14 2020.
