 Gaussian 16, Revision A.03,

 -----------------------------------------------------------
 # opt freq B3LYP/6-31G(d) empiricaldispersion=gd3bj scf=xqc
 -----------------------------------------------------------

 -------------------------------
 CID_137425924_JID_4249_neutraal
 -------------------------------
 Symbolic Z-matrix:
 Charge =  0 Multiplicity = 1

 SCF Done:  E(RB3LYP) =  -614.522971743     A.U. after   12 cycles
 SCF Done:  E(RB3LYP) =  -614.528099941     A.U. after   10 cycles
 SCF Done:  E(RB3LYP) =  -614.528590799     A.U. after   10 cycles
 SCF Done:  E(RB3LYP) =  -614.528679396     A.U. after   10 cycles
 SCF Done:  E(RB3LYP) =  -614.528710664     A.U. after    9 cycles
 SCF Done:  E(RB3LYP) =  -614.528724899     A.U. after    9 cycles
 SCF Done:  E(RB3LYP) =  -614.528735726     A.U. after    9 cycles
 SCF Done:  E(RB3LYP) =  -614.528742036     A.U. after    9 cycles
 SCF Done:  E(RB3LYP) =  -614.528748138     A.U. after    9 cycles
 SCF Done:  E(RB3LYP) =  -614.528749203     A.U. after    7 cycles
 SCF Done:  E(RB3LYP) =  -614.528749735     A.U. after    7 cycles
 SCF Done:  E(RB3LYP) =  -614.528749870     A.U. after    7 cycles
 SCF Done:  E(RB3LYP) =  -614.528749851     A.U. after    6 cycles
 SCF Done:  E(RB3LYP) =  -614.528749828     A.U. after    6 cycles
 Optimization completed.
    -- Stationary point found.
 Normal termination of Gaussian 16 at Thu Dec 10 09:24:26 2020.

 --------------------------------------------------------------------
 #N Geom=AllCheck Guess=TCheck SCRF=Check GenChk RB3LYP/6-31G(d) Freq
 --------------------------------------------------------------------

 Structure from the checkpoint file:  "JID_4249.chk"
 -------------------------------
 CID_137425924_JID_4249_neutraal
 -------------------------------
 Charge =  0 Multiplicity = 1

 SCF Done:  E(RB3LYP) =  -614.528749828     A.U. after    1 cycles

  Exact polarizability: 162.209  -0.413 125.333  -1.941  -0.210 113.255
 Approx polarizability: 189.419   1.193 178.227  -2.751   1.322 174.643

                      1                      2                      3
                      A                      A                      A
 Frequencies --     25.5456                40.0893                61.6409
 Red. masses --      2.7582                 3.1030                 3.4776
 Frc consts  --      0.0011                 0.0029                 0.0078
 IR Inten    --      0.0781                 0.3345                 0.1625

                      4                      5                      6
                      A                      A                      A
 Frequencies --     90.7602               125.8350               130.6963
 Red. masses --      2.5841                 2.3171                 2.4746
 Frc consts  --      0.0125                 0.0216                 0.0249
 IR Inten    --      0.8318                 2.5752                 1.6104

                      7                      8                      9
                      A                      A                      A
 Frequencies --    178.5247               201.6006               217.8551
 Red. masses --      2.5183                 2.8338                 1.1157
 Frc consts  --      0.0473                 0.0679                 0.0312
 IR Inten    --      1.0367                 1.8772                 0.3764

                     10                     11                     12
                      A                      A                      A
 Frequencies --    236.0930               246.4116               249.9551
 Red. masses --      1.5650                 1.3765                 1.1931
 Frc consts  --      0.0514                 0.0492                 0.0439
 IR Inten    --      2.1296                 0.8793                 1.0650

                     13                     14                     15
                      A                      A                      A
 Frequencies --    260.8581               275.7412               317.1766
 Red. masses --      2.1441                 1.4658                 2.1957
 Frc consts  --      0.0860                 0.0657                 0.1301
 IR Inten    --      1.8653                 2.6193                 1.6954

                     16                     17                     18
                      A                      A                      A
 Frequencies --    332.0206               368.6807               388.4308
 Red. masses --      2.6420                 2.4406                 2.2739
 Frc consts  --      0.1716                 0.1955                 0.2021
 IR Inten    --      0.2004                 1.6991                10.0192

                     19                     20                     21
                      A                      A                      A
 Frequencies --    392.7885               423.0728               435.1961
 Red. masses --      2.4363                 2.3822                 2.5069
 Frc consts  --      0.2215                 0.2512                 0.2797
 IR Inten    --      2.4489                 0.6707                 0.8619

                     22                     23                     24
                      A                      A                      A
 Frequencies --    476.8920               487.1900               509.2838
 Red. masses --      2.0763                 2.4573                 2.5030
 Frc consts  --      0.2782                 0.3436                 0.3825
 IR Inten    --      3.0909                 3.2423                 3.3000

                     25                     26                     27
                      A                      A                      A
 Frequencies --    566.9606               618.6760               785.0107
 Red. masses --      3.7717                 2.5854                 1.2553
 Frc consts  --      0.7143                 0.5830                 0.4558
 IR Inten    --      8.5712                 4.5053                 0.7474

                     28                     29                     30
                      A                      A                      A
 Frequencies --    805.1172               822.2266               876.0739
 Red. masses --      3.1303                 2.9613                 3.7397
 Frc consts  --      1.1955                 1.1796                 1.6911
 IR Inten    --     14.4781                16.7890                 4.0614

                     31                     32                     33
                      A                      A                      A
 Frequencies --    884.2712               969.3846               985.4253
 Red. masses --      3.4622                 2.1764                 2.3702
 Frc consts  --      1.5951                 1.2050                 1.3561
 IR Inten    --     12.8233                 9.1565                31.1048

                     34                     35                     36
                      A                      A                      A
 Frequencies --   1016.7039              1033.5760              1050.4353
 Red. masses --      1.9251                 3.3475                 2.2308
 Frc consts  --      1.1725                 2.1070                 1.4503
 IR Inten    --     60.8988                23.4085                 8.9923

                     37                     38                     39
                      A                      A                      A
 Frequencies --   1063.8865              1070.6961              1077.8954
 Red. masses --      1.8469                 1.8324                 1.9806
 Frc consts  --      1.2316                 1.2377                 1.3558
 IR Inten    --     28.0357                29.0367                11.2414

                     40                     41                     42
                      A                      A                      A
 Frequencies --   1081.2139              1087.8235              1112.0832
 Red. masses --      1.9185                 1.8936                 2.4329
 Frc consts  --      1.3214                 1.3203                 1.7727
 IR Inten    --     26.2476                20.6314                23.9373

                     43                     44                     45
                      A                      A                      A
 Frequencies --   1134.6378              1145.6030              1165.7418
 Red. masses --      1.2652                 1.7508                 1.4053
 Frc consts  --      0.9596                 1.3538                 1.1252
 IR Inten    --      3.7982                54.3495                12.7635

                     46                     47                     48
                      A                      A                      A
 Frequencies --   1167.2449              1181.0382              1192.4400
 Red. masses --      1.5650                 2.2771                 1.8318
 Frc consts  --      1.2563                 1.8714                 1.5346
 IR Inten    --     11.1033                56.9991                16.1358

                     49                     50                     51
                      A                      A                      A
 Frequencies --   1207.7356              1227.4474              1267.3062
 Red. masses --      1.7783                 1.7076                 1.3833
 Frc consts  --      1.5283                 1.5158                 1.3090
 IR Inten    --      4.5435                18.5339                15.5523

                     52                     53                     54
                      A                      A                      A
 Frequencies --   1272.2742              1284.9015              1313.5465
 Red. masses --      2.1371                 2.8731                 2.3886
 Frc consts  --      2.0382                 2.7948                 2.4282
 IR Inten    --     10.7347                45.5166                37.4004

                     55                     56                     57
                      A                      A                      A
 Frequencies --   1314.0386              1329.4472              1354.3335
 Red. masses --      1.9170                 1.5620                 1.1877
 Frc consts  --      1.9502                 1.6265                 1.2836
 IR Inten    --     40.2512                15.0542                16.2441

                     58                     59                     60
                      A                      A                      A
 Frequencies --   1374.9190              1379.6901              1386.6309
 Red. masses --      1.3265                 1.3400                 1.4674
 Frc consts  --      1.4775                 1.5028                 1.6624
 IR Inten    --     25.2248                46.9196                12.4636

                     61                     62                     63
                      A                      A                      A
 Frequencies --   1407.2063              1415.2456              1437.5172
 Red. masses --      1.2701                 1.4340                 1.3561
 Frc consts  --      1.4819                 1.6922                 1.6510
 IR Inten    --      6.6447                 6.1043                39.7832

                     64                     65                     66
                      A                      A                      A
 Frequencies --   1443.6436              1447.3640              1455.2751
 Red. masses --      1.3275                 1.4048                 1.2390
 Frc consts  --      1.6300                 1.7339                 1.5460
 IR Inten    --     24.4896                 0.0218                 9.3430

                     67                     68                     69
                      A                      A                      A
 Frequencies --   1469.8441              1480.4988              1489.1523
 Red. masses --      1.1641                 1.1588                 1.1717
 Frc consts  --      1.4818                 1.4965                 1.5310
 IR Inten    --      2.9160                 2.9429                 3.9302

                     70                     71                     72
                      A                      A                      A
 Frequencies --   1496.4914              1508.3202              1510.4180
 Red. masses --      1.1597                 1.0880                 1.0604
 Frc consts  --      1.5302                 1.4583                 1.4253
 IR Inten    --      1.4473                 0.7662                 1.4541

                     73                     74                     75
                      A                      A                      A
 Frequencies --   1514.2756              1516.6709              1517.2134
 Red. masses --      1.0580                 1.0908                 1.0843
 Frc consts  --      1.4293                 1.4784                 1.4706
 IR Inten    --     18.8817                 7.9126                14.1167

                     76                     77                     78
                      A                      A                      A
 Frequencies --   1521.9182              1522.7795              1529.6929
 Red. masses --      1.0657                 1.1099                 1.0549
 Frc consts  --      1.4543                 1.5164                 1.4544
 IR Inten    --      0.8260                 2.7138                 5.1585

                     79                     80                     81
                      A                      A                      A
 Frequencies --   1532.1761              1533.7026              1538.3623
 Red. masses --      1.0787                 1.0913                 1.0509
 Frc consts  --      1.4920                 1.5124                 1.4653
 IR Inten    --     17.3159                13.2718                 4.1788

                     82                     83                     84
                      A                      A                      A
 Frequencies --   1540.4825              1546.0240              1548.4478
 Red. masses --      1.0530                 1.0623                 1.0931
 Frc consts  --      1.4722                 1.4960                 1.5443
 IR Inten    --     11.4511                 1.2517                21.0950

                     85                     86                     87
                      A                      A                      A
 Frequencies --   2924.6226              2925.0268              2925.3977
 Red. masses --      1.0709                 1.0630                 1.0682
 Frc consts  --      5.3969                 5.3586                 5.3860
 IR Inten    --     36.8375                35.3058                47.5963

                     88                     89                     90
                      A                      A                      A
 Frequencies --   2926.9954              2939.7582              2940.9757
 Red. masses --      1.0696                 1.0657                 1.0662
 Frc consts  --      5.3991                 5.4261                 5.4336
 IR Inten    --     23.5744               166.6451               100.0254

                     91                     92                     93
                      A                      A                      A
 Frequencies --   2965.1919              3011.3087              3019.6595
 Red. masses --      1.0701                 1.0633                 1.0445
 Frc consts  --      5.5437                 5.6810                 5.6114
 IR Inten    --    102.5869               117.7777                23.4576

                     94                     95                     96
                      A                      A                      A
 Frequencies --   3023.3092              3039.2942              3063.4830
 Red. masses --      1.0898                 1.0631                 1.0907
 Frc consts  --      5.8690                 5.7861                 6.0307
 IR Inten    --     45.9780                44.2960                47.3438

                     97                     98                     99
                      A                      A                      A
 Frequencies --   3067.3803              3074.5407              3076.4567
 Red. masses --      1.0966                 1.0703                 1.0715
 Frc consts  --      6.0792                 5.9609                 5.9753
 IR Inten    --     23.3850                46.7127                41.4270

                    100                    101                    102
                      A                      A                      A
 Frequencies --   3078.5847              3080.7474              3084.6644
 Red. masses --      1.0909                 1.0928                 1.0867
 Frc consts  --      6.0915                 6.1109                 6.0925
 IR Inten    --     31.9326                30.7850                35.9371

                    103                    104                    105
                      A                      A                      A
 Frequencies --   3089.1697              3098.4107              3115.1001
 Red. masses --      1.0727                 1.0954                 1.1025
 Frc consts  --      6.0312                 6.1958                 6.3036
 IR Inten    --     34.8403                57.0996                48.4331

                    106                    107                    108
                      A                      A                      A
 Frequencies --   3120.1512              3121.0408              3136.5194
 Red. masses --      1.1032                 1.1037                 1.1008
 Frc consts  --      6.3277                 6.3344                 6.3805
 IR Inten    --     39.2507                37.0234                36.6363

 - Thermochemistry -
 -------------------
 Temperature   298.150 Kelvin.  Pressure   1.00000 Atm.
 Atom     1 has atomic number  6 and mass  12.00000

 Molecular mass:   200.20010 amu.
 Principal axes and moments of inertia in atomic units:
                           1         2         3
     Eigenvalues --  1287.794805588.848746029.23154
           X            0.99999  -0.00279   0.00366
           Y            0.00283   0.99993  -0.01173
           Z           -0.00363   0.01174   0.99992
 This molecule is an asymmetric top.
 Rotational symmetry number  1.
 Warning -- assumption of classical behavior for rotation
           may cause significant error
 Rotational temperatures (Kelvin)      0.06726     0.01550     0.01437
 Rotational constants (GHZ):           1.40142     0.32292     0.29933
 Zero-point vibrational energy     926204.4 (Joules/Mol)
                                  221.36817 (Kcal/Mol)
 Warning -- explicit consideration of  26 degrees of freedom as
           vibrations may cause significant error
 Vibrational temperatures:     36.75    57.68    88.69   130.58   181.05
          (Kelvin)            188.04   256.86   290.06   313.44   339.69
                              354.53   359.63   375.32   396.73   456.35
                              477.70   530.45   558.87   565.14   608.71
                              626.15   686.14   700.96   732.75   815.73
                              890.14  1129.46  1158.38  1183.00  1260.47
                             1272.27  1394.73  1417.81  1462.81  1487.09
                             1511.34  1530.70  1540.49  1550.85  1555.63
                             1565.14  1600.04  1632.49  1648.27  1677.24
                             1679.41  1699.25  1715.66  1737.66  1766.02
                             1823.37  1830.52  1848.69  1889.90  1890.61
                             1912.78  1948.58  1978.20  1985.07  1995.05
                             2024.66  2036.22  2068.27  2077.08  2082.43
                             2093.82  2114.78  2130.11  2142.56  2153.12
                             2170.14  2173.15  2178.70  2182.15  2182.93
                             2189.70  2190.94  2200.89  2204.46  2206.66
                             2213.36  2216.41  2224.38  2227.87  4207.88
                             4208.46  4208.99  4211.29  4229.66  4231.41
                             4266.25  4332.60  4344.62  4349.87  4372.87
                             4407.67  4413.28  4423.58  4426.34  4429.40
                             4432.51  4438.14  4444.63  4457.92  4481.93
                             4489.20  4490.48  4512.75

 Zero-point correction=                           0.352773 (Hartree/Particle)
 Thermal correction to Energy=                    0.368771
 Thermal correction to Enthalpy=                  0.369716
 Thermal correction to Gibbs Free Energy=         0.309221
 Sum of electronic and zero-point Energies=           -614.175977
 Sum of electronic and thermal Energies=              -614.159978
 Sum of electronic and thermal Enthalpies=            -614.159034
 Sum of electronic and thermal Free Energies=         -614.219529

                     E (Thermal)             CV                S
                      KCal/Mol        Cal/Mol-Kelvin    Cal/Mol-Kelvin
 Total                  231.408             60.056            127.321
 Electronic               0.000              0.000              0.000
 Translational            0.889              2.981             41.787
 Rotational               0.889              2.981             32.140
 Vibrational            229.630             54.095             53.394
 Vibration     1          0.593              1.985              6.148
 Vibration     2          0.594              1.981              5.255
 Vibration     3          0.597              1.973              4.404
 Vibration     4          0.602              1.956              3.644
 Vibration     5          0.611              1.927              3.009
 Vibration     6          0.612              1.923              2.936
 Vibration     7          0.629              1.869              2.344
 Vibration     8          0.638              1.838              2.118
 Vibration     9          0.646              1.814              1.977
 Vibration    10          0.655              1.786              1.832
 Vibration    11          0.661              1.769              1.756
 Vibration    12          0.663              1.763              1.731
 Vibration    13          0.669              1.744              1.656
 Vibration    14          0.677              1.718              1.560
 Vibration    15          0.704              1.641              1.325
 Vibration    16          0.714              1.612              1.250
 Vibration    17          0.741              1.537              1.085
 Vibration    18          0.757              1.495              1.006
 Vibration    19          0.760              1.486              0.990
 Vibration    20          0.785              1.420              0.882
 Vibration    21          0.796              1.394              0.842
 Vibration    22          0.833              1.301              0.718
 Vibration    23          0.843              1.278              0.691
 Vibration    24          0.864              1.229              0.635
 Vibration    25          0.923              1.103              0.510
 Vibration    26          0.979              0.992              0.419

                           ! Non-Optimized Parameters !
 Normal termination of Gaussian 16 at Thu Dec 10 09:36:44 2020.

 ----------------------------------------------------------------------
 # B3LYP/6-311++G(d,p) empiricaldispersion=gd3bj scf=xqc pop=npa geom=c
 heck
 ----------------------------------------------------------------------

 ---------------------------------------
 CID_137425924_JID_4249_Energie_neutraal
 ---------------------------------------
 Structure from the checkpoint file:  "JID_4249.chk"
 Charge =  0 Multiplicity = 1

 SCF Done:  E(RB3LYP) =  -614.699907498     A.U. after   13 cycles
 Normal termination of Gaussian 16 at Thu Dec 10 09:42:37 2020.

 ----------------------------------------------------------------------
 # B3LYP/6-311++G(d,p) empiricaldispersion=gd3bj scf=xqc pop=npa geom=c
 heck
 ----------------------------------------------------------------------

 -------------------------------------
 CID_137425924_JID_4249_Energie_kation
 -------------------------------------
 Structure from the checkpoint file:  "JID_4249.chk"
 Charge =  1 Multiplicity = 2

 SCF Done:  E(UB3LYP) =  -614.441701295     A.U. after   23 cycles
 Normal termination of Gaussian 16 at Thu Dec 10 09:57:55 2020.
 Gaussian 16:  ES64L-G16RevA.03 25-Dec-2016

 ----------------------------------------------------------------------
 # B3LYP/6-311++G(d,p) empiricaldispersion=gd3bj scf=xqc pop=npa geom=c
 heck
 ----------------------------------------------------------------------

 ------------------------------------
 CID_137425924_JID_4249_Energie_anion
 ------------------------------------
 Structure from the checkpoint file:  "JID_4249.chk"
 Charge = -1 Multiplicity = 2

                         Standard orientation:
 ---------------------------------------------------------------------
 Center     Atomic      Atomic             Coordinates (Angstroms)
 Number     Number       Type             X           Y           Z
 ---------------------------------------------------------------------
      1          6           0        4.254407   -0.576546   -0.989804
      2          7           0        2.873295   -0.273924   -0.639756
      3          6           0        2.199721   -1.439803   -0.065543
      4          6           0        0.672256   -1.357467   -0.112616
      5          7           0        0.054865   -0.591523    0.957251
      6          6           0        0.715620    0.617797    1.451807
      7          7           0        1.507542    1.406399    0.529329
      8          6           0        2.821866    0.894037    0.249741
      9          6           0        0.804276    1.978543   -0.605325
     10          6           0       -1.395506   -0.644536    1.000269
     11          6           0       -2.134920    0.147202   -0.093896
     12          7           0       -3.588271    0.027771    0.014265
     13          6           0       -4.261954    1.086769   -0.723144
     14          6           0       -4.071037   -1.276523   -0.418230
     15          1           0        4.878570   -0.860873   -0.119448
     16          1           0        4.714262    0.299744   -1.459686
     17          1           0        4.282849   -1.401450   -1.709098
     18          1           0        2.488249   -2.304779   -0.672312
     19          1           0        2.536273   -1.649938    0.969538
     20          1           0        0.281223   -2.382711   -0.039071
     21          1           0        0.409176   -0.995104   -1.122055
     22          1           0        1.399301    0.357271    2.272604
     23          1           0       -0.066852    1.258076    1.876549
     24          1           0        3.299766    0.663598    1.222520
     25          1           0        3.410284    1.686137   -0.228985
     26          1           0        0.433570    1.239348   -1.330227
     27          1           0       -0.048889    2.562737   -0.242414
     28          1           0        1.478438    2.659276   -1.136236
     29          1           0       -1.685456   -1.701948    0.953621
     30          1           0       -1.740562   -0.277350    1.973825
     31          1           0       -1.881583    1.205863    0.022197
     32          1           0       -1.774275   -0.155432   -1.096789
     33          1           0       -4.061442    1.055882   -1.812940
     34          1           0       -5.344882    1.005339   -0.578137
     35          1           0       -3.940145    2.063377   -0.346441
     36          1           0       -3.846547   -1.485606   -1.483812
     37          1           0       -3.624987   -2.072424    0.183749
     38          1           0       -5.156744   -1.326932   -0.284131
 ---------------------------------------------------------------------

 SCF Done:  E(UB3LYP) =  -614.684990643     A.U. after   26 cycles

 The electronic state is 2-A.
 Alpha  occ. eigenvalues --  -14.21197 -14.21009 -14.20837 -14.19941 -10.12387
 Alpha  occ. eigenvalues --  -10.12158 -10.09769 -10.09545 -10.09542 -10.09227
 Alpha  occ. eigenvalues --  -10.09105 -10.09079 -10.09043 -10.08888  -0.86599
 Alpha  occ. eigenvalues --   -0.83131  -0.81558  -0.79436  -0.66369  -0.63922
 Alpha  occ. eigenvalues --   -0.61676  -0.61139  -0.60343  -0.56424  -0.54219
 Alpha  occ. eigenvalues --   -0.49276  -0.48274  -0.46591  -0.41530  -0.40471
 Alpha  occ. eigenvalues --   -0.39443  -0.39099  -0.37883  -0.36521  -0.36296
 Alpha  occ. eigenvalues --   -0.34580  -0.33868  -0.33077  -0.32305  -0.30814
 Alpha  occ. eigenvalues --   -0.30599  -0.29821  -0.29077  -0.28581  -0.27961
 Alpha  occ. eigenvalues --   -0.27614  -0.27267  -0.26677  -0.26388  -0.25346
 Alpha  occ. eigenvalues --   -0.24773  -0.23915  -0.14047  -0.12920  -0.12611
 Alpha  occ. eigenvalues --   -0.10089   0.04241
 Alpha virt. eigenvalues --    0.05849   0.06703   0.07522   0.07897   0.07982
 Alpha virt. eigenvalues --    0.08980   0.09518   0.09809   0.10002   0.10313
 Alpha virt. eigenvalues --    0.11323   0.11459   0.11781   0.12284   0.12444

  Beta  occ. eigenvalues --  -14.21187 -14.21008 -14.20825 -14.19943 -10.12375
  Beta  occ. eigenvalues --  -10.12142 -10.09753 -10.09533 -10.09531 -10.09195
  Beta  occ. eigenvalues --  -10.09077 -10.09068 -10.09013 -10.08866  -0.86586
  Beta  occ. eigenvalues --   -0.83109  -0.81540  -0.79422  -0.66345  -0.63895
  Beta  occ. eigenvalues --   -0.61639  -0.61090  -0.60312  -0.56370  -0.54176
  Beta  occ. eigenvalues --   -0.49219  -0.48224  -0.46554  -0.41509  -0.40436
  Beta  occ. eigenvalues --   -0.39422  -0.39073  -0.37852  -0.36484  -0.36270
  Beta  occ. eigenvalues --   -0.34551  -0.33841  -0.33040  -0.32276  -0.30782
  Beta  occ. eigenvalues --   -0.30575  -0.29790  -0.29049  -0.28554  -0.27932
  Beta  occ. eigenvalues --   -0.27584  -0.27235  -0.26653  -0.26361  -0.25306
  Beta  occ. eigenvalues --   -0.24747  -0.23898  -0.14028  -0.12859  -0.12570
  Beta  occ. eigenvalues --   -0.10081
  Beta virt. eigenvalues --    0.06198   0.06740   0.07422   0.07810   0.08382
  Beta virt. eigenvalues --    0.08626   0.09223   0.09862   0.10277   0.10315
  Beta virt. eigenvalues --    0.10592   0.11544   0.11657   0.12005   0.12607

 Mulliken charges and spin densities:
               1          2
     1  C    0.544876  -0.880910
     2  N   -0.028195   0.226363
     3  C    0.006912  -0.579030
     4  C   -0.097826  -0.151692
     5  N    0.148723   0.076023
     6  C    0.010715  -0.486835
     7  N   -0.072346   0.155550
     8  C   -0.042658  -0.397156
     9  C    0.251270  -0.535811
    10  C   -0.264937  -0.159022
    11  C   -1.318792   0.695654
    12  N    0.112605   0.090878
    13  C    0.606571  -0.901077
    14  C    0.569459  -0.890066
    15  H   -0.115770   0.229299
    16  H   -0.277400   0.406547
    17  H   -0.318273   0.450061
    18  H   -0.216925   0.397700
    19  H    0.122141   0.009167
    20  H   -0.275501   0.401018
    21  H    0.180792  -0.026937
    22  H    0.011890   0.129011
    23  H    0.028056   0.150620
    24  H   -0.032870   0.134224
    25  H    0.001414   0.166199
    26  H    0.065240   0.069661
    27  H   -0.245118   0.393348
    28  H   -0.239364   0.380622
    29  H    0.278153  -0.105934
    30  H    0.014150   0.148672
    31  H    0.770369  -0.597237
    32  H    0.082548   0.028886
    33  H   -0.126165   0.238056
    34  H   -0.230498   0.353636
    35  H   -0.394410   0.516126
    36  H   -0.163019   0.271882
    37  H   -0.211330   0.316532
    38  H   -0.134487   0.275973
 Sum of Mulliken charges =  -1.00000   1.00000

 Dipole moment (field-independent basis, Debye):
    X=              0.8897    Y=             -0.1653    Z=              2.7546  Tot=              2.8995
 Quadrupole moment (field-independent basis, Debye-Ang):
   XX=           -190.3548   YY=           -137.5524   ZZ=           -126.2570
   XY=              3.5484   XZ=              2.7789   YZ=             -1.3773

 Summary of Natural Population Analysis:

                                       Natural Population
                Natural  -----------------------------------------------
    Atom  No    Charge         Core      Valence    Rydberg      Total
 -----------------------------------------------------------------------
      C    1   -0.17780      0.99965     2.16936    0.00880     3.17780
      N    2   -0.28865      0.99971     2.77611    0.01282     3.78865
      C    3   -0.09131      0.99960     2.08011    0.01159     3.09131
      C    4   -0.08443      0.99960     2.07304    0.01179     3.08443
      N    5   -0.29589      0.99971     2.78410    0.01208     3.79589
      C    6    0.01751      0.99960     1.96877    0.01413     2.98249
      N    7   -0.28354      0.99972     2.77013    0.01368     3.78354
      C    8    0.01776      0.99959     1.96792    0.01473     2.98224
      C    9   -0.17624      0.99963     2.16758    0.00903     3.17624
      C   10   -0.07881      0.99960     2.06903    0.01019     3.07881
      C   11   -0.09377      0.99960     2.08388    0.01029     3.09377
      N   12   -0.27941      0.99973     2.76618    0.01350     3.77941
      C   13   -0.17538      0.99965     2.16701    0.00872     3.17538
      C   14   -0.17839      0.99964     2.16991    0.00884     3.17839
      H   15    0.07918      0.00000     0.41939    0.00143     0.42082
      H   16    0.09622      0.00000     0.40245    0.00133     0.40378
      H   17    0.09765      0.00000     0.40095    0.00140     0.40235
      H   18    0.10148      0.00000     0.39718    0.00134     0.39852
      H   19    0.08209      0.00000     0.41629    0.00162     0.41791
      H   20    0.09490      0.00000     0.40371    0.00139     0.40510
      H   21    0.08530      0.00000     0.41231    0.00238     0.41470
      H   22    0.08803      0.00000     0.41070    0.00127     0.41197
      H   23    0.09290      0.00000     0.40596    0.00114     0.40710
      H   24    0.07914      0.00000     0.41933    0.00154     0.42086
      H   25    0.09359      0.00000     0.40499    0.00142     0.40641
      H   26    0.08693      0.00000     0.41100    0.00206     0.41307
      H   27    0.09289      0.00000     0.40577    0.00134     0.40711
      H   28    0.09620      0.00000     0.40284    0.00097     0.40380
      H   29    0.09195      0.00000     0.40645    0.00160     0.40805
      H   30    0.09437      0.00000     0.40406    0.00158     0.40563
      H   31    0.09432      0.00000     0.40333    0.00235     0.40568
      H   32    0.08024      0.00000     0.41780    0.00196     0.41976
      H   33    0.08002      0.00000     0.41855    0.00143     0.41998
      H   34    0.09441      0.00000     0.40432    0.00126     0.40559
      H   35    0.09598      0.00000     0.40256    0.00146     0.40402
      H   36    0.08032      0.00000     0.41822    0.00146     0.41968
      H   37    0.09481      0.00000     0.40373    0.00145     0.40519
      H   38    0.09544      0.00000     0.40336    0.00120     0.40456
 =======================================================================
   * Total *    0.00000     13.99504    41.80839    0.19657    56.00000

 Normal termination of Gaussian 16 at Thu Dec 10 10:14:48 2020.
