 Gaussian 16, Revision A.03,

 -----------------------------------------------------------
 # opt freq B3LYP/6-31G(d) empiricaldispersion=gd3bj scf=xqc
 -----------------------------------------------------------

 -------------------------------
 CID_150341925_JID_3129_neutraal
 -------------------------------
 Symbolic Z-matrix:
 Charge =  0 Multiplicity = 1

 SCF Done:  E(RB3LYP) =  -658.171740380     A.U. after   18 cycles
 SCF Done:  E(RB3LYP) =  -658.178564099     A.U. after   16 cycles
 SCF Done:  E(RB3LYP) =  -658.179633574     A.U. after   14 cycles
 SCF Done:  E(RB3LYP) =  -658.180492262     A.U. after   13 cycles
 SCF Done:  E(RB3LYP) =  -658.180665127     A.U. after   13 cycles
 SCF Done:  E(RB3LYP) =  -658.180945793     A.U. after   12 cycles
 SCF Done:  E(RB3LYP) =  -658.181278544     A.U. after   13 cycles
 SCF Done:  E(RB3LYP) =  -658.180957128     A.U. after   16 cycles
 SCF Done:  E(RB3LYP) =  -658.182074402     A.U. after   13 cycles
 SCF Done:  E(RB3LYP) =  -658.182377967     A.U. after   13 cycles
 SCF Done:  E(RB3LYP) =  -658.182710078     A.U. after   11 cycles
 SCF Done:  E(RB3LYP) =  -658.182714687     A.U. after   10 cycles
 SCF Done:  E(RB3LYP) =  -658.182714962     A.U. after   10 cycles
 SCF Done:  E(RB3LYP) =  -658.182715177     A.U. after    9 cycles
 SCF Done:  E(RB3LYP) =  -658.182715221     A.U. after    8 cycles
 Optimization completed.
    -- Stationary point found.
 Normal termination of Gaussian 16 at Wed Dec  9 22:28:43 2020.

 --------------------------------------------------------------------
 #N Geom=AllCheck Guess=TCheck SCRF=Check GenChk RB3LYP/6-31G(d) Freq
 --------------------------------------------------------------------

 Structure from the checkpoint file:  "JID_3129.chk"
 -------------------------------
 CID_150341925_JID_3129_neutraal
 -------------------------------
 Charge =  0 Multiplicity = 1

 SCF Done:  E(RB3LYP) =  -658.182715221     A.U. after    1 cycles

  Exact polarizability: 153.632 -22.966  88.512   3.633  -0.176  67.275
 Approx polarizability: 237.458 -74.632 167.872   7.988  -1.417 102.062

                      1                      2                      3
                      A                      A                      A
 Frequencies --     26.1380                48.3011                68.4519
 Red. masses --      6.1952                 5.8966                 6.8571
 Frc consts  --      0.0025                 0.0081                 0.0189
 IR Inten    --      1.1263                 1.7637                 0.4585

                      4                      5                      6
                      A                      A                      A
 Frequencies --     94.5690               109.1728               132.4518
 Red. masses --      5.3750                 3.6411                 6.4928
 Frc consts  --      0.0283                 0.0256                 0.0671
 IR Inten    --      0.8320                 0.3152                 3.0517

                      7                      8                      9
                      A                      A                      A
 Frequencies --    184.4291               231.7262               285.3587
 Red. masses --      2.5674                 1.5976                 2.4813
 Frc consts  --      0.0515                 0.0505                 0.1190
 IR Inten    --      5.4027                 2.9470                 1.0930

                     10                     11                     12
                      A                      A                      A
 Frequencies --    328.1111               342.8489               406.6052
 Red. masses --      3.4888                 7.1700                 3.9883
 Frc consts  --      0.2213                 0.4966                 0.3885
 IR Inten    --     13.6795                 2.4720                 2.2057

                     13                     14                     15
                      A                      A                      A
 Frequencies --    415.3975               485.5570               490.7335
 Red. masses --      4.0535                 3.6595                 3.2962
 Frc consts  --      0.4121                 0.5083                 0.4677
 IR Inten    --     13.0181                 2.2901                15.8989

                     16                     17                     18
                      A                      A                      A
 Frequencies --    526.0046               540.0382               574.9452
 Red. masses --     11.5521                 5.3512                 5.2805
 Frc consts  --      1.8832                 0.9195                 1.0284
 IR Inten    --      3.7262                 9.8499                 3.4679

                     19                     20                     21
                      A                      A                      A
 Frequencies --    631.7657               682.6156               743.1485
 Red. masses --      2.0399                 2.4459                 6.5194
 Frc consts  --      0.4797                 0.6715                 2.1213
 IR Inten    --     38.6650                75.0980                 2.9798

                     22                     23                     24
                      A                      A                      A
 Frequencies --    780.5658               809.0818               838.1579
 Red. masses --      3.6751                 1.2989                 4.7055
 Frc consts  --      1.3193                 0.5010                 1.9476
 IR Inten    --      0.2502                21.3104                 7.7645

                     25                     26                     27
                      A                      A                      A
 Frequencies --    886.6274               936.2014               953.2765
 Red. masses --      7.5872                 2.1662                 9.4637
 Frc consts  --      3.5141                 1.1186                 5.0670
 IR Inten    --      8.2960                20.6804               145.4973

                     28                     29                     30
                      A                      A                      A
 Frequencies --    956.9575              1021.4310              1055.4195
 Red. masses --      4.0147                 2.0592                 2.2721
 Frc consts  --      2.1661                 1.2658                 1.4911
 IR Inten    --      6.2666                 8.4240                 4.9797

                     31                     32                     33
                      A                      A                      A
 Frequencies --   1078.8860              1129.6760              1193.9071
 Red. masses --      2.0652                 1.7207                 1.3807
 Frc consts  --      1.4163                 1.2938                 1.1595
 IR Inten    --     13.5931                 5.9328                 6.9150

                     34                     35                     36
                      A                      A                      A
 Frequencies --   1197.4277              1214.4565              1304.7653
 Red. masses --      2.2945                 2.9154                 1.6436
 Frc consts  --      1.9384                 2.5335                 1.6486
 IR Inten    --     16.7809                21.8047                38.8155

                     37                     38                     39
                      A                      A                      A
 Frequencies --   1311.5774              1328.6828              1336.7806
 Red. masses --      1.4316                 1.4965                 1.3834
 Frc consts  --      1.4509                 1.5566                 1.4566
 IR Inten    --     94.6083                 9.4860                13.6874

                     40                     41                     42
                      A                      A                      A
 Frequencies --   1396.4844              1429.9129              1436.5857
 Red. masses --      1.3806                 4.5680                 2.0239
 Frc consts  --      1.5863                 5.5029                 2.4610
 IR Inten    --     40.3757               264.3238                14.0710

                     43                     44                     45
                      A                      A                      A
 Frequencies --   1439.4313              1496.7160              1507.3331
 Red. masses --      1.3967                 1.1236                 1.5031
 Frc consts  --      1.7051                 1.4830                 2.0121
 IR Inten    --      5.1878                16.7013                43.5965

                     46                     47                     48
                      A                      A                      A
 Frequencies --   1522.3037              1526.4091              1539.7642
 Red. masses --      1.1901                 1.1109                 1.0801
 Frc consts  --      1.6249                 1.5250                 1.5087
 IR Inten    --     23.8939                 4.6595                 4.5562

                     49                     50                     51
                      A                      A                      A
 Frequencies --   1679.8421              1779.6333              2279.2730
 Red. masses --      9.8969                 7.9992                13.9901
 Frc consts  --     16.4545                14.9265                42.8218
 IR Inten    --     57.7272               305.3817               693.5010

                     52                     53                     54
                      A                      A                      A
 Frequencies --   3055.2458              3062.1761              3070.7819
 Red. masses --      1.0399                 1.0689                 1.0631
 Frc consts  --      5.7194                 5.9056                 5.9063
 IR Inten    --     23.6813                48.4586                18.1773

                     55                     56                     57
                      A                      A                      A
 Frequencies --   3103.3922              3116.1859              3127.1987
 Red. masses --      1.0863                 1.1014                 1.1020
 Frc consts  --      6.1640                 6.3015                 6.3494
 IR Inten    --     14.5429                20.9500                 5.7182

                     58                     59                     60
                      A                      A                      A
 Frequencies --   3147.6049              3160.4579              3581.0293
 Red. masses --      1.0935                 1.1021                 1.0754
 Frc consts  --      6.3833                 6.4859                 8.1251
 IR Inten    --     16.7467                23.2629                21.2456

 - Thermochemistry -
 -------------------
 Temperature   298.150 Kelvin.  Pressure   1.00000 Atm.
 Atom     1 has atomic number  6 and mass  12.00000

 Molecular mass:   183.07562 amu.
 Principal axes and moments of inertia in atomic units:
                           1         2         3
     Eigenvalues --   990.666744113.522654684.40180
           X            0.99984  -0.01549  -0.00918
           Y            0.01572   0.99953   0.02639
           Z            0.00876  -0.02653   0.99961
 This molecule is an asymmetric top.
 Rotational symmetry number  1.
 Warning -- assumption of classical behavior for rotation
           may cause significant error
 Rotational temperatures (Kelvin)      0.08743     0.02106     0.01849
 Rotational constants (GHZ):           1.82174     0.43873     0.38527
 Zero-point vibrational energy     443455.7 (Joules/Mol)
                                  105.98846 (Kcal/Mol)
 Warning -- explicit consideration of  18 degrees of freedom as
           vibrations may cause significant error
 Vibrational temperatures:     37.61    69.49    98.49   136.06   157.08
          (Kelvin)            190.57   265.35   333.40   410.57   472.08
                              493.28   585.01   597.66   698.61   706.06
                              756.80   776.99   827.22   908.97   982.13
                             1069.22  1123.06  1164.09  1205.92  1275.66
                             1346.99  1371.55  1376.85  1469.61  1518.51
                             1552.28  1625.35  1717.77  1722.83  1747.33
                             1877.27  1887.07  1911.68  1923.33  2009.23
                             2057.33  2066.93  2071.02  2153.44  2168.72
                             2190.26  2196.16  2215.38  2416.92  2560.50
                             3279.37  4395.82  4405.79  4418.17  4465.09
                             4483.50  4499.34  4528.70  4547.19  5152.30

 Zero-point correction=                           0.168903 (Hartree/Particle)
 Thermal correction to Energy=                    0.181363
 Thermal correction to Enthalpy=                  0.182307
 Thermal correction to Gibbs Free Energy=         0.128379
 Sum of electronic and zero-point Energies=           -658.013812
 Sum of electronic and thermal Energies=              -658.001353
 Sum of electronic and thermal Enthalpies=            -658.000408
 Sum of electronic and thermal Free Energies=         -658.054336

                     E (Thermal)             CV                S
                      KCal/Mol        Cal/Mol-Kelvin    Cal/Mol-Kelvin
 Total                  113.807             44.678            113.500
 Electronic               0.000              0.000              0.000
 Translational            0.889              2.981             41.521
 Rotational               0.889              2.981             31.324
 Vibrational            112.029             38.717             40.655
 Vibration     1          0.593              1.985              6.103
 Vibration     2          0.595              1.978              4.886
 Vibration     3          0.598              1.969              4.197
 Vibration     4          0.603              1.953              3.563
 Vibration     5          0.606              1.942              3.284
 Vibration     6          0.613              1.921              2.910
 Vibration     7          0.631              1.861              2.283
 Vibration     8          0.653              1.792              1.866
 Vibration     9          0.683              1.701              1.501
 Vibration    10          0.711              1.619              1.269
 Vibration    11          0.722              1.590              1.199
 Vibration    12          0.771              1.456              0.939
 Vibration    13          0.779              1.437              0.908
 Vibration    14          0.842              1.282              0.695
 Vibration    15          0.847              1.271              0.682
 Vibration    16          0.881              1.192              0.596
 Vibration    17          0.895              1.162              0.565
 Vibration    18          0.931              1.085              0.495

 Optimization completed.
    -- Stationary point found.
 Normal termination of Gaussian 16 at Wed Dec  9 22:33:30 2020.

 ----------------------------------------------------------------------
 # B3LYP/6-311++G(d,p) empiricaldispersion=gd3bj scf=xqc pop=npa geom=c
 heck
 ----------------------------------------------------------------------

 ---------------------------------------
 CID_150341925_JID_3129_Energie_neutraal
 ---------------------------------------
 Structure from the checkpoint file:  "JID_3129.chk"
 Charge =  0 Multiplicity = 1

 SCF Done:  E(RB3LYP) =  -658.370603729     A.U. after   15 cycles
 Normal termination of Gaussian 16 at Wed Dec  9 22:35:27 2020.

 ----------------------------------------------------------------------
 # B3LYP/6-311++G(d,p) empiricaldispersion=gd3bj scf=xqc pop=npa geom=c
 heck
 ----------------------------------------------------------------------

 -------------------------------------
 CID_150341925_JID_3129_Energie_kation
 -------------------------------------
 Structure from the checkpoint file:  "JID_3129.chk"
 Charge =  1 Multiplicity = 2

 SCF Done:  E(UB3LYP) =  -658.054163174     A.U. after   28 cycles
 Normal termination of Gaussian 16 at Wed Dec  9 22:40:46 2020.
 Gaussian 16:  ES64L-G16RevA.03 25-Dec-2016

 ----------------------------------------------------------------------
 # B3LYP/6-311++G(d,p) empiricaldispersion=gd3bj scf=xqc pop=npa geom=c
 heck
 ----------------------------------------------------------------------

 ------------------------------------
 CID_150341925_JID_3129_Energie_anion
 ------------------------------------
 Structure from the checkpoint file:  "JID_3129.chk"
 Charge = -1 Multiplicity = 2

                         Standard orientation:
 ---------------------------------------------------------------------
 Center     Atomic      Atomic             Coordinates (Angstroms)
 Number     Number       Type             X           Y           Z
 ---------------------------------------------------------------------
      1          6           0        3.512693   -1.205547   -0.776080
      2          6           0        3.306326   -0.129471    0.289655
      3          7           0        2.491414    0.988747   -0.181161
      4          6           0        1.160572    1.212982   -0.028749
      5          8           0        0.585738    2.136489   -0.597143
      6          6           0        0.397729    0.283560    0.942273
      7          6           0       -1.107865    0.514678    0.855186
      8          6           0       -1.494232   -0.709877    0.065306
      9          7           0       -0.564369   -1.581957   -0.090522
     10          8           0        0.588606   -1.112360    0.560254
     11          7           0       -2.754656   -0.974775   -0.473963
     12          7           0       -3.614683   -0.088217   -0.341549
     13          7           0       -4.505135    0.620572   -0.297896
     14          1           0        2.551604   -1.643433   -1.055618
     15          1           0        4.162472   -1.999936   -0.392044
     16          1           0        3.984428   -0.785493   -1.671941
     17          1           0        2.831490   -0.563436    1.170776
     18          1           0        4.269660    0.281325    0.614778
     19          1           0        2.911870    1.604844   -0.867880
     20          1           0        0.800384    0.388629    1.953297
     21          1           0       -1.608965    0.527988    1.829597
     22          1           0       -1.317025    1.447949    0.324225
 ---------------------------------------------------------------------

 SCF Done:  E(UB3LYP) =  -658.371176124     A.U. after   33 cycles
 SCF Done:  E(UB3LYP) =  -658.371176124     a.u. after    1 cycles

 The electronic state is 2-A.
 Alpha  occ. eigenvalues --  -19.05877 -18.99666 -14.32430 -14.24303 -14.24093
 Alpha  occ. eigenvalues --  -14.24030 -14.23803 -10.17930 -10.14241 -10.13656
 Alpha  occ. eigenvalues --  -10.11169 -10.08961 -10.06432  -1.00839  -0.99292
 Alpha  occ. eigenvalues --   -0.94566  -0.86174  -0.83028  -0.75283  -0.69678
 Alpha  occ. eigenvalues --   -0.66022  -0.57273  -0.54965  -0.54111  -0.48333
 Alpha  occ. eigenvalues --   -0.44082  -0.42633  -0.39854  -0.38780  -0.38153
 Alpha  occ. eigenvalues --   -0.36102  -0.34543  -0.34451  -0.33278  -0.32064
 Alpha  occ. eigenvalues --   -0.31363  -0.30437  -0.29365  -0.28281  -0.27552
 Alpha  occ. eigenvalues --   -0.25711  -0.25303  -0.20626  -0.19615  -0.18455
 Alpha  occ. eigenvalues --   -0.16606  -0.16265  -0.10793   0.04340
 Alpha virt. eigenvalues --    0.05670   0.07121   0.08655   0.08908   0.09174
 Alpha virt. eigenvalues --    0.10164   0.10772   0.11741   0.12199   0.12807
 Alpha virt. eigenvalues --    0.13579   0.14941   0.15562   0.15732   0.16695

  Beta  occ. eigenvalues --  -19.05876 -18.99662 -14.31934 -14.24288 -14.24107
  Beta  occ. eigenvalues --  -14.24052 -14.23253 -10.17929 -10.14230 -10.13554
  Beta  occ. eigenvalues --  -10.11134 -10.08960 -10.06414  -1.00087  -0.99164
  Beta  occ. eigenvalues --   -0.94556  -0.85783  -0.82995  -0.75174  -0.69637
  Beta  occ. eigenvalues --   -0.65977  -0.57218  -0.54638  -0.53969  -0.48266
  Beta  occ. eigenvalues --   -0.43999  -0.42594  -0.39779  -0.37948  -0.37251
  Beta  occ. eigenvalues --   -0.35620  -0.34447  -0.34376  -0.33029  -0.31037
  Beta  occ. eigenvalues --   -0.30837  -0.30372  -0.29355  -0.28215  -0.27502
  Beta  occ. eigenvalues --   -0.25677  -0.25254  -0.20451  -0.19152  -0.17763
  Beta  occ. eigenvalues --   -0.16579  -0.16225  -0.10717
  Beta virt. eigenvalues --    0.06878   0.07494   0.09075   0.09379   0.09454
  Beta virt. eigenvalues --    0.10183   0.10660   0.11232   0.11831   0.12329
  Beta virt. eigenvalues --    0.13010   0.13688   0.15102   0.15635   0.15806

 Mulliken charges and spin densities:
               1          2
     1  C    0.204544  -0.676547
     2  C    0.450528  -0.673975
     3  N   -0.169242   0.036536
     4  C   -0.203092   0.144343
     5  O   -0.341205   0.009046
     6  C    0.675910  -0.631377
     7  C   -0.752864   0.345127
     8  C    0.229981  -0.429701
     9  N   -0.349863   0.044532
    10  O    0.164609  -0.000793
    11  N   -0.583285   0.396384
    12  N    0.640751  -0.101819
    13  N   -0.256118   0.134971
    14  H    0.083710   0.107090
    15  H   -0.042026   0.161941
    16  H    0.002219   0.119105
    17  H    0.174438   0.020731
    18  H   -1.044657   1.230028
    19  H    0.013316   0.270819
    20  H   -0.254549   0.459646
    21  H    0.121396   0.040541
    22  H    0.235500  -0.006626
 Sum of Mulliken charges =  -1.00000   1.00000

 Dipole moment (field-independent basis, Debye):
    X=             -0.3540    Y=             -0.1630    Z=              1.3247  Tot=              1.3808
 Quadrupole moment (field-independent basis, Debye-Ang):
   XX=           -161.3310   YY=           -106.3608   ZZ=            -91.0408
   XY=             -3.7977   XZ=             -9.6795   YZ=              0.7578

 Summary of Natural Population Analysis:

                                       Natural Population
                Natural  -----------------------------------------------
    Atom  No    Charge         Core      Valence    Rydberg      Total
 -----------------------------------------------------------------------
      C    1   -0.29040      0.99966     2.28521    0.00554     3.29040
      C    2   -0.08956      0.99962     2.07851    0.01143     3.08956
      N    3   -0.30949      0.99967     2.79833    0.01150     3.80949
      C    4    0.33231      0.99965     1.64433    0.02371     2.66769
      O    5   -0.32548      0.99988     3.32011    0.00549     4.32548
      C    6    0.01945      0.99956     1.96837    0.01263     2.98055
      C    7   -0.24018      0.99959     2.23359    0.00701     3.24018
      C    8    0.19102      0.99956     1.79272    0.01670     2.80898
      N    9   -0.08883      0.99961     2.57581    0.01341     3.58883
      O   10   -0.22498      0.99990     3.21554    0.00954     4.22498
      N   11   -0.19915      0.99963     2.68511    0.01441     3.69915
      N   12    0.15695      0.99971     2.32802    0.01533     3.34305
      N   13    0.02874      0.99982     2.45742    0.01402     3.47126
      H   14    0.10962      0.00000     0.38899    0.00140     0.39038
      H   15    0.09864      0.00000     0.40050    0.00086     0.40136
      H   16    0.09440      0.00000     0.40456    0.00104     0.40560
      H   17    0.10134      0.00000     0.39657    0.00209     0.39866
      H   18    0.09681      0.00000     0.39840    0.00478     0.40319
      H   19    0.19346      0.00000     0.30416    0.00238     0.30654
      H   20    0.10373      0.00000     0.39475    0.00152     0.39627
      H   21    0.10994      0.00000     0.38892    0.00114     0.39006
      H   22    0.13168      0.00000     0.36697    0.00135     0.36832
 =======================================================================
   * Total *   -0.00000     12.99584    34.82689    0.17728    48.00000

 Normal termination of Gaussian 16 at Wed Dec  9 22:47:57 2020.
