 Gaussian 16, Revision A.03,

 -----------------------------------------------------------
 # opt freq B3LYP/6-31G(d) empiricaldispersion=gd3bj scf=xqc
 -----------------------------------------------------------

 -----------------------------
 CID_19756200_JID_314_neutraal
 -----------------------------
 Symbolic Z-matrix:
 Charge =  0 Multiplicity = 1

 SCF Done:  E(RB3LYP) =  -435.214125321     A.U. after   14 cycles
 SCF Done:  E(RB3LYP) =  -435.219626875     A.U. after   13 cycles
 SCF Done:  E(RB3LYP) =  -435.220320334     A.U. after   12 cycles
 SCF Done:  E(RB3LYP) =  -435.220421019     A.U. after   10 cycles
 SCF Done:  E(RB3LYP) =  -435.220435541     A.U. after    9 cycles
 SCF Done:  E(RB3LYP) =  -435.220438619     A.U. after    9 cycles
 Optimization completed.
    -- Stationary point found.
 Normal termination of Gaussian 16 at Sun Dec 13 15:51:23 2020.

 --------------------------------------------------------------------
 #N Geom=AllCheck Guess=TCheck SCRF=Check GenChk RB3LYP/6-31G(d) Freq
 --------------------------------------------------------------------

 Structure from the checkpoint file:  "JID_314.chk"
 -----------------------------
 CID_19756200_JID_314_neutraal
 -----------------------------
 Charge =  0 Multiplicity = 1

 SCF Done:  E(RB3LYP) =  -435.220438619     A.U. after    1 cycles

  Exact polarizability: 131.326  -8.640  94.903  -0.137  -0.136  38.244
 Approx polarizability: 215.042 -25.499 177.938  -0.160  -0.148  58.790

 ******    1 imaginary frequencies (negative Signs) ******

                      1                      2                      3
                      A                      A                      A
 Frequencies --    -24.3332               153.3093               223.5825
 Red. masses --      1.0232                 3.7520                 2.9665
 Frc consts  --      0.0004                 0.0520                 0.0874
 IR Inten    --      0.0247                 6.0414                 2.4765

                      4                      5                      6
                      A                      A                      A
 Frequencies --    233.3787               304.8656               428.7435
 Red. masses --      4.1238                 4.2752                 4.0828
 Frc consts  --      0.1323                 0.2341                 0.4422
 IR Inten    --      0.0803                 0.0993                 0.7159

                      7                      8                      9
                      A                      A                      A
 Frequencies --    504.5321               559.3680               588.3323
 Red. masses --      4.4429                 5.7436                 3.8304
 Frc consts  --      0.6663                 1.0588                 0.7812
 IR Inten    --      5.6815                 6.2697                 3.1871

                     10                     11                     12
                      A                      A                      A
 Frequencies --    601.6551               650.9668               731.6564
 Red. masses --      6.2572                 4.3024                 6.1791
 Frc consts  --      1.3345                 1.0742                 1.9489
 IR Inten    --      0.1022                 4.9032                 1.5906

                     13                     14                     15
                      A                      A                      A
 Frequencies --    765.0991               789.2845               794.6441
 Red. masses --      5.6338                 1.3698                 6.3705
 Frc consts  --      1.9431                 0.5028                 2.3701
 IR Inten    --     14.1903                27.7105                 5.6939

                     16                     17                     18
                      A                      A                      A
 Frequencies --    898.3803               906.6793               948.7862
 Red. masses --      1.3187                 6.0203                 1.3536
 Frc consts  --      0.6271                 2.9159                 0.7179
 IR Inten    --      8.2930                 0.0169                 0.0027

                     19                     20                     21
                      A                      A                      A
 Frequencies --    957.6486              1005.5254              1052.9448
 Red. masses --      1.3038                 1.7599                 2.1946
 Frc consts  --      0.7045                 1.0484                 1.4336
 IR Inten    --      0.9709                10.4065                 7.5660

                     22                     23                     24
                      A                      A                      A
 Frequencies --   1079.8097              1118.3916              1141.9463
 Red. masses --      1.4346                 4.1773                 1.4083
 Frc consts  --      0.9855                 3.0785                 1.0821
 IR Inten    --      2.1228                16.7727                 7.4730

                     25                     26                     27
                      A                      A                      A
 Frequencies --   1208.2921              1255.1612              1287.4522
 Red. masses --      1.6195                 3.1106                 3.2263
 Frc consts  --      1.3931                 2.8873                 3.1508
 IR Inten    --     16.0974                 2.6425                24.2372

                     28                     29                     30
                      A                      A                      A
 Frequencies --   1352.8571              1371.2539              1418.5574
 Red. masses --      2.5772                 4.3269                 2.0208
 Frc consts  --      2.7790                 4.7936                 2.3959
 IR Inten    --     13.5842                13.4969                 7.1061

                     31                     32                     33
                      A                      A                      A
 Frequencies --   1446.7254              1455.8376              1511.6512
 Red. masses --      1.6261                 2.0611                 1.1791
 Frc consts  --      2.0052                 2.5738                 1.5875
 IR Inten    --     30.6569                15.7893                 5.0832

                     34                     35                     36
                      A                      A                      A
 Frequencies --   1512.8710              1537.8812              1569.5883
 Red. masses --      1.6109                 1.5430                 4.8571
 Frc consts  --      2.1723                 2.1501                 7.0502
 IR Inten    --      4.2040                36.4923                60.2065

                     37                     38                     39
                      A                      A                      A
 Frequencies --   1619.3865              1678.1046              3048.4238
 Red. masses --      5.5612                 7.1634                 1.0373
 Frc consts  --      8.5925                11.8852                 5.6792
 IR Inten    --      2.8192                58.9365                40.0477

                     40                     41                     42
                      A                      A                      A
 Frequencies --   3101.6967              3127.3763              3180.7113
 Red. masses --      1.1001                 1.1021                 1.0903
 Frc consts  --      6.2354                 6.3509                 6.4989
 IR Inten    --     18.6188                16.3247                21.4631

                     43                     44                     45
                      A                      A                      A
 Frequencies --   3237.2764              3248.8676              3255.7163
 Red. masses --      1.0900                 1.0959                 1.0980
 Frc consts  --      6.7302                 6.8154                 6.8571
 IR Inten    --      2.0363                 8.9320                 2.6400

 - Thermochemistry -
 -------------------
 Temperature   298.150 Kelvin.  Pressure   1.00000 Atm.
 Atom     1 has atomic number  6 and mass  12.00000

 Molecular mass:   133.06400 amu.
 Principal axes and moments of inertia in atomic units:
                           1         2         3
     Eigenvalues --   669.441201329.356371987.61298
           X            0.99937   0.03560  -0.00005
           Y           -0.03560   0.99937  -0.00010
           Z            0.00004   0.00010   1.00000
 This molecule is an asymmetric top.
 Rotational symmetry number  1.
 Warning -- assumption of classical behavior for rotation
           may cause significant error
 Rotational temperatures (Kelvin)      0.12938     0.06515     0.04358
 Rotational constants (GHZ):           2.69589     1.35761     0.90799
    1 imaginary frequencies ignored.
 Zero-point vibrational energy     352092.2 (Joules/Mol)
                                   84.15205 (Kcal/Mol)
 Warning -- explicit consideration of   9 degrees of freedom as
           vibrations may cause significant error
 Vibrational temperatures:    220.58   321.69   335.78   438.63   616.87
          (Kelvin)            725.91   804.81   846.48   865.65   936.60
                             1052.69  1100.81  1135.60  1143.32  1292.57
                             1304.51  1365.09  1377.84  1446.73  1514.95
                             1553.61  1609.12  1643.01  1738.46  1805.90
                             1852.36  1946.46  1972.93  2040.99  2081.52
                             2094.63  2174.93  2176.68  2212.67  2258.29
                             2329.94  2414.42  4386.00  4462.65  4499.60
                             4576.33  4657.72  4674.40  4684.25

 Zero-point correction=                           0.134105 (Hartree/Particle)
 Thermal correction to Energy=                    0.140955
 Thermal correction to Enthalpy=                  0.141899
 Thermal correction to Gibbs Free Energy=         0.102614
 Sum of electronic and zero-point Energies=           -435.086334
 Sum of electronic and thermal Energies=              -435.079484
 Sum of electronic and thermal Enthalpies=            -435.078540
 Sum of electronic and thermal Free Energies=         -435.117825

                     E (Thermal)             CV                S
                      KCal/Mol        Cal/Mol-Kelvin    Cal/Mol-Kelvin
 Total                   88.450             27.464             82.682
 Electronic               0.000              0.000              0.000
 Translational            0.889              2.981             40.570
 Rotational               0.889              2.981             28.960
 Vibrational             86.673             21.502             13.152
 Vibration     1          0.619              1.899              2.631
 Vibration     2          0.649              1.805              1.930
 Vibration     3          0.654              1.790              1.853
 Vibration     4          0.696              1.664              1.390
 Vibration     5          0.790              1.408              0.863
 Vibration     6          0.860              1.240              0.647
 Vibration     7          0.915              1.119              0.525
 Vibration     8          0.946              1.057              0.470
 Vibration     9          0.960              1.028              0.447

                           ! Non-Optimized Parameters !
 Normal termination of Gaussian 16 at Sun Dec 13 15:54:02 2020.

 ----------------------------------------------------------------------
 # B3LYP/6-311++G(d,p) empiricaldispersion=gd3bj scf=xqc pop=npa geom=c
 heck
 ----------------------------------------------------------------------

 -------------------------------------
 CID_19756200_JID_314_Energie_neutraal
 -------------------------------------
 Structure from the checkpoint file:  "JID_314.chk"
 Charge =  0 Multiplicity = 1

 SCF Done:  E(RB3LYP) =  -435.331636276     A.U. after   14 cycles
 Normal termination of Gaussian 16 at Sun Dec 13 15:54:51 2020.

 ----------------------------------------------------------------------
 # B3LYP/6-311++G(d,p) empiricaldispersion=gd3bj scf=xqc pop=npa geom=c
 heck
 ----------------------------------------------------------------------

 -----------------------------------
 CID_19756200_JID_314_Energie_kation
 -----------------------------------
 Structure from the checkpoint file:  "JID_314.chk"
 Charge =  1 Multiplicity = 2

 SCF Done:  E(UB3LYP) =  -435.035303056     A.U. after   21 cycles
 Normal termination of Gaussian 16 at Sun Dec 13 15:56:21 2020.
 Gaussian 16:  ES64L-G16RevA.03 25-Dec-2016

 ----------------------------------------------------------------------
 # B3LYP/6-311++G(d,p) empiricaldispersion=gd3bj scf=xqc pop=npa geom=c
 heck
 ----------------------------------------------------------------------

 ----------------------------------
 CID_19756200_JID_314_Energie_anion
 ----------------------------------
 Structure from the checkpoint file:  "JID_314.chk"
 Charge = -1 Multiplicity = 2

                         Standard orientation:
 ---------------------------------------------------------------------
 Center     Atomic      Atomic             Coordinates (Angstroms)
 Number     Number       Type             X           Y           Z
 ---------------------------------------------------------------------
      1          6           0       -2.640004   -1.231564    0.002907
      2          6           0       -1.570507   -0.185327   -0.001805
      3          6           0       -0.189780   -0.397052    0.000064
      4          7           0        0.568460   -1.513813   -0.002156
      5          6           0        1.876022   -1.348744   -0.001910
      6          6           0        2.516555   -0.076017    0.001234
      7          6           0        1.738856    1.050585    0.002138
      8          7           0        0.390433    0.889690    0.001423
      9          7           0       -0.527462    1.876737   -0.000049
     10          6           0       -1.698727    1.213436   -0.003030
     11          1           0       -2.478566   -1.969932   -0.790196
     12          1           0       -3.625018   -0.779487   -0.149064
     13          1           0       -2.665671   -1.780316    0.952198
     14          1           0        2.480152   -2.253828   -0.004186
     15          1           0        3.596659    0.004687    0.002374
     16          1           0        2.096313    2.073072    0.003392
     17          1           0       -2.618383    1.785599   -0.006631
 ---------------------------------------------------------------------

 SCF Done:  E(UB3LYP) =  -435.331825717     A.U. after   27 cycles

 The electronic state is 2-A.
 Alpha  occ. eigenvalues --  -14.22270 -14.16474 -14.11274 -10.06345 -10.03640
 Alpha  occ. eigenvalues --  -10.03378 -10.02607 -10.02150 -10.00805 -10.00744
 Alpha  occ. eigenvalues --   -0.89268  -0.76205  -0.69267  -0.62960  -0.59881
 Alpha  occ. eigenvalues --   -0.54982  -0.48950  -0.45557  -0.42973  -0.35721
 Alpha  occ. eigenvalues --   -0.33960  -0.32011  -0.30884  -0.27778  -0.27434
 Alpha  occ. eigenvalues --   -0.26345  -0.25585  -0.23749  -0.21842  -0.19842
 Alpha  occ. eigenvalues --   -0.15728  -0.14812  -0.09380  -0.08820  -0.05460
 Alpha  occ. eigenvalues --    0.06579
 Alpha virt. eigenvalues --    0.09384   0.10258   0.11295   0.12124   0.13113
 Alpha virt. eigenvalues --    0.13431   0.14490   0.14943   0.16759   0.17634
 Alpha virt. eigenvalues --    0.18019   0.18273   0.19945   0.20625   0.21207

  Beta  occ. eigenvalues --  -14.22016 -14.16535 -14.10700 -10.06400 -10.03643
  Beta  occ. eigenvalues --  -10.03310 -10.01998 -10.01840 -10.00901 -10.00702
  Beta  occ. eigenvalues --   -0.88892  -0.75457  -0.68713  -0.62764  -0.59458
  Beta  occ. eigenvalues --   -0.54878  -0.48094  -0.45326  -0.42707  -0.35267
  Beta  occ. eigenvalues --   -0.33751  -0.31806  -0.30044  -0.27594  -0.27094
  Beta  occ. eigenvalues --   -0.26278  -0.25340  -0.23546  -0.21652  -0.18063
  Beta  occ. eigenvalues --   -0.14760  -0.13897  -0.08326  -0.08221  -0.04297
  Beta virt. eigenvalues --    0.09319   0.10200   0.11240   0.12084   0.12900
  Beta virt. eigenvalues --    0.13203   0.14119   0.14463   0.15230   0.16657
  Beta virt. eigenvalues --    0.17773   0.18024   0.18569   0.19864   0.21143

 Mulliken charges and spin densities:
               1          2
     1  C   -0.655291   0.002701
     2  C    0.817433  -0.008726
     3  C   -0.891049  -0.021464
     4  N   -0.177323   0.256976
     5  C    0.094833   0.246217
     6  C   -0.504735  -0.019845
     7  C    0.016672   0.512913
     8  N    0.258496   0.018164
     9  N   -0.274567  -0.013228
    10  C   -0.483321   0.077745
    11  H    0.136514   0.004876
    12  H    0.113755   0.000467
    13  H    0.121088   0.009708
    14  H    0.121662  -0.024295
    15  H    0.094281   0.006921
    16  H    0.127408  -0.043487
    17  H    0.084145  -0.005642
 Sum of Mulliken charges =  -1.00000   1.00000

 Dipole moment (field-independent basis, Debye):
    X=             -1.7028    Y=             -0.0863    Z=             -0.0120  Tot=              1.7050
 Quadrupole moment (field-independent basis, Debye-Ang):
   XX=            -71.6026   YY=            -80.7297   ZZ=            -68.1620
   XY=              2.3568   XZ=              0.0661   YZ=              0.0340

 Summary of Natural Population Analysis:

                                       Natural Population
                Natural  -----------------------------------------------
    Atom  No    Charge         Core      Valence    Rydberg      Total
 -----------------------------------------------------------------------
      C    1   -0.28476      0.99965     2.28056    0.00456     3.28476
      C    2   -0.09634      0.99946     2.08746    0.00941     3.09634
      C    3    0.16896      0.99950     1.81521    0.01633     2.83104
      N    4   -0.18574      0.99966     2.67214    0.01393     3.68574
      C    5    0.08234      0.99963     1.90178    0.01624     2.91766
      C    6   -0.18498      0.99958     2.17625    0.00915     3.18498
      C    7    0.14121      0.99957     1.84761    0.01160     2.85879
      N    8   -0.06968      0.99960     2.55694    0.01315     3.56968
      N    9   -0.19549      0.99974     2.68050    0.01525     3.69549
      C   10    0.00195      0.99959     1.98437    0.01409     2.99805
      H   11    0.09981      0.00000     0.39887    0.00132     0.40019
      H   12    0.09109      0.00000     0.40801    0.00090     0.40891
      H   13    0.09588      0.00000     0.40278    0.00134     0.40412
      H   14    0.07128      0.00000     0.42709    0.00163     0.42872
      H   15    0.09363      0.00000     0.40519    0.00118     0.40637
      H   16    0.08740      0.00000     0.41165    0.00095     0.41260
      H   17    0.08343      0.00000     0.41570    0.00088     0.41657
 =======================================================================
   * Total *   -0.00000      9.99599    24.87209    0.13192    35.00000

 Normal termination of Gaussian 16 at Sun Dec 13 15:58:18 2020.
