 Gaussian 16, Revision A.03,

 -----------------------------------------------------------
 # opt freq B3LYP/6-31G(d) empiricaldispersion=gd3bj scf=xqc
 -----------------------------------------------------------

 -------------------------------
 CID_148840849_JID_5683_neutraal
 -------------------------------
 Symbolic Z-matrix:
 Charge =  0 Multiplicity = 1

 SCF Done:  E(RB3LYP) =  -1058.49327249     A.U. after   17 cycles
 SCF Done:  E(RB3LYP) =  -1058.54148711     A.U. after   14 cycles
 SCF Done:  E(RB3LYP) =  -1058.56271977     A.U. after   14 cycles
 SCF Done:  E(RB3LYP) =  -1058.56352285     A.U. after   15 cycles
 SCF Done:  E(RB3LYP) =  -1058.56608990     A.U. after   14 cycles
 SCF Done:  E(RB3LYP) =  -1058.57077063     A.U. after   13 cycles
 SCF Done:  E(RB3LYP) =  -1058.57477787     A.U. after   13 cycles
 SCF Done:  E(RB3LYP) =  -1058.57593928     A.U. after   13 cycles
 SCF Done:  E(RB3LYP) =  -1058.57696569     A.U. after   12 cycles
 SCF Done:  E(RB3LYP) =  -1058.57734278     A.U. after   11 cycles
 SCF Done:  E(RB3LYP) =  -1058.57881499     A.U. after    8 cycles
 SCF Done:  E(RB3LYP) =  -1058.57881509     A.U. after    7 cycles
 SCF Done:  E(RB3LYP) =  -1058.57881530     A.U. after    8 cycles
 SCF Done:  E(RB3LYP) =  -1058.57881537     A.U. after    7 cycles
 SCF Done:  E(RB3LYP) =  -1058.57881541     A.U. after    7 cycles
 Optimization completed.
    -- Stationary point found.
 Normal termination of Gaussian 16 at Thu Dec 10 16:50:02 2020.

 --------------------------------------------------------------------
 #N Geom=AllCheck Guess=TCheck SCRF=Check GenChk RB3LYP/6-31G(d) Freq
 --------------------------------------------------------------------

 Structure from the checkpoint file:  "JID_5683.chk"
 -------------------------------
 CID_148840849_JID_5683_neutraal
 -------------------------------
 Charge =  0 Multiplicity = 1

 SCF Done:  E(RB3LYP) =  -1058.57881541     A.U. after    1 cycles

  Exact polarizability: 171.523  -1.986 155.810  10.122   0.303  79.318
 Approx polarizability: 262.299  -5.923 288.444  28.637   4.057 127.738

                      1                      2                      3
                      A                      A                      A
 Frequencies --     35.9112                67.0433               114.9910
 Red. masses --      4.3505                 4.7216                 4.3881
 Frc consts  --      0.0033                 0.0125                 0.0342
 IR Inten    --      2.8240                 1.0548                 1.9282

                      4                      5                      6
                      A                      A                      A
 Frequencies --    143.7314               159.4261               183.1668
 Red. masses --      1.1613                 5.0245                 4.0456
 Frc consts  --      0.0141                 0.0752                 0.0800
 IR Inten    --      1.7867                 2.2902                 0.9050

                      7                      8                      9
                      A                      A                      A
 Frequencies --    212.6468               246.0016               260.4030
 Red. masses --      5.0076                 4.2569                 4.1630
 Frc consts  --      0.1334                 0.1518                 0.1663
 IR Inten    --      7.2031                 8.4611                 2.5004

                     10                     11                     12
                      A                      A                      A
 Frequencies --    270.1370               328.8510               354.0701
 Red. masses --      2.9180                 5.7852                 3.6538
 Frc consts  --      0.1255                 0.3686                 0.2699
 IR Inten    --      9.0724                 5.9374                 3.0902

                     13                     14                     15
                      A                      A                      A
 Frequencies --    378.1451               397.6062               436.5835
 Red. masses --      3.3145                 2.3511                 3.3591
 Frc consts  --      0.2792                 0.2190                 0.3772
 IR Inten    --      5.5007                21.0951                20.3622

                     16                     17                     18
                      A                      A                      A
 Frequencies --    481.9081               494.0797               533.2243
 Red. masses --      1.6102                 2.0321                 6.0269
 Frc consts  --      0.2203                 0.2923                 1.0096
 IR Inten    --     79.8904                 9.5767                 4.5838

                     19                     20                     21
                      A                      A                      A
 Frequencies --    549.0145               567.8503               575.6512
 Red. masses --      4.3362                 2.0881                 2.1610
 Frc consts  --      0.7701                 0.3967                 0.4219
 IR Inten    --      3.9233                77.2034                 9.8375

                     22                     23                     24
                      A                      A                      A
 Frequencies --    582.9802               614.0833               642.5638
 Red. masses --      1.5193                 5.0612                 2.3876
 Frc consts  --      0.3042                 1.1245                 0.5808
 IR Inten    --     83.2353                13.3973                 8.6423

                     25                     26                     27
                      A                      A                      A
 Frequencies --    682.8052               692.5706               701.5380
 Red. masses --      2.3550                 5.0911                 2.2034
 Frc consts  --      0.6469                 1.4388                 0.6389
 IR Inten    --     94.5570                 7.9432                77.8289

                     28                     29                     30
                      A                      A                      A
 Frequencies --    710.2465               748.8686               770.4267
 Red. masses --      4.7941                 1.6802                 1.2380
 Frc consts  --      1.4249                 0.5552                 0.4330
 IR Inten    --     10.9170                15.4418               217.4347

                     31                     32                     33
                      A                      A                      A
 Frequencies --    800.8958               816.7356               870.7805
 Red. masses --      6.7858                10.5306                 2.1422
 Frc consts  --      2.5645                 4.1387                 0.9570
 IR Inten    --      7.3094                30.5077                14.7072

                     34                     35                     36
                      A                      A                      A
 Frequencies --    901.6886               916.5825               975.5094
 Red. masses --      5.1920                 1.7330                 1.4354
 Frc consts  --      2.4871                 0.8578                 0.8048
 IR Inten    --     14.7592                39.4318                 1.4982

                     37                     38                     39
                      A                      A                      A
 Frequencies --    985.7574              1001.0765              1057.3870
 Red. masses --      1.3529                 1.9698                 1.4534
 Frc consts  --      0.7746                 1.1630                 0.9574
 IR Inten    --      7.3198                78.0323                60.9437

                     40                     41                     42
                      A                      A                      A
 Frequencies --   1067.6931              1100.0067              1115.1566
 Red. masses --      3.0247                 2.2489                 2.0439
 Frc consts  --      2.0316                 1.6033                 1.4975
 IR Inten    --     14.7713                37.4953                 6.8033

                     43                     44                     45
                      A                      A                      A
 Frequencies --   1164.0760              1208.3992              1254.1132
 Red. masses --      5.5783                 2.9479                 1.8064
 Frc consts  --      4.4536                 2.5362                 1.6739
 IR Inten    --    173.9936                45.6691                15.8659

                     46                     47                     48
                      A                      A                      A
 Frequencies --   1314.9426              1359.6329              1367.5594
 Red. masses --      4.0001                 3.3964                 1.3051
 Frc consts  --      4.0751                 3.6993                 1.4381
 IR Inten    --     56.9727                48.7227                 7.0344

                     49                     50                     51
                      A                      A                      A
 Frequencies --   1368.9459              1394.9791              1420.5372
 Red. masses --      1.9961                 2.4344                 1.7985
 Frc consts  --      2.2039                 2.7911                 2.1383
 IR Inten    --     12.1697                 4.8192                10.7752

                     52                     53                     54
                      A                      A                      A
 Frequencies --   1437.3641              1463.9512              1478.4645
 Red. masses --      1.2339                 3.0441                 1.0772
 Frc consts  --      1.5019                 3.8438                 1.3873
 IR Inten    --     20.7736                22.4560                10.9577

                     55                     56                     57
                      A                      A                      A
 Frequencies --   1483.0196              1486.5428              1533.6875
 Red. masses --      1.0528                 2.4593                 3.3732
 Frc consts  --      1.3642                 3.2020                 4.6748
 IR Inten    --      2.8669                 4.7225                94.0916

                     58                     59                     60
                      A                      A                      A
 Frequencies --   1578.4921              1623.7609              1642.3611
 Red. masses --      5.4930                 4.7613                 5.5232
 Frc consts  --      8.0639                 7.3964                 8.7776
 IR Inten    --      2.0432               212.2995               198.6337

                     61                     62                     63
                      A                      A                      A
 Frequencies --   1708.6550              3095.4813              3134.1709
 Red. masses --      1.3806                 1.0295                 1.0515
 Frc consts  --      2.3748                 5.8121                 6.0856
 IR Inten    --    207.1660                 0.0178                 0.5797

                     64                     65                     66
                      A                      A                      A
 Frequencies --   3182.7921              3192.6385              3213.0969
 Red. masses --      1.0903                 1.1057                 1.1081
 Frc consts  --      6.5072                 6.6406                 6.7400
 IR Inten    --     59.4128                 0.1530                 3.3114

                     67                     68                     69
                      A                      A                      A
 Frequencies --   3225.6806              3233.3226              3273.3489
 Red. masses --      1.1130                 1.0728                 1.0971
 Frc consts  --      6.8230                 6.6080                 6.9258
 IR Inten    --     32.2027               716.9497                 1.0980

                     70                     71                     72
                      A                      A                      A
 Frequencies --   3513.4625              3625.7531              3662.3675
 Red. masses --      1.0747                 1.0822                 1.0804
 Frc consts  --      7.8161                 8.3819                 8.5384
 IR Inten    --     27.9543                64.6099                92.9729

 - Thermochemistry -
 -------------------
 Temperature   298.150 Kelvin.  Pressure   1.00000 Atm.
 Atom     1 has atomic number  6 and mass  12.00000

 Molecular mass:   225.06843 amu.
 Principal axes and moments of inertia in atomic units:
                           1         2         3
     Eigenvalues --  1695.935224542.399035637.44632
           X            0.99996   0.00714  -0.00614
           Y           -0.00714   0.99997   0.00112
           Z            0.00615  -0.00107   0.99998
 This molecule is an asymmetric top.
 Rotational symmetry number  1.
 Warning -- assumption of classical behavior for rotation
           may cause significant error
 Rotational temperatures (Kelvin)      0.05107     0.01907     0.01536
 Rotational constants (GHZ):           1.06416     0.39731     0.32013
 Zero-point vibrational energy     527477.8 (Joules/Mol)
                                  126.07021 (Kcal/Mol)
 Warning -- explicit consideration of  23 degrees of freedom as
           vibrations may cause significant error
 Vibrational temperatures:     51.67    96.46   165.45   206.80   229.38
          (Kelvin)            263.54   305.95   353.94   374.66   388.67
                              473.14   509.43   544.07   572.07   628.15
                              693.36   710.87   767.19   789.91   817.01
                              828.23   838.78   883.53   924.51   982.40
                              996.45  1009.36  1021.89  1077.45  1108.47
                             1152.31  1175.10  1252.86  1297.33  1318.76
                             1403.54  1418.29  1440.33  1521.34  1536.17
                             1582.66  1604.46  1674.85  1738.62  1804.39
                             1891.91  1956.21  1967.61  1969.61  2007.06
                             2043.84  2068.05  2106.30  2127.18  2133.73
                             2138.80  2206.63  2271.10  2336.23  2362.99
                             2458.37  4453.71  4509.37  4579.33  4593.49
                             4622.93  4641.03  4652.03  4709.62  5055.09
                             5216.65  5269.33

 Zero-point correction=                           0.200906 (Hartree/Particle)
 Thermal correction to Energy=                    0.214592
 Thermal correction to Enthalpy=                  0.215536
 Thermal correction to Gibbs Free Energy=         0.160736
 Sum of electronic and zero-point Energies=          -1058.377910
 Sum of electronic and thermal Energies=             -1058.364223
 Sum of electronic and thermal Enthalpies=           -1058.363279
 Sum of electronic and thermal Free Energies=        -1058.418079

                     E (Thermal)             CV                S
                      KCal/Mol        Cal/Mol-Kelvin    Cal/Mol-Kelvin
 Total                  134.659             54.111            115.337
 Electronic               0.000              0.000              0.000
 Translational            0.889              2.981             42.136
 Rotational               0.889              2.981             32.141
 Vibrational            132.881             48.149             41.060
 Vibration     1          0.594              1.982              5.473
 Vibration     2          0.598              1.970              4.238
 Vibration     3          0.608              1.937              3.183
 Vibration     4          0.616              1.909              2.754
 Vibration     5          0.621              1.892              2.557
 Vibration     6          0.631              1.863              2.296
 Vibration     7          0.644              1.822              2.021
 Vibration     8          0.660              1.769              1.759
 Vibration     9          0.668              1.745              1.659
 Vibration    10          0.674              1.728              1.595
 Vibration    11          0.712              1.618              1.266
 Vibration    12          0.730              1.567              1.148
 Vibration    13          0.748              1.517              1.047
 Vibration    14          0.764              1.475              0.971
 Vibration    15          0.797              1.390              0.837
 Vibration    16          0.838              1.290              0.705
 Vibration    17          0.850              1.263              0.673
 Vibration    18          0.888              1.177              0.580
 Vibration    19          0.904              1.142              0.546
 Vibration    20          0.924              1.101              0.508
 Vibration    21          0.932              1.084              0.493
 Vibration    22          0.940              1.068              0.480
 Vibration    23          0.973              1.002              0.426

 Optimization completed.
    -- Stationary point found.
 Normal termination of Gaussian 16 at Thu Dec 10 17:00:05 2020.

 ----------------------------------------------------------------------
 # B3LYP/6-311++G(d,p) empiricaldispersion=gd3bj scf=xqc pop=npa geom=c
 heck
 ----------------------------------------------------------------------

 ---------------------------------------
 CID_148840849_JID_5683_Energie_neutraal
 ---------------------------------------
 Structure from the checkpoint file:  "JID_5683.chk"
 Charge =  0 Multiplicity = 1

 SCF Done:  E(RB3LYP) =  -1058.79984429     A.U. after   15 cycles
 Normal termination of Gaussian 16 at Thu Dec 10 17:04:51 2020.

 ----------------------------------------------------------------------
 # B3LYP/6-311++G(d,p) empiricaldispersion=gd3bj scf=xqc pop=npa geom=c
 heck
 ----------------------------------------------------------------------

 -------------------------------------
 CID_148840849_JID_5683_Energie_kation
 -------------------------------------
 Structure from the checkpoint file:  "JID_5683.chk"
 Charge =  1 Multiplicity = 2

 SCF Done:  E(UB3LYP) =  -1058.52069835     A.U. after   26 cycles
 Normal termination of Gaussian 16 at Thu Dec 10 17:26:52 2020.
 Gaussian 16:  ES64L-G16RevA.03 25-Dec-2016

 ----------------------------------------------------------------------
 # B3LYP/6-311++G(d,p) empiricaldispersion=gd3bj scf=xqc pop=npa geom=c
 heck
 ----------------------------------------------------------------------

 ------------------------------------
 CID_148840849_JID_5683_Energie_anion
 ------------------------------------
 Structure from the checkpoint file:  "JID_5683.chk"
 Charge = -1 Multiplicity = 2

                         Standard orientation:
 ---------------------------------------------------------------------
 Center     Atomic      Atomic             Coordinates (Angstroms)
 Number     Number       Type             X           Y           Z
 ---------------------------------------------------------------------
      1          6           0       -2.003722    0.398593    1.722356
      2         16           0       -2.504942   -0.151196    0.074194
      3          6           0       -2.297837   -1.794492    0.077040
      4          8           0       -3.743876    0.582931   -0.306947
      5          7           0       -1.327911    0.448025   -1.037404
      6          6           0       -0.051603    0.859892   -0.565694
      7          6           0        0.312059    2.178784   -0.392457
      8          7           0        1.641064    2.234659   -0.018279
      9          6           0        2.144826    0.961543    0.067528
     10          7           0        3.410898    0.657626    0.382907
     11          6           0        3.629030   -0.657869    0.352888
     12          7           0        2.760893   -1.640583    0.081613
     13          6           0        1.487061   -1.314342   -0.219640
     14          6           0        1.108629    0.056959   -0.261282
     15          7           0        0.629758   -2.323220   -0.493421
     16          1           0       -2.702108   -0.055022    2.428660
     17          1           0       -2.100790    1.484719    1.742225
     18          1           0       -0.979947    0.088896    1.927156
     19          1           0       -2.765142   -2.257013    0.944837
     20          1           0       -2.574453   -2.226199   -0.884010
     21          1           0       -1.808011    1.201804   -1.526920
     22          1           0       -0.270825    3.076914   -0.538269
     23          1           0        2.195300    3.066587    0.118057
     24          1           0        4.642058   -0.979473    0.586960
     25          1           0       -0.376721   -2.171032   -0.330679
     26          1           0        0.997143   -3.244459   -0.291882
 ---------------------------------------------------------------------

 SCF Done:  E(UB3LYP) =  -1058.79483503     A.U. after   33 cycles
 SCF Done:  E(UB3LYP) =  -1058.79483503     a.u. after    1 cycles

 The electronic state is 2-A.
 Alpha  occ. eigenvalues --  -88.94131 -19.01539 -14.26542 -14.26137 -14.21950
 Alpha  occ. eigenvalues --  -14.20578 -14.20159 -10.15762 -10.14292 -10.13262
 Alpha  occ. eigenvalues --  -10.11957 -10.11268 -10.11238 -10.08494 -10.06322
 Alpha  occ. eigenvalues --   -8.00888  -5.97188  -5.97048  -5.96837  -0.97527
 Alpha  occ. eigenvalues --   -0.91172  -0.87287  -0.84422  -0.82409  -0.75840
 Alpha  occ. eigenvalues --   -0.72862  -0.69157  -0.64461  -0.63320  -0.55937
 Alpha  occ. eigenvalues --   -0.54424  -0.53208  -0.49529  -0.47285  -0.44380
 Alpha  occ. eigenvalues --   -0.43039  -0.40821  -0.39571  -0.39134  -0.37896
 Alpha  occ. eigenvalues --   -0.36888  -0.35430  -0.34594  -0.34076  -0.33354
 Alpha  occ. eigenvalues --   -0.33156  -0.31808  -0.30663  -0.29788  -0.25558
 Alpha  occ. eigenvalues --   -0.23543  -0.22463  -0.21299  -0.20002  -0.17014
 Alpha  occ. eigenvalues --   -0.16412  -0.15734  -0.13337  -0.11113   0.04001
 Alpha virt. eigenvalues --    0.06326   0.06545   0.07960   0.08390   0.08953
 Alpha virt. eigenvalues --    0.09176   0.09361   0.10115   0.10788   0.11050
 Alpha virt. eigenvalues --    0.11493   0.12112   0.12990   0.13180   0.13605

  Beta  occ. eigenvalues --  -88.94116 -19.01528 -14.26493 -14.26112 -14.21938
  Beta  occ. eigenvalues --  -14.20549 -14.20171 -10.15717 -10.14298 -10.13240
  Beta  occ. eigenvalues --  -10.11945 -10.11187 -10.11150 -10.08494 -10.06303
  Beta  occ. eigenvalues --   -8.00869  -5.97175  -5.97030  -5.96817  -0.97487
  Beta  occ. eigenvalues --   -0.91116  -0.87233  -0.84370  -0.82357  -0.75813
  Beta  occ. eigenvalues --   -0.72795  -0.69100  -0.64363  -0.63228  -0.55837
  Beta  occ. eigenvalues --   -0.54381  -0.53112  -0.49462  -0.47224  -0.44338
  Beta  occ. eigenvalues --   -0.43006  -0.40761  -0.39519  -0.39079  -0.37849
  Beta  occ. eigenvalues --   -0.36828  -0.35337  -0.34532  -0.34030  -0.33295
  Beta  occ. eigenvalues --   -0.33103  -0.31761  -0.30618  -0.29642  -0.25424
  Beta  occ. eigenvalues --   -0.23509  -0.22401  -0.21253  -0.19964  -0.16916
  Beta  occ. eigenvalues --   -0.16397  -0.15675  -0.13308  -0.10929
  Beta virt. eigenvalues --    0.06733   0.06878   0.07882   0.08234   0.08690
  Beta virt. eigenvalues --    0.09265   0.09441   0.09904   0.10330   0.11185
  Beta virt. eigenvalues --    0.11411   0.11737   0.12298   0.13183   0.13521

 Mulliken charges and spin densities:
               1          2
     1  C    0.671201  -1.214240
     2  S   -0.416355   0.260559
     3  C   -0.208419  -0.279109
     4  O   -0.160729   0.023563
     5  N   -0.248111   0.165849
     6  C    0.373059  -0.837372
     7  C    0.472043  -0.415459
     8  N   -0.270530   0.058867
     9  C   -1.022881   0.425962
    10  N   -0.122559   0.005896
    11  C    0.253029  -0.156662
    12  N   -0.202142   0.015644
    13  C   -0.435445  -0.281382
    14  C    2.019540  -0.841810
    15  N   -0.381525   0.010827
    16  H   -0.528590   0.767759
    17  H   -0.252457   0.502668
    18  H   -0.072721   0.297986
    19  H    0.006018   0.140253
    20  H    0.142013   0.064883
    21  H    0.296399  -0.007397
    22  H   -1.325356   1.534042
    23  H   -0.407870   0.754739
    24  H    0.178506   0.006524
    25  H    0.409050  -0.034292
    26  H    0.234831   0.031705
 Sum of Mulliken charges =  -1.00000   1.00000

 Dipole moment (field-independent basis, Debye):
    X=              1.0539    Y=             -6.3525    Z=             -2.8309  Tot=              7.0342
 Quadrupole moment (field-independent basis, Debye-Ang):
   XX=           -158.5588   YY=           -149.2809   ZZ=           -125.5394
   XY=              0.8268   XZ=              5.4717   YZ=             -5.0413

 Summary of Natural Population Analysis:

                                       Natural Population
                Natural  -----------------------------------------------
    Atom  No    Charge         Core      Valence    Rydberg      Total
 -----------------------------------------------------------------------
      C    1   -0.37820      0.99961     2.36834    0.01025     3.37820
      S    2    0.92392      4.99904     2.00013    0.07691     7.07608
      C    3   -0.53014      0.99963     2.51424    0.01626     3.53014
      O    4   -0.47238      0.99992     3.46690    0.00557     4.47238
      N    5   -0.40739      0.99970     2.89469    0.01300     3.90739
      C    6    0.02529      0.99945     1.96041    0.01485     2.97471
      C    7    0.00820      0.99950     1.97868    0.01363     2.99180
      N    8   -0.26448      0.99966     2.75400    0.01082     3.76448
      C    9    0.19707      0.99950     1.78718    0.01626     2.80293
      N   10   -0.27119      0.99967     2.76132    0.01019     3.77119
      C   11    0.14372      0.99967     1.83762    0.01899     2.85628
      N   12   -0.29321      0.99968     2.78314    0.01039     3.79321
      C   13    0.22914      0.99953     1.75650    0.01482     2.77086
      C   14   -0.10652      0.99939     2.09776    0.00936     3.10652
      N   15   -0.39219      0.99968     2.88401    0.00850     3.89219
      H   16    0.12174      0.00000     0.37570    0.00257     0.37826
      H   17    0.12574      0.00000     0.37179    0.00247     0.37426
      H   18    0.12110      0.00000     0.37719    0.00171     0.37890
      H   19    0.11314      0.00000     0.38582    0.00104     0.38686
      H   20    0.11332      0.00000     0.38569    0.00099     0.38668
      H   21    0.19848      0.00000     0.29907    0.00245     0.30152
      H   22    0.10897      0.00000     0.38501    0.00602     0.39103
      H   23    0.20928      0.00000     0.28272    0.00801     0.29072
      H   24    0.07902      0.00000     0.41994    0.00104     0.42098
      H   25    0.20998      0.00000     0.28726    0.00275     0.29002
      H   26    0.18759      0.00000     0.31029    0.00212     0.31241
 =======================================================================
   * Total *   -0.00000     18.99363    39.72541    0.28096    59.00000

 Normal termination of Gaussian 16 at Thu Dec 10 17:39:23 2020.
