 Gaussian 16, Revision A.03,

 -----------------------------------------------------------
 # opt freq B3LYP/6-31G(d) empiricaldispersion=gd3bj scf=xqc
 -----------------------------------------------------------

 ------------------------------
 CID_61675884_JID_9282_neutraal
 ------------------------------
 Symbolic Z-matrix:
 Charge =  0 Multiplicity = 1

 SCF Done:  E(RB3LYP) =  -863.508371185     A.U. after   15 cycles
 SCF Done:  E(RB3LYP) =  -863.511589729     A.U. after   14 cycles
 SCF Done:  E(RB3LYP) =  -863.509319998     A.U. after   14 cycles
 SCF Done:  E(RB3LYP) =  -863.511979408     A.U. after   12 cycles
 SCF Done:  E(RB3LYP) =  -863.513283973     A.U. after   14 cycles
 SCF Done:  E(RB3LYP) =  -863.513758063     A.U. after   12 cycles
 SCF Done:  E(RB3LYP) =  -863.513887311     A.U. after   11 cycles
 SCF Done:  E(RB3LYP) =  -863.513916192     A.U. after   11 cycles
 SCF Done:  E(RB3LYP) =  -863.513928120     A.U. after   10 cycles
 SCF Done:  E(RB3LYP) =  -863.513934128     A.U. after   10 cycles
 SCF Done:  E(RB3LYP) =  -863.513985396     A.U. after   11 cycles
 SCF Done:  E(RB3LYP) =  -863.513986730     A.U. after   10 cycles
 SCF Done:  E(RB3LYP) =  -863.513986909     A.U. after    7 cycles
 SCF Done:  E(RB3LYP) =  -863.513986927     A.U. after    7 cycles
 SCF Done:  E(RB3LYP) =  -863.513986934     A.U. after    7 cycles
 Optimization completed.
    -- Stationary point found.
 Normal termination of Gaussian 16 at Mon Dec 14 16:55:00 2020.

 --------------------------------------------------------------------
 #N Geom=AllCheck Guess=TCheck SCRF=Check GenChk RB3LYP/6-31G(d) Freq
 --------------------------------------------------------------------

 Structure from the checkpoint file:  "JID_9282.chk"
 ------------------------------
 CID_61675884_JID_9282_neutraal
 ------------------------------
 Charge =  0 Multiplicity = 1

 SCF Done:  E(RB3LYP) =  -863.513986934     A.U. after    1 cycles

  Exact polarizability: 222.340   4.587 164.340   9.549  -9.787 116.640
 Approx polarizability: 282.423   6.276 274.748  18.946 -32.398 181.098

                      1                      2                      3
                      A                      A                      A
 Frequencies --     12.5565                34.1013                53.9481
 Red. masses --      5.6596                 4.5046                 5.5955
 Frc consts  --      0.0005                 0.0031                 0.0096
 IR Inten    --      0.0739                 2.6650                 4.6407

                      4                      5                      6
                      A                      A                      A
 Frequencies --     66.3316                97.4627               109.7706
 Red. masses --      4.4024                 6.8380                 5.4566
 Frc consts  --      0.0114                 0.0383                 0.0387
 IR Inten    --      0.9149                 8.4647                 1.8017

                      7                      8                      9
                      A                      A                      A
 Frequencies --    146.3492               175.5588               194.8229
 Red. masses --      2.8326                 3.6043                 3.9856
 Frc consts  --      0.0357                 0.0655                 0.0891
 IR Inten    --      1.4940                 6.1343                 3.7893

                     10                     11                     12
                      A                      A                      A
 Frequencies --    214.1057               228.0882               244.7778
 Red. masses --      3.4235                 1.1452                 2.6387
 Frc consts  --      0.0925                 0.0351                 0.0932
 IR Inten    --      0.1217                 0.3940                 3.8375

                     13                     14                     15
                      A                      A                      A
 Frequencies --    252.1566               271.3214               297.2367
 Red. masses --      1.6096                 2.0878                 2.7482
 Frc consts  --      0.0603                 0.0906                 0.1431
 IR Inten    --      1.8680                 0.9431                 2.6041

                     16                     17                     18
                      A                      A                      A
 Frequencies --    318.3737               318.5258               349.8474
 Red. masses --      2.6685                 3.2590                 2.0331
 Frc consts  --      0.1594                 0.1948                 0.1466
 IR Inten    --      6.1991                 4.1654                19.5543

                     19                     20                     21
                      A                      A                      A
 Frequencies --    358.4806               377.5486               389.8594
 Red. masses --      1.8336                 2.7719                 3.2307
 Frc consts  --      0.1388                 0.2328                 0.2893
 IR Inten    --     53.7870                37.6578                 0.5159

                     22                     23                     24
                      A                      A                      A
 Frequencies --    446.6918               452.7814               464.8842
 Red. masses --      3.4348                 3.1948                 3.2732
 Frc consts  --      0.4038                 0.3859                 0.4168
 IR Inten    --      0.6078                 6.0921                 1.7866

                     25                     26                     27
                      A                      A                      A
 Frequencies --    483.6188               503.5317               512.0099
 Red. masses --      2.8582                 3.2836                 3.3291
 Frc consts  --      0.3939                 0.4905                 0.5142
 IR Inten    --      0.5919                16.9119                 0.3909

                     28                     29                     30
                      A                      A                      A
 Frequencies --    548.0694               575.6458               583.1422
 Red. masses --      3.9925                 3.4129                 3.8882
 Frc consts  --      0.7066                 0.6663                 0.7790
 IR Inten    --      2.9612                 8.5191                 1.9063

                     31                     32                     33
                      A                      A                      A
 Frequencies --    644.5291               674.2041               704.0475
 Red. masses --      4.3816                 4.9852                 4.2210
 Frc consts  --      1.0724                 1.3351                 1.2327
 IR Inten    --      4.6937                 4.7562                 4.5806

                     34                     35                     36
                      A                      A                      A
 Frequencies --    739.3955               771.6964               790.7274
 Red. masses --      3.6329                 4.3948                 1.7856
 Frc consts  --      1.1702                 1.5420                 0.6578
 IR Inten    --     12.8718                 9.3306                 5.6195

                     37                     38                     39
                      A                      A                      A
 Frequencies --    805.3951               819.1388               844.6483
 Red. masses --      3.4834                 1.4590                 3.2228
 Frc consts  --      1.3313                 0.5768                 1.3547
 IR Inten    --      1.2517                26.1667                 5.8446

                     40                     41                     42
                      A                      A                      A
 Frequencies --    860.9368               895.3934               927.3604
 Red. masses --      1.4594                 2.8559                 2.1008
 Frc consts  --      0.6373                 1.3490                 1.0644
 IR Inten    --     26.0052                10.8254                 5.1778

                     43                     44                     45
                      A                      A                      A
 Frequencies --    931.9253               953.7381               960.0530
 Red. masses --      2.0879                 1.4815                 1.2898
 Frc consts  --      1.0684                 0.7940                 0.7004
 IR Inten    --      0.4031                 0.1667                 1.7215

                     46                     47                     48
                      A                      A                      A
 Frequencies --    970.6461              1007.3996              1017.1396
 Red. masses --      2.6673                 1.8200                 2.0524
 Frc consts  --      1.4806                 1.0883                 1.2510
 IR Inten    --      1.6547                20.7133                31.6831

                     49                     50                     51
                      A                      A                      A
 Frequencies --   1024.6199              1056.9972              1080.6784
 Red. masses --      2.1402                 2.0777                 2.0980
 Frc consts  --      1.3238                 1.3677                 1.4436
 IR Inten    --     20.7793                42.6103                19.0554

                     52                     53                     54
                      A                      A                      A
 Frequencies --   1085.4108              1097.9959              1108.8326
 Red. masses --      2.4964                 2.7577                 2.3871
 Frc consts  --      1.7328                 1.9589                 1.7292
 IR Inten    --     15.9013                54.7027                 4.7954

                     55                     56                     57
                      A                      A                      A
 Frequencies --   1145.6183              1166.3593              1198.0638
 Red. masses --      1.6049                 1.9580                 2.0735
 Frc consts  --      1.2410                 1.5694                 1.7535
 IR Inten    --     16.9227               163.3770               371.3545

                     58                     59                     60
                      A                      A                      A
 Frequencies --   1214.3456              1225.6543              1237.5000
 Red. masses --      1.8279                 1.2205                 1.7391
 Frc consts  --      1.5881                 1.0802                 1.5691
 IR Inten    --     45.9858                42.8713                17.1270

                     61                     62                     63
                      A                      A                      A
 Frequencies --   1263.0543              1273.8356              1287.3150
 Red. masses --      1.5844                 1.5299                 2.0025
 Frc consts  --      1.4892                 1.4627                 1.9552
 IR Inten    --     12.4144                 0.5510                 6.9711

                     64                     65                     66
                      A                      A                      A
 Frequencies --   1295.4287              1302.2882              1322.4903
 Red. masses --      1.8637                 1.7057                 1.7576
 Frc consts  --      1.8427                 1.7043                 1.8112
 IR Inten    --     80.9637                 3.1786                30.7256

                     67                     68                     69
                      A                      A                      A
 Frequencies --   1342.0603              1362.3810              1366.1307
 Red. masses --      1.8709                 2.7041                 2.0062
 Frc consts  --      1.9854                 2.9572                 2.2061
 IR Inten    --     70.9825                61.6479                36.3637

                     70                     71                     72
                      A                      A                      A
 Frequencies --   1374.3983              1398.7148              1409.7520
 Red. masses --      1.3738                 1.7030                 1.4316
 Frc consts  --      1.5290                 1.9630                 1.6763
 IR Inten    --      3.2590                39.4180                 8.4505

                     73                     74                     75
                      A                      A                      A
 Frequencies --   1429.2825              1429.4420              1446.5122
 Red. masses --      1.3166                 1.3242                 1.2501
 Frc consts  --      1.5846                 1.5942                 1.5411
 IR Inten    --     19.5089                17.3204                17.7177

                     76                     77                     78
                      A                      A                      A
 Frequencies --   1449.0817              1484.0999              1499.4644
 Red. masses --      1.2138                 4.3196                 1.0872
 Frc consts  --      1.5017                 5.6055                 1.4403
 IR Inten    --     58.7891                48.3063                11.6087

                     79                     80                     81
                      A                      A                      A
 Frequencies --   1502.7706              1504.0476              1514.1866
 Red. masses --      1.0724                 1.0900                 1.0719
 Frc consts  --      1.4269                 1.4528                 1.4480
 IR Inten    --      0.0449                 6.9636                 1.2354

                     82                     83                     84
                      A                      A                      A
 Frequencies --   1519.9687              1525.7349              1541.5425
 Red. masses --      1.0494                 1.0688                 1.1488
 Frc consts  --      1.4284                 1.4659                 1.6084
 IR Inten    --      2.5162                 3.2541                19.3808

                     85                     86                     87
                      A                      A                      A
 Frequencies --   1542.9052              1548.5368              1626.6494
 Red. masses --      1.0861                 2.4247                 7.3521
 Frc consts  --      1.5233                 3.4257                11.4617
 IR Inten    --      4.3620               168.4341                55.0669

                     88                     89                     90
                      A                      A                      A
 Frequencies --   1677.3579              2368.4270              3040.9778
 Red. masses --      6.8145                12.5962                 1.0684
 Frc consts  --     11.2963                41.6302                 5.8210
 IR Inten    --    248.7578                 6.1147                14.2184

                     91                     92                     93
                      A                      A                      A
 Frequencies --   3056.4714              3059.7264              3063.2291
 Red. masses --      1.0676                 1.0467                 1.0616
 Frc consts  --      5.8760                 5.7737                 5.8688
 IR Inten    --     13.4116                37.0769                13.7988

                     94                     95                     96
                      A                      A                      A
 Frequencies --   3064.0856              3070.0969              3078.9724
 Red. masses --      1.0368                 1.0607                 1.0592
 Frc consts  --      5.7352                 5.8905                 5.9164
 IR Inten    --     17.2366                 9.3745                44.9779

                     97                     98                     99
                      A                      A                      A
 Frequencies --   3107.1504              3108.1354              3115.8000
 Red. masses --      1.1033                 1.0987                 1.1028
 Frc consts  --      6.2757                 6.2533                 6.3082
 IR Inten    --     10.1572                30.0316                15.1138

                    100                    101                    102
                      A                      A                      A
 Frequencies --   3126.1478              3130.1810              3136.6301
 Red. masses --      1.1066                 1.1027                 1.1033
 Frc consts  --      6.3717                 6.3659                 6.3956
 IR Inten    --     23.6857                 2.9927                24.6143

                    103                    104                    105
                      A                      A                      A
 Frequencies --   3137.3550              3141.0318              3205.5799
 Red. masses --      1.1024                 1.1025                 1.0893
 Frc consts  --      6.3932                 6.4085                 6.5952
 IR Inten    --     39.8982                27.0579                 2.9845

                    106                    107                    108
                      A                      A                      A
 Frequencies --   3230.9393              3251.7873              3716.5234
 Red. masses --      1.0911                 1.0908                 1.0657
 Frc consts  --      6.7110                 6.7958                 8.6727
 IR Inten    --      1.1761                 2.7738                 8.4271

 - Thermochemistry -
 -------------------
 Temperature   298.150 Kelvin.  Pressure   1.00000 Atm.
 Atom     1 has atomic number  6 and mass  12.00000

 Molecular mass:   261.13649 amu.
 Principal axes and moments of inertia in atomic units:
                           1         2         3
     Eigenvalues --  2378.728429211.26675**********
           X            0.99998   0.00561  -0.00064
           Y           -0.00561   0.99998  -0.00374
           Z            0.00061   0.00374   0.99999
 This molecule is an asymmetric top.
 Rotational symmetry number  1.
 Warning -- assumption of classical behavior for rotation
           may cause significant error
 Rotational temperatures (Kelvin)      0.03641     0.00940     0.00815
 Rotational constants (GHZ):           0.75870     0.19593     0.16977
 Zero-point vibrational energy     840321.2 (Joules/Mol)
                                  200.84158 (Kcal/Mol)
 Warning -- explicit consideration of  30 degrees of freedom as
           vibrations may cause significant error
 Vibrational temperatures:     18.07    49.06    77.62    95.44   140.23
          (Kelvin)            157.94   210.56   252.59   280.31   308.05
                              328.17   352.18   362.80   390.37   427.66
                              458.07   458.29   503.35   515.77   543.21
                              560.92   642.69   651.45   668.86   695.82
                              724.47   736.67   788.55   828.23   839.01
                              927.33   970.03  1012.97  1063.83  1110.30
                             1137.68  1158.78  1178.56  1215.26  1238.70
                             1288.27  1334.26  1340.83  1372.22  1381.30
                             1396.54  1449.42  1463.44  1474.20  1520.78
                             1554.86  1561.66  1579.77  1595.36  1648.29
                             1678.13  1723.75  1747.17  1763.44  1780.49
                             1817.25  1832.77  1852.16  1863.83  1873.70
                             1902.77  1930.93  1960.16  1965.56  1977.45
                             2012.44  2028.32  2056.42  2056.65  2081.21
                             2084.91  2135.29  2157.39  2162.15  2163.99
                             2178.58  2186.90  2195.19  2217.94  2219.90
                             2228.00  2340.39  2413.34  3407.64  4375.29
                             4397.58  4402.26  4407.30  4408.54  4417.18
                             4429.95  4470.50  4471.91  4482.94  4497.83
                             4503.63  4512.91  4513.95  4519.24  4612.11
                             4648.60  4678.60  5347.25

 Zero-point correction=                           0.320061 (Hartree/Particle)
 Thermal correction to Energy=                    0.338373
 Thermal correction to Enthalpy=                  0.339317
 Thermal correction to Gibbs Free Energy=         0.272688
 Sum of electronic and zero-point Energies=           -863.193926
 Sum of electronic and thermal Energies=              -863.175614
 Sum of electronic and thermal Enthalpies=            -863.174670
 Sum of electronic and thermal Free Energies=         -863.241299

                     E (Thermal)             CV                S
                      KCal/Mol        Cal/Mol-Kelvin    Cal/Mol-Kelvin
 Total                  212.332             70.879            140.233
 Electronic               0.000              0.000              0.000
 Translational            0.889              2.981             42.579
 Rotational               0.889              2.981             33.809
 Vibrational            210.555             64.917             63.844
 Vibration     1          0.593              1.987              7.559
 Vibration     2          0.594              1.983              5.575
 Vibration     3          0.596              1.976              4.667
 Vibration     4          0.598              1.970              4.259
 Vibration     5          0.603              1.951              3.504
 Vibration     6          0.606              1.941              3.273
 Vibration     7          0.617              1.907              2.719
 Vibration     8          0.628              1.872              2.375
 Vibration     9          0.635              1.847              2.181
 Vibration    10          0.644              1.819              2.008
 Vibration    11          0.651              1.798              1.894
 Vibration    12          0.660              1.771              1.768
 Vibration    13          0.664              1.759              1.715
 Vibration    14          0.675              1.726              1.588
 Vibration    15          0.691              1.679              1.432
 Vibration    16          0.705              1.638              1.318
 Vibration    17          0.705              1.638              1.318
 Vibration    18          0.727              1.576              1.167
 Vibration    19          0.733              1.558              1.129
 Vibration    20          0.748              1.518              1.049
 Vibration    21          0.758              1.492              1.001
 Vibration    22          0.806              1.368              0.806
 Vibration    23          0.811              1.355              0.787
 Vibration    24          0.822              1.328              0.752
 Vibration    25          0.840              1.286              0.700
 Vibration    26          0.859              1.242              0.649
 Vibration    27          0.867              1.223              0.629
 Vibration    28          0.903              1.144              0.548
 Vibration    29          0.932              1.084              0.493
 Vibration    30          0.940              1.068              0.480

 Optimization completed.
    -- Stationary point found.
 Normal termination of Gaussian 16 at Mon Dec 14 17:15:07 2020.

 ----------------------------------------------------------------------
 # B3LYP/6-311++G(d,p) empiricaldispersion=gd3bj scf=xqc pop=npa geom=c
 heck
 ----------------------------------------------------------------------

 --------------------------------------
 CID_61675884_JID_9282_Energie_neutraal
 --------------------------------------
 Structure from the checkpoint file:  "JID_9282.chk"
 Charge =  0 Multiplicity = 1

 SCF Done:  E(RB3LYP) =  -863.758553972     A.U. after   15 cycles
 Normal termination of Gaussian 16 at Mon Dec 14 17:24:36 2020.

 ----------------------------------------------------------------------
 # B3LYP/6-311++G(d,p) empiricaldispersion=gd3bj scf=xqc pop=npa geom=c
 heck
 ----------------------------------------------------------------------

 ------------------------------------
 CID_61675884_JID_9282_Energie_kation
 ------------------------------------
 Structure from the checkpoint file:  "JID_9282.chk"
 Charge =  1 Multiplicity = 2

 SCF Done:  E(UB3LYP) =  -863.473555226     A.U. after   24 cycles
 Normal termination of Gaussian 16 at Mon Dec 14 17:45:16 2020.
 Gaussian 16:  ES64L-G16RevA.03 25-Dec-2016

 ----------------------------------------------------------------------
 # B3LYP/6-311++G(d,p) empiricaldispersion=gd3bj scf=xqc pop=npa geom=c
 heck
 ----------------------------------------------------------------------

 -----------------------------------
 CID_61675884_JID_9282_Energie_anion
 -----------------------------------
 Structure from the checkpoint file:  "JID_9282.chk"
 Charge = -1 Multiplicity = 2

                         Standard orientation:
 ---------------------------------------------------------------------
 Center     Atomic      Atomic             Coordinates (Angstroms)
 Number     Number       Type             X           Y           Z
 ---------------------------------------------------------------------
      1          6           0        4.500455   -1.231774    1.202520
      2          6           0        3.538070   -0.556565    0.231174
      3          6           0        3.362896    0.928110    0.571403
      4          6           0        2.304996    1.594287   -0.311392
      5          6           0        1.071999    0.718966   -0.367482
      6          6           0        1.133189   -0.638351    0.001679
      7          8           0        2.275179   -1.247600    0.432665
      8          6           0       -0.009747   -1.436146   -0.031293
      9          6           0       -1.234937   -0.896470   -0.428799
     10          6           0       -1.320359    0.452291   -0.800998
     11          6           0       -0.164721    1.230698   -0.762215
     12          8           0       -2.276963   -1.786807   -0.414849
     13          6           0       -3.598831   -1.397811   -0.780886
     14          6           0       -4.459320   -1.152406    0.456876
     15          6           0       -4.049142    0.082293    1.285612
     16          6           0       -4.277837    1.333190    0.559228
     17          7           0       -4.467690    2.299935   -0.054767
     18          8           0        2.013031    2.923040    0.119414
     19          6           0        3.977893   -0.780796   -1.220438
     20          1           0        4.167565   -1.086780    2.234888
     21          1           0        5.506231   -0.812697    1.095476
     22          1           0        4.546847   -2.306748    1.002092
     23          1           0        3.045438    1.006021    1.620019
     24          1           0        4.317450    1.455568    0.477072
     25          1           0        2.712949    1.737417   -1.319049
     26          1           0        0.053668   -2.479912    0.253590
     27          1           0       -2.251490    0.912186   -1.102670
     28          1           0       -0.222946    2.281143   -1.031114
     29          1           0       -3.596836   -0.533290   -1.451191
     30          1           0       -4.007947   -2.246102   -1.338400
     31          1           0       -5.506178   -1.052892    0.146251
     32          1           0       -4.389965   -2.033361    1.103952
     33          1           0       -4.620679    0.113437    2.220255
     34          1           0       -2.988951    0.023813    1.554955
     35          1           0        1.502288    2.844008    0.942134
     36          1           0        4.919016   -0.258301   -1.423616
     37          1           0        4.125489   -1.849457   -1.403009
     38          1           0        3.224267   -0.419759   -1.926034
 ---------------------------------------------------------------------

 SCF Done:  E(UB3LYP) =  -863.749962766     A.U. after   33 cycles
 SCF Done:  E(UB3LYP) =  -863.749962766     a.u. after    1 cycles

 The electronic state is 2-A.
 Alpha  occ. eigenvalues --  -19.06965 -19.06451 -19.04592 -14.22709 -10.16105
 Alpha  occ. eigenvalues --  -10.15561 -10.15317 -10.14858 -10.14779 -10.12806
 Alpha  occ. eigenvalues --  -10.12745 -10.10321 -10.09360 -10.09032 -10.08955
 Alpha  occ. eigenvalues --  -10.08396 -10.08318 -10.08230 -10.08106  -0.98560
 Alpha  occ. eigenvalues --   -0.98370  -0.94834  -0.82548  -0.77449  -0.73959
 Alpha  occ. eigenvalues --   -0.73323  -0.69352  -0.66832  -0.64515  -0.62487
 Alpha  occ. eigenvalues --   -0.61760  -0.56813  -0.55034  -0.53021  -0.52893
 Alpha  occ. eigenvalues --   -0.47707  -0.44565  -0.43887  -0.42829  -0.41932
 Alpha  occ. eigenvalues --   -0.41137  -0.40524  -0.39346  -0.38234  -0.36976
 Alpha  occ. eigenvalues --   -0.35843  -0.35428  -0.34380  -0.34128  -0.32879
 Alpha  occ. eigenvalues --   -0.32528  -0.31518  -0.30764  -0.30258  -0.30019
 Alpha  occ. eigenvalues --   -0.29807  -0.28908  -0.28314  -0.28111  -0.27768
 Alpha  occ. eigenvalues --   -0.27311  -0.25375  -0.24912  -0.24350  -0.24251
 Alpha  occ. eigenvalues --   -0.23144  -0.22243  -0.19901  -0.14934  -0.13518
 Alpha  occ. eigenvalues --    0.03632
 Alpha virt. eigenvalues --    0.04741   0.06404   0.06501   0.06978   0.07384
 Alpha virt. eigenvalues --    0.07577   0.08270   0.08792   0.09119   0.09434
 Alpha virt. eigenvalues --    0.09635   0.10131   0.10226   0.10683   0.11179

  Beta  occ. eigenvalues --  -19.06954 -19.06446 -19.04584 -14.22691 -10.16104
  Beta  occ. eigenvalues --  -10.15559 -10.15317 -10.14847 -10.14773 -10.12771
  Beta  occ. eigenvalues --  -10.12737 -10.10282 -10.09343 -10.09013 -10.08955
  Beta  occ. eigenvalues --  -10.08396 -10.08291 -10.08204 -10.08101  -0.98546
  Beta  occ. eigenvalues --   -0.98360  -0.94816  -0.82514  -0.77436  -0.73941
  Beta  occ. eigenvalues --   -0.73267  -0.69329  -0.66805  -0.64479  -0.62448
  Beta  occ. eigenvalues --   -0.61715  -0.56764  -0.54995  -0.52995  -0.52848
  Beta  occ. eigenvalues --   -0.47677  -0.44535  -0.43864  -0.42798  -0.41888
  Beta  occ. eigenvalues --   -0.41107  -0.40466  -0.39322  -0.38209  -0.36944
  Beta  occ. eigenvalues --   -0.35814  -0.35403  -0.34354  -0.34087  -0.32848
  Beta  occ. eigenvalues --   -0.32498  -0.31486  -0.30727  -0.30222  -0.29983
  Beta  occ. eigenvalues --   -0.29773  -0.28886  -0.28285  -0.28091  -0.27735
  Beta  occ. eigenvalues --   -0.27291  -0.25343  -0.24885  -0.24314  -0.24201
  Beta  occ. eigenvalues --   -0.23127  -0.22204  -0.19879  -0.14899  -0.13499
  Beta virt. eigenvalues --    0.05540   0.06208   0.06524   0.06862   0.07472
  Beta virt. eigenvalues --    0.07818   0.07979   0.08612   0.08899   0.09358
  Beta virt. eigenvalues --    0.09686   0.09712   0.10322   0.10443   0.10873

 Mulliken charges and spin densities:
               1          2
     1  C    0.080473  -0.511076
     2  C   -1.143095   1.577634
     3  C    0.428858  -1.233231
     4  C   -0.160138   0.018219
     5  C    0.657417  -0.276349
     6  C   -0.754025   0.518029
     7  O   -0.018740   0.001375
     8  C   -0.355295   0.055575
     9  C   -0.456450   0.112168
    10  C    0.336928  -0.211634
    11  C    0.194664  -0.552510
    12  O   -0.054550   0.004402
    13  C   -0.336067   0.108794
    14  C    1.594521  -2.046700
    15  C   -0.822725   0.886510
    16  C    0.835243  -0.869760
    17  N   -0.366253   0.030490
    18  O   -0.172451   0.000846
    19  C    0.693785  -1.222289
    20  H   -0.095171   0.246764
    21  H   -0.198338   0.354842
    22  H    0.025532   0.121294
    23  H    0.124597   0.056026
    24  H   -0.154113   0.357403
    25  H    0.124057   0.107875
    26  H    0.090126   0.096228
    27  H    0.234585  -0.119067
    28  H    0.117010   0.085057
    29  H    0.028399   0.128105
    30  H   -0.195163   0.397787
    31  H   -0.190069   0.341459
    32  H   -0.413759   0.633076
    33  H   -0.833021   1.082477
    34  H    0.109822   0.050924
    35  H    0.187725   0.044023
    36  H   -0.246967   0.423591
    37  H    0.025736   0.137933
    38  H    0.076910   0.063709
 Sum of Mulliken charges =  -1.00000   1.00000

 Dipole moment (field-independent basis, Debye):
    X=              3.9909    Y=             -0.1452    Z=             -2.4915  Tot=              4.7070
 Quadrupole moment (field-independent basis, Debye-Ang):
   XX=           -248.1216   YY=           -163.6441   ZZ=           -147.1052
   XY=             -2.3048   XZ=             15.7897   YZ=              5.3525

 Summary of Natural Population Analysis:

                                       Natural Population
                Natural  -----------------------------------------------
    Atom  No    Charge         Core      Valence    Rydberg      Total
 -----------------------------------------------------------------------
      C    1   -0.28804      0.99960     2.28115    0.00729     3.28804
      C    2    0.13681      0.99952     1.84870    0.01497     2.86319
      C    3   -0.21190      0.99956     2.20135    0.01099     3.21190
      C    4    0.06245      0.99951     1.92474    0.01330     2.93755
      C    5   -0.08743      0.99945     2.07889    0.00909     3.08743
      C    6    0.17418      0.99934     1.81386    0.01261     2.82582
      O    7   -0.28753      0.99985     3.27726    0.01041     4.28753
      C    8   -0.14197      0.99948     2.13334    0.00914     3.14197
      C    9    0.16906      0.99938     1.81816    0.01341     2.83094
      C   10   -0.16155      0.99951     2.15458    0.00746     3.16155
      C   11   -0.07471      0.99954     2.06614    0.00903     3.07471
      O   12   -0.27876      0.99986     3.26903    0.00988     4.27876
      C   13   -0.01001      0.99954     1.99872    0.01174     3.01001
      C   14   -0.19334      0.99962     2.18397    0.00975     3.19334
      C   15   -0.25331      0.99954     2.24353    0.01025     3.25331
      C   16    0.16361      0.99966     1.81972    0.01701     2.83639
      N   17   -0.18867      0.99979     2.67806    0.01082     3.68867
      O   18   -0.36561      0.99990     3.35971    0.00600     4.36561
      C   19   -0.29883      0.99960     2.29239    0.00684     3.29883
      H   20    0.10395      0.00000     0.39504    0.00101     0.39605
      H   21    0.10426      0.00000     0.39458    0.00115     0.39574
      H   22    0.10430      0.00000     0.39464    0.00105     0.39570
      H   23    0.10161      0.00000     0.39712    0.00127     0.39839
      H   24    0.11027      0.00000     0.38850    0.00123     0.38973
      H   25    0.09104      0.00000     0.40743    0.00153     0.40896
      H   26    0.11191      0.00000     0.38646    0.00163     0.38809
      H   27    0.10988      0.00000     0.38821    0.00191     0.39012
      H   28    0.10779      0.00000     0.39112    0.00108     0.39221
      H   29    0.08776      0.00000     0.41068    0.00155     0.41224
      H   30    0.09509      0.00000     0.40377    0.00114     0.40491
      H   31    0.10485      0.00000     0.39307    0.00208     0.39515
      H   32    0.10952      0.00000     0.38737    0.00311     0.39048
      H   33    0.12883      0.00000     0.36693    0.00423     0.37117
      H   34    0.12393      0.00000     0.37393    0.00214     0.37607
      H   35    0.22685      0.00000     0.27045    0.00271     0.27315
      H   36    0.10520      0.00000     0.39364    0.00116     0.39480
      H   37    0.10473      0.00000     0.39437    0.00090     0.39527
      H   38    0.10378      0.00000     0.39520    0.00102     0.39622
 =======================================================================
   * Total *   -0.00000     18.99224    50.77585    0.23191    70.00000

 Normal termination of Gaussian 16 at Mon Dec 14 18:14:29 2020.
