 Gaussian 16, Revision A.03,

 -----------------------------------------------------------
 # opt freq B3LYP/6-31G(d) empiricaldispersion=gd3bj scf=xqc
 -----------------------------------------------------------

 -----------------------------
 CID_88855407_JID_542_neutraal
 -----------------------------
 Symbolic Z-matrix:
 Charge =  0 Multiplicity = 1

 SCF Done:  E(RB3LYP) =  -854.680791023     A.U. after   15 cycles
 SCF Done:  E(RB3LYP) =  -854.684361265     A.U. after   13 cycles
 SCF Done:  E(RB3LYP) =  -854.685660234     A.U. after   12 cycles
 SCF Done:  E(RB3LYP) =  -854.686275913     A.U. after   13 cycles
 SCF Done:  E(RB3LYP) =  -854.686619562     A.U. after   12 cycles
 SCF Done:  E(RB3LYP) =  -854.687233215     A.U. after   12 cycles
 SCF Done:  E(RB3LYP) =  -854.687232273     A.U. after   12 cycles
 SCF Done:  E(RB3LYP) =  -854.687321655     A.U. after   12 cycles
 SCF Done:  E(RB3LYP) =  -854.687502612     A.U. after   12 cycles
 SCF Done:  E(RB3LYP) =  -854.687497482     A.U. after   11 cycles
 SCF Done:  E(RB3LYP) =  -854.687507570     A.U. after   11 cycles
 SCF Done:  E(RB3LYP) =  -854.687511030     A.U. after    9 cycles
 SCF Done:  E(RB3LYP) =  -854.687511089     A.U. after    7 cycles
 Optimization completed.
    -- Stationary point found.
 Normal termination of Gaussian 16 at Tue Dec  8 14:09:14 2020.

 --------------------------------------------------------------------
 #N Geom=AllCheck Guess=TCheck SCRF=Check GenChk RB3LYP/6-31G(d) Freq
 --------------------------------------------------------------------

 Structure from the checkpoint file:  "JID_542.chk"
 -----------------------------
 CID_88855407_JID_542_neutraal
 -----------------------------
 Charge =  0 Multiplicity = 1

 SCF Done:  E(RB3LYP) =  -854.687511089     A.U. after    1 cycles

  Exact polarizability: 121.243  11.384  89.572  -1.926   3.612  67.186
 Approx polarizability: 174.714  44.081 162.011   0.658  12.294 104.183

                      1                      2                      3
                      A                      A                      A
 Frequencies --     50.4498                69.6474               114.0639
 Red. masses --      6.5770                 3.7310                 4.4324
 Frc consts  --      0.0099                 0.0107                 0.0340
 IR Inten    --      7.0767                 6.1394                 9.1730

                      4                      5                      6
                      A                      A                      A
 Frequencies --    156.2786               176.3663               197.3046
 Red. masses --      3.9495                 1.5557                 2.3332
 Frc consts  --      0.0568                 0.0285                 0.0535
 IR Inten    --      1.4819                 5.9380                 3.7399

                      7                      8                      9
                      A                      A                      A
 Frequencies --    245.7112               269.0901               304.5664
 Red. masses --      6.0052                 3.1583                 4.1811
 Frc consts  --      0.2136                 0.1347                 0.2285
 IR Inten    --      9.6597                 0.2506                 8.6516

                     10                     11                     12
                      A                      A                      A
 Frequencies --    359.7993               379.0628               417.2539
 Red. masses --      2.7567                 3.5925                 1.8659
 Frc consts  --      0.2103                 0.3041                 0.1914
 IR Inten    --     13.3342                 3.3871                 0.7566

                     13                     14                     15
                      A                      A                      A
 Frequencies --    444.0805               530.9706               563.8483
 Red. masses --      2.2550                 3.0833                 4.1697
 Frc consts  --      0.2620                 0.5122                 0.7811
 IR Inten    --     33.2145                12.8580                 1.2892

                     16                     17                     18
                      A                      A                      A
 Frequencies --    620.5405               652.0310               663.5422
 Red. masses --      1.7017                 2.3615                 3.0968
 Frc consts  --      0.3861                 0.5915                 0.8033
 IR Inten    --     30.8394                39.7642                17.0912

                     19                     20                     21
                      A                      A                      A
 Frequencies --    688.8397               725.1742               771.1773
 Red. masses --      1.3210                 2.7429                 1.9611
 Frc consts  --      0.3693                 0.8498                 0.6871
 IR Inten    --     71.6970                16.7975                18.4230

                     22                     23                     24
                      A                      A                      A
 Frequencies --    822.1657               829.5349               887.4787
 Red. masses --      1.6281                 1.5715                 2.1308
 Frc consts  --      0.6484                 0.6371                 0.9888
 IR Inten    --    138.5688               231.2670                30.7814

                     25                     26                     27
                      A                      A                      A
 Frequencies --    929.5798               956.3090               965.1166
 Red. masses --      2.4718                 2.7145                 1.6469
 Frc consts  --      1.2584                 1.4626                 0.9038
 IR Inten    --      7.6634                 9.2050                22.5429

                     28                     29                     30
                      A                      A                      A
 Frequencies --   1001.5835              1052.6902              1119.6772
 Red. masses --      1.4441                 5.4137                 1.7289
 Frc consts  --      0.8536                 3.5346                 1.2771
 IR Inten    --     22.5837                73.4612                52.3431

                     31                     32                     33
                      A                      A                      A
 Frequencies --   1178.3025              1190.0099              1268.1819
 Red. masses --      1.3231                 1.2681                 1.2468
 Frc consts  --      1.0824                 1.0581                 1.1814
 IR Inten    --      3.3277                14.9372                 0.1003

                     34                     35                     36
                      A                      A                      A
 Frequencies --   1322.7584              1348.0393              1368.0621
 Red. masses --      1.6721                 2.1753                 1.1850
 Frc consts  --      1.7237                 2.3290                 1.3067
 IR Inten    --      3.3938               172.6219                 4.1031

                     37                     38                     39
                      A                      A                      A
 Frequencies --   1454.6218              1474.4940              1475.6615
 Red. masses --      2.5146                 1.1488                 1.1096
 Frc consts  --      3.1349                 1.4716                 1.4237
 IR Inten    --     87.5425                 8.2915                 6.5814

                     40                     41                     42
                      A                      A                      A
 Frequencies --   1491.6519              1650.8230              1681.2994
 Red. masses --      1.0614                 1.2000                 3.5469
 Frc consts  --      1.3914                 1.9267                 5.9073
 IR Inten    --     20.6498                87.8205               146.0764

                     43                     44                     45
                      A                      A                      A
 Frequencies --   1720.4280              1780.4560              3073.5605
 Red. masses --      1.2781                 7.4192                 1.0297
 Frc consts  --      2.2289                13.8570                 5.7312
 IR Inten    --    128.5973               383.0546                 2.7465

                     46                     47                     48
                      A                      A                      A
 Frequencies --   3084.8149              3153.4757              3170.7136
 Red. masses --      1.0607                 1.1050                 1.1056
 Frc consts  --      5.9472                 6.4741                 6.5487
 IR Inten    --      5.7245                 1.8369                 2.5583

                     49                     50                     51
                      A                      A                      A
 Frequencies --   3183.3559              3227.6112              3433.1811
 Red. masses --      1.1070                 1.0898                 1.0565
 Frc consts  --      6.6096                 6.6890                 7.3370
 IR Inten    --      0.5504                 2.5684               158.9354

                     52                     53                     54
                      A                      A                      A
 Frequencies --   3519.0115              3577.3263              3631.7288
 Red. masses --      1.0478                 1.0933                 1.0990
 Frc consts  --      7.6450                 8.2433                 8.5402
 IR Inten    --     18.7282                86.9630                16.5644

 - Thermochemistry -
 -------------------
 Temperature   298.150 Kelvin.  Pressure   1.00000 Atm.
 Atom     1 has atomic number  6 and mass  12.00000

 Molecular mass:   162.04630 amu.
 Principal axes and moments of inertia in atomic units:
                           1         2         3
     Eigenvalues --   758.401563098.971523380.42267
           X            0.99973  -0.02326   0.00021
           Y            0.02326   0.99968  -0.00997
           Z            0.00002   0.00997   0.99995
 This molecule is an asymmetric top.
 Rotational symmetry number  1.
 Warning -- assumption of classical behavior for rotation
           may cause significant error
 Rotational temperatures (Kelvin)      0.11421     0.02795     0.02562
 Rotational constants (GHZ):           2.37966     0.58237     0.53388
 Zero-point vibrational energy     421226.1 (Joules/Mol)
                                  100.67545 (Kcal/Mol)
 Warning -- explicit consideration of  16 degrees of freedom as
           vibrations may cause significant error
 Vibrational temperatures:     72.59   100.21   164.11   224.85   253.75
          (Kelvin)            283.88   353.52   387.16   438.20   517.67
                              545.39   600.34   638.93   763.95   811.25
                              892.82   938.13   954.69   991.09  1043.36
                             1109.55  1182.91  1193.52  1276.88  1337.46
                             1375.92  1388.59  1441.06  1514.59  1610.97
                             1695.31  1712.16  1824.63  1903.15  1939.53
                             1968.34  2092.88  2121.47  2123.15  2146.15
                             2375.17  2419.01  2475.31  2561.68  4422.17
                             4438.36  4537.15  4561.95  4580.14  4643.81
                             4939.58  5063.07  5146.97  5225.25

 Zero-point correction=                           0.160437 (Hartree/Particle)
 Thermal correction to Energy=                    0.171642
 Thermal correction to Enthalpy=                  0.172586
 Thermal correction to Gibbs Free Energy=         0.123200
 Sum of electronic and zero-point Energies=           -854.527075
 Sum of electronic and thermal Energies=              -854.515869
 Sum of electronic and thermal Enthalpies=            -854.514925
 Sum of electronic and thermal Free Energies=         -854.564311

                     E (Thermal)             CV                S
                      KCal/Mol        Cal/Mol-Kelvin    Cal/Mol-Kelvin
 Total                  107.707             41.387            103.943
 Electronic               0.000              0.000              0.000
 Translational            0.889              2.981             41.157
 Rotational               0.889              2.981             30.453
 Vibrational            105.930             35.425             32.334
 Vibration     1          0.595              1.977              4.800
 Vibration     2          0.598              1.969              4.163
 Vibration     3          0.607              1.938              3.199
 Vibration     4          0.620              1.896              2.594
 Vibration     5          0.628              1.871              2.367
 Vibration     6          0.637              1.844              2.158
 Vibration     7          0.660              1.770              1.761
 Vibration     8          0.673              1.730              1.602
 Vibration     9          0.695              1.665              1.392
 Vibration    10          0.734              1.555              1.123
 Vibration    11          0.749              1.515              1.043
 Vibration    12          0.780              1.433              0.901
 Vibration    13          0.804              1.374              0.814
 Vibration    14          0.886              1.181              0.585
 Vibration    15          0.920              1.109              0.516
 Vibration    16          0.981              0.989              0.416

 Optimization completed.
    -- Stationary point found.
 Normal termination of Gaussian 16 at Tue Dec  8 14:13:33 2020.

 ----------------------------------------------------------------------
 # B3LYP/6-311++G(d,p) empiricaldispersion=gd3bj scf=xqc pop=npa geom=c
 heck
 ----------------------------------------------------------------------

 -------------------------------------
 CID_88855407_JID_542_Energie_neutraal
 -------------------------------------
 Structure from the checkpoint file:  "JID_542.chk"
 Charge =  0 Multiplicity = 1

 SCF Done:  E(RB3LYP) =  -854.868481519     A.U. after   16 cycles
 Normal termination of Gaussian 16 at Tue Dec  8 14:15:35 2020.

 ----------------------------------------------------------------------
 # B3LYP/6-311++G(d,p) empiricaldispersion=gd3bj scf=xqc pop=npa geom=c
 heck
 ----------------------------------------------------------------------

 -----------------------------------
 CID_88855407_JID_542_Energie_kation
 -----------------------------------
 Structure from the checkpoint file:  "JID_542.chk"
 Charge =  1 Multiplicity = 2

 SCF Done:  E(UB3LYP) =  -854.564679600     A.U. after   29 cycles
 Normal termination of Gaussian 16 at Tue Dec  8 14:20:49 2020.
 Gaussian 16:  ES64L-G16RevA.03 25-Dec-2016

 ----------------------------------------------------------------------
 # B3LYP/6-311++G(d,p) empiricaldispersion=gd3bj scf=xqc pop=npa geom=c
 heck
 ----------------------------------------------------------------------

 ----------------------------------
 CID_88855407_JID_542_Energie_anion
 ----------------------------------
 Structure from the checkpoint file:  "JID_542.chk"
 Charge = -1 Multiplicity = 2

                         Standard orientation:
 ---------------------------------------------------------------------
 Center     Atomic      Atomic             Coordinates (Angstroms)
 Number     Number       Type             X           Y           Z
 ---------------------------------------------------------------------
      1          6           0       -1.676297    1.496362   -0.955173
      2         16           0       -2.451682    0.261585    0.148410
      3          8           0       -2.607285   -1.030787   -0.642751
      4          6           0       -0.995391    0.000055    1.288281
      5          6           0        0.266105   -0.359637    0.560483
      6          6           0        1.351683    0.458306    0.654977
      7          6           0        2.649829    0.299142   -0.012758
      8          8           0        3.411837    1.239298   -0.205833
      9          7           0        2.968743   -0.990293   -0.466533
     10          7           0        0.180696   -1.534447   -0.156724
     11          1           0       -2.400800    1.703048   -1.745820
     12          1           0       -0.752245    1.099070   -1.380217
     13          1           0       -1.472077    2.407657   -0.385623
     14          1           0       -0.883862    0.904891    1.889975
     15          1           0       -1.332817   -0.821126    1.929318
     16          1           0        1.259979    1.375004    1.224835
     17          1           0        2.698599   -1.755969    0.143410
     18          1           0        3.933812   -1.048395   -0.775109
     19          1           0       -0.766949   -1.767589   -0.458886
     20          1           0        0.885212   -1.642235   -0.879821
 ---------------------------------------------------------------------

 SCF Done:  E(UB3LYP) =  -854.862472012     A.U. after   33 cycles
 SCF Done:  E(UB3LYP) =  -854.862472012     a.u. after    1 cycles

 The electronic state is 2-A.
 Alpha  occ. eigenvalues --  -88.83770 -18.97813 -18.95539 -14.20640 -14.19587
 Alpha  occ. eigenvalues --  -10.13737 -10.09564 -10.09101 -10.08862 -10.02881
 Alpha  occ. eigenvalues --   -7.91519  -5.87786  -5.87644  -5.87105  -0.90635
 Alpha  occ. eigenvalues --   -0.90562  -0.80653  -0.77377  -0.68764  -0.64098
 Alpha  occ. eigenvalues --   -0.60389  -0.51852  -0.47153  -0.44518  -0.41366
 Alpha  occ. eigenvalues --   -0.40469  -0.36965  -0.35822  -0.34192  -0.33261
 Alpha  occ. eigenvalues --   -0.30975  -0.29720  -0.29282  -0.28744  -0.28023
 Alpha  occ. eigenvalues --   -0.26476  -0.25061  -0.22227  -0.16990  -0.16356
 Alpha  occ. eigenvalues --   -0.13656  -0.13010  -0.09884   0.04809
 Alpha virt. eigenvalues --    0.07621   0.07774   0.08459   0.09935   0.11065
 Alpha virt. eigenvalues --    0.11563   0.11835   0.12009   0.12294   0.14057
 Alpha virt. eigenvalues --    0.14542   0.15098   0.16200   0.16586   0.17260

  Beta  occ. eigenvalues --  -88.83738 -18.97802 -18.95396 -14.20606 -14.19547
  Beta  occ. eigenvalues --  -10.13635 -10.09315 -10.09074 -10.08823 -10.02840
  Beta  occ. eigenvalues --   -7.91484  -5.87749  -5.87576  -5.87088  -0.90576
  Beta  occ. eigenvalues --   -0.90329  -0.80413  -0.77227  -0.68602  -0.63875
  Beta  occ. eigenvalues --   -0.60208  -0.51542  -0.46911  -0.44359  -0.41279
  Beta  occ. eigenvalues --   -0.40360  -0.36801  -0.35619  -0.34129  -0.33143
  Beta  occ. eigenvalues --   -0.30836  -0.29575  -0.29074  -0.28347  -0.27869
  Beta  occ. eigenvalues --   -0.26251  -0.24927  -0.21621  -0.16856  -0.16064
  Beta  occ. eigenvalues --   -0.13475  -0.12832  -0.09264
  Beta virt. eigenvalues --    0.07524   0.08244   0.08946   0.09472   0.10590
  Beta virt. eigenvalues --    0.11294   0.11788   0.12091   0.12233   0.12772
  Beta virt. eigenvalues --    0.14358   0.14731   0.15172   0.16323   0.16651

 Mulliken charges and spin densities:
               1          2
     1  C   -0.241106  -0.470901
     2  S    1.027506  -0.348516
     3  O   -0.523099   0.057894
     4  C    1.587666  -2.521331
     5  C   -1.771506   2.252998
     6  C    0.516264  -0.506775
     7  C    0.141140  -0.341890
     8  O   -0.403129   0.050951
     9  N   -0.434695   0.001331
    10  N   -0.451273   0.067783
    11  H   -0.136520   0.313433
    12  H    0.210929   0.039945
    13  H   -0.207039   0.368242
    14  H   -0.549539   0.745306
    15  H   -0.307087   0.576533
    16  H   -0.002826   0.177165
    17  H   -0.001807   0.234385
    18  H    0.210098   0.077591
    19  H    0.197189   0.106609
    20  H    0.138832   0.119249
 Sum of Mulliken charges =  -1.00000   1.00000

 Dipole moment (field-independent basis, Debye):
    X=              0.3448    Y=             -1.5109    Z=             -1.7427  Tot=              2.3321
 Quadrupole moment (field-independent basis, Debye-Ang):
   XX=           -122.4392   YY=            -98.0469   ZZ=            -90.8202
   XY=            -10.6238   XZ=              1.7446   YZ=             -1.7589

 Summary of Natural Population Analysis:

                                       Natural Population
                Natural  -----------------------------------------------
    Atom  No    Charge         Core      Valence    Rydberg      Total
 -----------------------------------------------------------------------
      C    1   -0.38004      0.99962     2.37229    0.00813     3.38004
      S    2    0.58801      4.99949     2.35780    0.05471     7.41199
      O    3   -0.49401      0.99993     3.48813    0.00596     4.49401
      C    4   -0.27844      0.99954     2.26581    0.01309     3.27844
      C    5    0.13798      0.99951     1.84877    0.01373     2.86202
      C    6   -0.20384      0.99944     2.19342    0.01098     3.20384
      C    7    0.33563      0.99968     1.64289    0.02180     2.66437
      O    8   -0.31698      0.99988     3.31103    0.00607     4.31698
      N    9   -0.42939      0.99972     2.92086    0.00881     3.92939
      N   10   -0.40666      0.99969     2.89655    0.01042     3.90666
      H   11    0.10856      0.00000     0.38998    0.00146     0.39144
      H   12    0.11580      0.00000     0.38294    0.00126     0.38420
      H   13    0.11117      0.00000     0.38621    0.00262     0.38883
      H   14    0.11471      0.00000     0.38140    0.00389     0.38529
      H   15    0.11854      0.00000     0.37761    0.00385     0.38146
      H   16    0.10563      0.00000     0.39328    0.00109     0.39437
      H   17    0.18882      0.00000     0.30912    0.00206     0.31118
      H   18    0.18606      0.00000     0.31176    0.00218     0.31394
      H   19    0.20624      0.00000     0.29166    0.00211     0.29376
      H   20    0.19222      0.00000     0.30592    0.00187     0.30778
 =======================================================================
   * Total *    0.00000     13.99649    28.82742    0.17609    43.00000

 Normal termination of Gaussian 16 at Tue Dec  8 14:29:57 2020.
