 Gaussian 16, Revision A.03,

 -----------------------------------------------------------
 # opt freq B3LYP/6-31G(d) empiricaldispersion=gd3bj scf=xqc
 -----------------------------------------------------------

 -------------------------------
 CID_139998788_JID_7265_neutraal
 -------------------------------
 Symbolic Z-matrix:
 Charge =  0 Multiplicity = 1

 SCF Done:  E(RB3LYP) =  -886.139609040     A.U. after   17 cycles
 SCF Done:  E(RB3LYP) =  -886.148952129     A.U. after   15 cycles
 SCF Done:  E(RB3LYP) =  -886.144449616     A.U. after   16 cycles
 SCF Done:  E(RB3LYP) =  -886.151079228     A.U. after   15 cycles
 SCF Done:  E(RB3LYP) =  -886.152307392     A.U. after   14 cycles
 SCF Done:  E(RB3LYP) =  -886.152619573     A.U. after   14 cycles
 SCF Done:  E(RB3LYP) =  -886.152709407     A.U. after   13 cycles
 SCF Done:  E(RB3LYP) =  -886.152730440     A.U. after   12 cycles
 SCF Done:  E(RB3LYP) =  -886.152736075     A.U. after   12 cycles
 SCF Done:  E(RB3LYP) =  -886.152740643     A.U. after   11 cycles
 SCF Done:  E(RB3LYP) =  -886.152743174     A.U. after   11 cycles
 SCF Done:  E(RB3LYP) =  -886.152746968     A.U. after   12 cycles
 SCF Done:  E(RB3LYP) =  -886.152748000     A.U. after   10 cycles
 SCF Done:  E(RB3LYP) =  -886.152748192     A.U. after    9 cycles
 Optimization completed.
    -- Stationary point found.
 Normal termination of Gaussian 16 at Mon Dec 14 13:16:05 2020.

 --------------------------------------------------------------------
 #N Geom=AllCheck Guess=TCheck SCRF=Check GenChk RB3LYP/6-31G(d) Freq
 --------------------------------------------------------------------

 Structure from the checkpoint file:  "JID_7265.chk"
 -------------------------------
 CID_139998788_JID_7265_neutraal
 -------------------------------
 Charge =  0 Multiplicity = 1

 SCF Done:  E(RB3LYP) =  -886.152748192     A.U. after    1 cycles

  Exact polarizability: 189.969  -1.592 154.521  10.206   1.914  60.000
 Approx polarizability: 314.575  -4.292 304.830  35.044   1.403 114.487

                      1                      2                      3
                      A                      A                      A
 Frequencies --     24.6694                47.9907                52.9171
 Red. masses --     11.6687                14.2723                 9.5700
 Frc consts  --      0.0042                 0.0194                 0.0158
 IR Inten    --      0.5115                 0.2549                 2.3723

                      4                      5                      6
                      A                      A                      A
 Frequencies --     61.8515               120.2715               180.9150
 Red. masses --     14.6111                 7.3513                 5.3296
 Frc consts  --      0.0329                 0.0627                 0.1028
 IR Inten    --      0.1555                 2.3269                 0.6475

                      7                      8                      9
                      A                      A                      A
 Frequencies --    202.0145               226.9148               273.3610
 Red. masses --      5.2796                 9.8025                 8.7369
 Frc consts  --      0.1269                 0.2974                 0.3847
 IR Inten    --      1.0180                 4.8522                 3.0552

                     10                     11                     12
                      A                      A                      A
 Frequencies --    301.5759               367.4777               400.1115
 Red. masses --      6.7984                 8.0273                 8.5476
 Frc consts  --      0.3643                 0.6387                 0.8062
 IR Inten    --      3.0074                 4.3559                 8.2259

                     13                     14                     15
                      A                      A                      A
 Frequencies --    423.7672               466.4583               481.0121
 Red. masses --     10.0565                 5.0561                 4.5285
 Frc consts  --      1.0640                 0.6482                 0.6173
 IR Inten    --      2.4131                18.3164                 0.9160

                     16                     17                     18
                      A                      A                      A
 Frequencies --    523.7379               542.1382               576.0534
 Red. masses --      6.7946                 7.8194                 8.2653
 Frc consts  --      1.0981                 1.3541                 1.6160
 IR Inten    --     35.7189                 6.9445                 4.0709

                     19                     20                     21
                      A                      A                      A
 Frequencies --    601.5857               617.9635               671.2356
 Red. masses --      4.5101                 5.5812                 8.8213
 Frc consts  --      0.9617                 1.2557                 2.3417
 IR Inten    --      7.1510                14.9016                 7.0633

                     22                     23                     24
                      A                      A                      A
 Frequencies --    724.8948               737.1029               760.8790
 Red. masses --     11.4110                 9.8417                 2.4079
 Frc consts  --      3.5328                 3.1505                 0.8213
 IR Inten    --     20.0370                62.9207                21.2400

                     25                     26                     27
                      A                      A                      A
 Frequencies --    783.0863               800.2253               811.5768
 Red. masses --      5.9661                 9.1423                 8.1400
 Frc consts  --      2.1556                 3.4493                 3.1589
 IR Inten    --     33.9807               178.5733               126.7029

                     28                     29                     30
                      A                      A                      A
 Frequencies --    817.8903               850.7954               873.2346
 Red. masses --      4.2382                 1.9278                 1.8292
 Frc consts  --      1.6704                 0.8222                 0.8218
 IR Inten    --     13.8689                17.0929                19.8771

                     31                     32                     33
                      A                      A                      A
 Frequencies --    890.3430               942.4400               971.1216
 Red. masses --      6.2950                 7.9320                 1.4079
 Frc consts  --      2.9401                 4.1509                 0.7823
 IR Inten    --     14.5314                 0.2925                 0.9206

                     34                     35                     36
                      A                      A                      A
 Frequencies --    997.2675              1007.4782              1107.1913
 Red. masses --      1.3572                 1.3312                 2.1545
 Frc consts  --      0.7953                 0.7961                 1.5561
 IR Inten    --      0.0375                 1.2681                13.3179

                     37                     38                     39
                      A                      A                      A
 Frequencies --   1112.1445              1142.9537              1195.9523
 Red. masses --      5.4817                 2.2717                 1.2819
 Frc consts  --      3.9948                 1.7485                 1.0803
 IR Inten    --     96.0309                21.6123                22.8479

                     40                     41                     42
                      A                      A                      A
 Frequencies --   1235.4013              1247.7211              1276.3201
 Red. masses --      2.0539                 2.0184                 2.8886
 Frc consts  --      1.8469                 1.8513                 2.7724
 IR Inten    --     13.6283                37.3336               136.3021

                     43                     44                     45
                      A                      A                      A
 Frequencies --   1354.3914              1379.4900              1392.6303
 Red. masses --      3.3424                 6.1682                 4.7237
 Frc consts  --      3.6124                 6.9159                 5.3977
 IR Inten    --    232.0398               162.6088                24.3914

                     46                     47                     48
                      A                      A                      A
 Frequencies --   1399.3994              1429.2234              1447.1265
 Red. masses --      5.7691                 8.8879                 2.4613
 Frc consts  --      6.6564                10.6966                 3.0368
 IR Inten    --    136.4209                14.9963                 8.7045

                     49                     50                     51
                      A                      A                      A
 Frequencies --   1503.0516              1541.8495              1612.1745
 Red. masses --      2.3238                 3.6510                 7.5367
 Frc consts  --      3.0931                 5.1138                11.5413
 IR Inten    --      4.2514                 8.4209                51.5653

                     52                     53                     54
                      A                      A                      A
 Frequencies --   1625.9879              1649.4804              1687.0744
 Red. masses --      8.3024                 6.9899                 7.6217
 Frc consts  --     12.9327                11.2052                12.7812
 IR Inten    --    156.2018                 8.7647                93.1064

                     55                     56                     57
                      A                      A                      A
 Frequencies --   1812.2871              3207.7100              3218.8527
 Red. masses --     14.5554                 1.0916                 1.0891
 Frc consts  --     28.1661                 6.6179                 6.6482
 IR Inten    --    413.6165                17.0717                 3.6378

                     58                     59                     60
                      A                      A                      A
 Frequencies --   3240.2341              3253.6853              3291.8064
 Red. masses --      1.0939                 1.0925                 1.0923
 Frc consts  --      6.7667                 6.8144                 6.9740
 IR Inten    --      2.6542                 1.8167                 5.2682

 - Thermochemistry -
 -------------------
 Temperature   298.150 Kelvin.  Pressure   1.00000 Atm.
 Atom     1 has atomic number  6 and mass  12.00000

 Molecular mass:   235.02292 amu.
 Principal axes and moments of inertia in atomic units:
                           1         2         3
     Eigenvalues --  1646.132016188.261597364.56469
           X            0.99999  -0.00320   0.00059
           Y            0.00320   0.99996   0.00797
           Z           -0.00062  -0.00797   0.99997
 This molecule is an asymmetric top.
 Rotational symmetry number  1.
 Warning -- assumption of classical behavior for rotation
           may cause significant error
 Rotational temperatures (Kelvin)      0.05262     0.01400     0.01176
 Rotational constants (GHZ):           1.09635     0.29164     0.24506
 Zero-point vibrational energy     379793.4 (Joules/Mol)
                                   90.77280 (Kcal/Mol)
 Warning -- explicit consideration of  20 degrees of freedom as
           vibrations may cause significant error
 Vibrational temperatures:     35.49    69.05    76.14    88.99   173.04
          (Kelvin)            260.30   290.65   326.48   393.31   433.90
                              528.72   575.67   609.71   671.13   692.07
                              753.54   780.02   828.81   865.55   889.11
                              965.76  1042.96  1060.53  1094.74  1126.69
                             1151.35  1167.68  1176.76  1224.10  1256.39
                             1281.00  1355.96  1397.23  1434.85  1449.54
                             1593.00  1600.13  1644.46  1720.71  1777.47
                             1795.19  1836.34  1948.67  1984.78  2003.68
                             2013.42  2056.33  2082.09  2162.56  2218.38
                             2319.56  2339.43  2373.23  2427.32  2607.48
                             4615.18  4631.21  4661.97  4681.33  4736.18

 Zero-point correction=                           0.144656 (Hartree/Particle)
 Thermal correction to Energy=                    0.157666
 Thermal correction to Enthalpy=                  0.158610
 Thermal correction to Gibbs Free Energy=         0.102645
 Sum of electronic and zero-point Energies=           -886.008093
 Sum of electronic and thermal Energies=              -885.995082
 Sum of electronic and thermal Enthalpies=            -885.994138
 Sum of electronic and thermal Free Energies=         -886.050103

                     E (Thermal)             CV                S
                      KCal/Mol        Cal/Mol-Kelvin    Cal/Mol-Kelvin
 Total                   98.937             48.655            117.789
 Electronic               0.000              0.000              0.000
 Translational            0.889              2.981             42.265
 Rotational               0.889              2.981             32.684
 Vibrational             97.160             42.694             42.840
 Vibration     1          0.593              1.985              6.218
 Vibration     2          0.595              1.978              4.899
 Vibration     3          0.596              1.976              4.705
 Vibration     4          0.597              1.973              4.397
 Vibration     5          0.609              1.932              3.096
 Vibration     6          0.630              1.866              2.319
 Vibration     7          0.639              1.837              2.115
 Vibration     8          0.651              1.800              1.903
 Vibration     9          0.676              1.722              1.575
 Vibration    10          0.694              1.671              1.408
 Vibration    11          0.740              1.539              1.090
 Vibration    12          0.766              1.470              0.962
 Vibration    13          0.786              1.419              0.879
 Vibration    14          0.824              1.324              0.748
 Vibration    15          0.837              1.292              0.707
 Vibration    16          0.879              1.197              0.601
 Vibration    17          0.897              1.157              0.561
 Vibration    18          0.932              1.083              0.493
 Vibration    19          0.960              1.028              0.447
 Vibration    20          0.978              0.994              0.420

                           ! Non-Optimized Parameters !
 Normal termination of Gaussian 16 at Mon Dec 14 13:23:30 2020.

 ----------------------------------------------------------------------
 # B3LYP/6-311++G(d,p) empiricaldispersion=gd3bj scf=xqc pop=npa geom=c
 heck
 ----------------------------------------------------------------------

 ---------------------------------------
 CID_139998788_JID_7265_Energie_neutraal
 ---------------------------------------
 Structure from the checkpoint file:  "JID_7265.chk"
 Charge =  0 Multiplicity = 1

 SCF Done:  E(RB3LYP) =  -886.400146274     A.U. after   18 cycles
 Normal termination of Gaussian 16 at Mon Dec 14 13:26:46 2020.

 ----------------------------------------------------------------------
 # B3LYP/6-311++G(d,p) empiricaldispersion=gd3bj scf=xqc pop=npa geom=c
 heck
 ----------------------------------------------------------------------

 -------------------------------------
 CID_139998788_JID_7265_Energie_kation
 -------------------------------------
 Structure from the checkpoint file:  "JID_7265.chk"
 Charge =  1 Multiplicity = 2

 SCF Done:  E(UB3LYP) =  -886.058850521     A.U. after   28 cycles
 Normal termination of Gaussian 16 at Mon Dec 14 13:34:07 2020.
 Gaussian 16:  ES64L-G16RevA.03 25-Dec-2016

 ----------------------------------------------------------------------
 # B3LYP/6-311++G(d,p) empiricaldispersion=gd3bj scf=xqc pop=npa geom=c
 heck
 ----------------------------------------------------------------------

 ------------------------------------
 CID_139998788_JID_7265_Energie_anion
 ------------------------------------
 Structure from the checkpoint file:  "JID_7265.chk"
 Charge = -1 Multiplicity = 2

                         Standard orientation:
 ---------------------------------------------------------------------
 Center     Atomic      Atomic             Coordinates (Angstroms)
 Number     Number       Type             X           Y           Z
 ---------------------------------------------------------------------
      1          6           0        0.816937   -2.447241   -0.298552
      2          6           0       -0.332483   -1.706147   -0.447245
      3          6           0       -0.285678   -0.294427   -0.356805
      4          6           0        0.950566    0.397027   -0.132514
      5          6           0        0.889220    1.811047   -0.026919
      6          6           0       -0.326858    2.444931   -0.150602
      7          7           0       -1.501088    1.806174   -0.382493
      8          6           0       -1.455303    0.507732   -0.475682
      9          8           0       -2.644549   -0.145802   -0.769092
     10          7           0       -3.549297   -0.266058    0.404216
     11          8           0       -3.103229    0.077252    1.467145
     12          8           0       -4.610834   -0.722858    0.090212
     13          6           0        2.111961   -0.424181    0.002256
     14          6           0        2.044573   -1.799446   -0.064083
     15          7           0        3.453199    0.145389    0.213884
     16          8           0        3.653535    1.313659   -0.120149
     17          8           0        4.311012   -0.592552    0.696118
     18          1           0        0.788603   -3.529645   -0.362891
     19          1           0       -1.285340   -2.185364   -0.638719
     20          1           0        1.786184    2.384934    0.146512
     21          1           0       -0.391678    3.525993   -0.068474
     22          1           0        2.957441   -2.367831    0.061331
 ---------------------------------------------------------------------

 SCF Done:  E(UB3LYP) =  -886.471806870     A.U. after   25 cycles

 The electronic state is 2-A.
 Alpha  occ. eigenvalues --  -19.09137 -19.09087 -19.08911 -18.99610 -18.99568
 Alpha  occ. eigenvalues --  -14.49769 -14.38210 -14.20027 -10.14454 -10.09485
 Alpha  occ. eigenvalues --  -10.09284 -10.09257 -10.08442 -10.06696 -10.06028
 Alpha  occ. eigenvalues --  -10.06020 -10.05877  -1.18432  -1.07504  -1.01349
 Alpha  occ. eigenvalues --   -0.97022  -0.90268  -0.83374  -0.75922  -0.68424
 Alpha  occ. eigenvalues --   -0.67364  -0.64656  -0.59062  -0.56865  -0.52824
 Alpha  occ. eigenvalues --   -0.51843  -0.49154  -0.47420  -0.46170  -0.44985
 Alpha  occ. eigenvalues --   -0.42249  -0.40813  -0.39313  -0.38319  -0.37358
 Alpha  occ. eigenvalues --   -0.36404  -0.35241  -0.34709  -0.31543  -0.30517
 Alpha  occ. eigenvalues --   -0.29190  -0.26445  -0.26321  -0.25307  -0.25148
 Alpha  occ. eigenvalues --   -0.24361  -0.23384  -0.22696  -0.18842  -0.17725
 Alpha  occ. eigenvalues --   -0.17007  -0.16294  -0.15851  -0.14533  -0.12686
 Alpha  occ. eigenvalues --   -0.01231
 Alpha virt. eigenvalues --    0.02210   0.05343   0.07906   0.08485   0.09440
 Alpha virt. eigenvalues --    0.10288   0.11283   0.12372   0.12883   0.13880
 Alpha virt. eigenvalues --    0.14637   0.15219   0.15883   0.16661   0.17193

  Beta  occ. eigenvalues --  -19.09137 -19.09046 -19.08860 -18.99319 -18.99292
  Beta  occ. eigenvalues --  -14.49583 -14.37869 -14.19990 -10.14235 -10.09386
  Beta  occ. eigenvalues --  -10.09266 -10.09240 -10.08530 -10.06752 -10.05942
  Beta  occ. eigenvalues --  -10.05777 -10.05544  -1.18236  -1.06905  -1.01237
  Beta  occ. eigenvalues --   -0.96898  -0.89733  -0.83203  -0.75654  -0.68021
  Beta  occ. eigenvalues --   -0.67076  -0.64280  -0.58778  -0.56201  -0.52628
  Beta  occ. eigenvalues --   -0.51586  -0.48944  -0.47085  -0.45833  -0.44843
  Beta  occ. eigenvalues --   -0.41970  -0.40471  -0.38615  -0.37440  -0.36900
  Beta  occ. eigenvalues --   -0.35996  -0.35033  -0.34541  -0.31392  -0.30091
  Beta  occ. eigenvalues --   -0.29032  -0.26205  -0.26117  -0.25203  -0.24878
  Beta  occ. eigenvalues --   -0.23749  -0.23260  -0.22639  -0.18031  -0.16798
  Beta  occ. eigenvalues --   -0.16209  -0.15623  -0.15119  -0.14190  -0.11499
  Beta virt. eigenvalues --    0.02824   0.04155   0.07061   0.08316   0.08502
  Beta virt. eigenvalues --    0.09431   0.10672   0.11846   0.12573   0.13207
  Beta virt. eigenvalues --    0.13983   0.14761   0.15402   0.16172   0.16703

 Mulliken charges and spin densities:
               1          2
     1  C   -0.545651  -0.041559
     2  C   -0.852761   0.238930
     3  C    1.250595  -0.051410
     4  C    1.486574  -0.035768
     5  C    0.156406   0.059341
     6  C   -0.456611   0.030561
     7  N   -0.043819   0.019154
     8  C   -0.781389   0.139358
     9  O    0.172895  -0.006522
    10  N   -0.395740   0.054881
    11  O    0.051185   0.012568
    12  O    0.022338   0.016414
    13  C   -1.304586   0.011176
    14  C   -0.210525   0.257494
    15  N   -0.168340   0.118619
    16  O   -0.139077   0.108768
    17  O   -0.117922   0.102791
    18  H    0.133910   0.001922
    19  H    0.130934  -0.019262
    20  H    0.235097  -0.003857
    21  H    0.161225  -0.002451
    22  H    0.215262  -0.011146
 Sum of Mulliken charges =  -1.00000   1.00000

 Dipole moment (field-independent basis, Debye):
    X=             -3.6797    Y=             -1.4680    Z=             -0.5166  Tot=              3.9952
 Quadrupole moment (field-independent basis, Debye-Ang):
   XX=           -169.7166   YY=           -103.5106   ZZ=           -105.4364
   XY=             -1.7977   XZ=             -3.6196   YZ=              2.0551

 Summary of Natural Population Analysis:

                                       Natural Population
                Natural  -----------------------------------------------
    Atom  No    Charge         Core      Valence    Rydberg      Total
 -----------------------------------------------------------------------
      C    1   -0.12306      0.99960     2.11370    0.00976     3.12306
      C    2   -0.01637      0.99955     2.00837    0.00845     3.01637
      C    3   -0.06816      0.99945     2.06043    0.00828     3.06816
      C    4   -0.01677      0.99948     2.00869    0.00860     3.01677
      C    5   -0.09494      0.99953     2.08697    0.00844     3.09494
      C    6    0.02126      0.99959     1.96473    0.01443     2.97874
      N    7   -0.23505      0.99964     2.72383    0.01158     3.73505
      C    8    0.28923      0.99939     1.69370    0.01768     2.71077
      O    9   -0.21805      0.99987     3.20821    0.00997     4.21805
      N   10    0.37396      0.99983     2.09724    0.02898     3.12604
      O   11   -0.16244      0.99988     3.15469    0.00787     4.16244
      O   12   -0.16861      0.99988     3.16039    0.00835     4.16861
      C   13    0.05105      0.99936     1.93807    0.01151     2.94895
      C   14   -0.02502      0.99942     2.01663    0.00897     3.02502
      N   15    0.27593      0.99972     2.19466    0.02969     3.22407
      O   16   -0.19643      0.99990     3.18862    0.00791     4.19643
      O   17   -0.19801      0.99990     3.19062    0.00750     4.19801
      H   18    0.09578      0.00000     0.40317    0.00105     0.40422
      H   19    0.09945      0.00000     0.39938    0.00116     0.40055
      H   20    0.11976      0.00000     0.37903    0.00121     0.38024
      H   21    0.08560      0.00000     0.41314    0.00126     0.41440
      H   22    0.11090      0.00000     0.38781    0.00128     0.38910
 =======================================================================
   * Total *    0.00001     16.99398    42.79209    0.21392    59.99999

 Normal termination of Gaussian 16 at Mon Dec 14 13:40:29 2020.
