 Gaussian 16, Revision A.03,

 -----------------------------------------------------------
 # opt freq B3LYP/6-31G(d) empiricaldispersion=gd3bj scf=xqc
 -----------------------------------------------------------

 -------------------------------
 CID_118055140_JID_9606_neutraal
 -------------------------------
 Symbolic Z-matrix:
 Charge =  0 Multiplicity = 1

 SCF Done:  E(RB3LYP) =  -823.802979261     A.U. after   15 cycles
 SCF Done:  E(RB3LYP) =  -823.809004637     A.U. after   12 cycles
 SCF Done:  E(RB3LYP) =  -823.810060613     A.U. after   12 cycles
 SCF Done:  E(RB3LYP) =  -823.810620547     A.U. after   12 cycles
 SCF Done:  E(RB3LYP) =  -823.811004351     A.U. after   11 cycles
 SCF Done:  E(RB3LYP) =  -823.811197286     A.U. after   11 cycles
 SCF Done:  E(RB3LYP) =  -823.811260701     A.U. after   10 cycles
 SCF Done:  E(RB3LYP) =  -823.811299597     A.U. after   10 cycles
 SCF Done:  E(RB3LYP) =  -823.811311658     A.U. after   10 cycles
 SCF Done:  E(RB3LYP) =  -823.811316427     A.U. after   10 cycles
 SCF Done:  E(RB3LYP) =  -823.811317831     A.U. after    8 cycles
 SCF Done:  E(RB3LYP) =  -823.811318140     A.U. after    8 cycles
 SCF Done:  E(RB3LYP) =  -823.811318166     A.U. after    6 cycles
 SCF Done:  E(RB3LYP) =  -823.811318180     A.U. after    6 cycles
 Optimization completed.
    -- Stationary point found.
 Normal termination of Gaussian 16 at Mon Dec 14 13:30:48 2020.

 --------------------------------------------------------------------
 #N Geom=AllCheck Guess=TCheck SCRF=Check GenChk RB3LYP/6-31G(d) Freq
 --------------------------------------------------------------------

 Structure from the checkpoint file:  "JID_9606.chk"
 -------------------------------
 CID_118055140_JID_9606_neutraal
 -------------------------------
 Charge =  0 Multiplicity = 1

 SCF Done:  E(RB3LYP) =  -823.811318180     A.U. after    1 cycles

  Exact polarizability: 223.761   4.693 183.041  11.789  -0.894 124.089
 Approx polarizability: 295.980   8.478 300.161  28.196  -3.249 196.882

                      1                      2                      3
                      A                      A                      A
 Frequencies --     24.2220                38.9711                49.2678
 Red. masses --      3.7461                 3.8325                 3.3131
 Frc consts  --      0.0013                 0.0034                 0.0047
 IR Inten    --      0.2692                 0.5767                 1.0876

                      4                      5                      6
                      A                      A                      A
 Frequencies --     67.8727                89.8836               126.3390
 Red. masses --      4.8020                 2.9712                 2.5794
 Frc consts  --      0.0130                 0.0141                 0.0243
 IR Inten    --      2.3126                 0.1864                 2.6456

                      7                      8                      9
                      A                      A                      A
 Frequencies --    141.2558               145.9680               172.8144
 Red. masses --      2.0225                 4.2816                 2.6544
 Frc consts  --      0.0238                 0.0537                 0.0467
 IR Inten    --      0.4281                 0.9926                 2.3873

                     10                     11                     12
                      A                      A                      A
 Frequencies --    209.2452               220.6903               260.1793
 Red. masses --      2.5470                 2.7337                 1.3820
 Frc consts  --      0.0657                 0.0784                 0.0551
 IR Inten    --      1.1532                 7.9007                 0.7180

                     13                     14                     15
                      A                      A                      A
 Frequencies --    280.2585               284.1676               325.3208
 Red. masses --      3.7860                 4.0109                 3.9858
 Frc consts  --      0.1752                 0.1908                 0.2485
 IR Inten    --      2.8333                 0.9996                 6.9921

                     16                     17                     18
                      A                      A                      A
 Frequencies --    332.5239               356.4338               397.4291
 Red. masses --      3.7429                 2.7621                 2.1461
 Frc consts  --      0.2438                 0.2068                 0.1997
 IR Inten    --      1.6732                 5.5475                 1.2809

                     19                     20                     21
                      A                      A                      A
 Frequencies --    432.3335               438.2715               483.8294
 Red. masses --      2.9039                 3.1092                 3.3704
 Frc consts  --      0.3198                 0.3519                 0.4648
 IR Inten    --      1.2817                 1.2558                11.7089

                     22                     23                     24
                      A                      A                      A
 Frequencies --    500.0835               505.0724               534.5482
 Red. masses --      2.9214                 3.5722                 3.3962
 Frc consts  --      0.4305                 0.5369                 0.5718
 IR Inten    --      1.6069                 6.8079                23.0464

                     25                     26                     27
                      A                      A                      A
 Frequencies --    563.6389               598.9438               617.5669
 Red. masses --      3.1813                 3.5472                 3.8366
 Frc consts  --      0.5955                 0.7497                 0.8621
 IR Inten    --      7.8495                11.5599                 1.5875

                     28                     29                     30
                      A                      A                      A
 Frequencies --    632.3341               655.6878               710.4488
 Red. masses --      2.6850                 3.0276                 3.6280
 Frc consts  --      0.6325                 0.7669                 1.0789
 IR Inten    --     28.8676                24.8905                15.7386

                     31                     32                     33
                      A                      A                      A
 Frequencies --    722.8554               759.9070               784.4240
 Red. masses --      2.1576                 2.4302                 1.5122
 Frc consts  --      0.6642                 0.8268                 0.5482
 IR Inten    --     31.6427                14.4392                62.9400

                     34                     35                     36
                      A                      A                      A
 Frequencies --    791.3018               821.4917               824.2946
 Red. masses --      2.6866                 2.0815                 1.5931
 Frc consts  --      0.9911                 0.8276                 0.6378
 IR Inten    --     50.2403                 8.2167                67.7673

                     37                     38                     39
                      A                      A                      A
 Frequencies --    848.9130               874.7925               891.4196
 Red. masses --      2.1794                 2.8306                 2.2257
 Frc consts  --      0.9254                 1.2763                 1.0420
 IR Inten    --     13.1790                 7.1892                 1.1654

                     40                     41                     42
                      A                      A                      A
 Frequencies --    895.1533               929.6948               940.6982
 Red. masses --      1.5882                 2.1264                 1.2949
 Frc consts  --      0.7498                 1.0829                 0.6752
 IR Inten    --      9.3048                 5.8436                 0.8285

                     43                     44                     45
                      A                      A                      A
 Frequencies --    952.4782               984.8300               990.6678
 Red. masses --      2.4153                 2.3774                 2.6205
 Frc consts  --      1.2910                 1.3585                 1.5153
 IR Inten    --      6.1968                 6.4575                 5.2843

                     46                     47                     48
                      A                      A                      A
 Frequencies --   1020.0156              1021.8669              1071.9792
 Red. masses --      1.6323                 2.1878                 2.4117
 Frc consts  --      1.0006                 1.3460                 1.6328
 IR Inten    --      7.1110                 1.1089                27.1082

                     49                     50                     51
                      A                      A                      A
 Frequencies --   1084.6511              1098.0065              1103.1094
 Red. masses --      1.7562                 2.2118                 2.5613
 Frc consts  --      1.2173                 1.5711                 1.8363
 IR Inten    --      4.1411                 0.9586                15.1471

                     52                     53                     54
                      A                      A                      A
 Frequencies --   1116.1639              1133.9751              1166.9629
 Red. masses --      2.3433                 1.8830                 3.1904
 Frc consts  --      1.7200                 1.4266                 2.5598
 IR Inten    --     15.5374                17.6723                13.9747

                     55                     56                     57
                      A                      A                      A
 Frequencies --   1181.7091              1183.0300              1194.8713
 Red. masses --      2.5182                 2.7201                 2.0143
 Frc consts  --      2.0719                 2.2430                 1.6944
 IR Inten    --     12.5480                18.9763                10.7319

                     58                     59                     60
                      A                      A                      A
 Frequencies --   1212.0713              1229.2864              1235.5697
 Red. masses --      1.3390                 1.6527                 1.8365
 Frc consts  --      1.1590                 1.4715                 1.6518
 IR Inten    --      9.7263                 9.8566                 5.6566

                     61                     62                     63
                      A                      A                      A
 Frequencies --   1256.2937              1281.2871              1287.2681
 Red. masses --      1.5598                 1.5823                 1.3958
 Frc consts  --      1.4505                 1.5305                 1.3627
 IR Inten    --      6.6127                 8.3144                43.0431

                     64                     65                     66
                      A                      A                      A
 Frequencies --   1295.0994              1319.6463              1326.8819
 Red. masses --      1.4683                 1.2312                 1.6754
 Frc consts  --      1.4510                 1.2632                 1.7380
 IR Inten    --     18.4924                42.0178                44.5456

                     67                     68                     69
                      A                      A                      A
 Frequencies --   1338.7740              1345.8408              1370.9873
 Red. masses --      1.2767                 1.2484                 2.0708
 Frc consts  --      1.3482                 1.3323                 2.2933
 IR Inten    --     55.5918                11.8402               141.3151

                     70                     71                     72
                      A                      A                      A
 Frequencies --   1373.7419              1386.1406              1396.7801
 Red. masses --      1.7606                 1.9086                 1.6863
 Frc consts  --      1.9576                 2.1607                 1.9384
 IR Inten    --     36.6482                 1.6827                51.9342

                     73                     74                     75
                      A                      A                      A
 Frequencies --   1398.1515              1421.6159              1434.7324
 Red. masses --      1.4030                 1.5039                 1.9956
 Frc consts  --      1.6159                 1.7907                 2.4203
 IR Inten    --      1.7629                40.5943                60.2290

                     76                     77                     78
                      A                      A                      A
 Frequencies --   1447.8307              1450.8636              1477.7880
 Red. masses --      1.3196                 1.4901                 2.0085
 Frc consts  --      1.6298                 1.8481                 2.5843
 IR Inten    --      0.4246                23.9533                57.0360

                     79                     80                     81
                      A                      A                      A
 Frequencies --   1482.8231              1499.6647              1514.5735
 Red. masses --      1.5477                 1.0977                 1.1041
 Frc consts  --      2.0050                 1.4546                 1.4922
 IR Inten    --     64.2810                 0.6506                 8.9941

                     82                     83                     84
                      A                      A                      A
 Frequencies --   1515.4597              1517.5313              1520.3862
 Red. masses --      1.0847                 1.1156                 1.1478
 Frc consts  --      1.4677                 1.5137                 1.5633
 IR Inten    --      7.2897                 6.0271                 9.0064

                     85                     86                     87
                      A                      A                      A
 Frequencies --   1521.8146              1523.3670              1533.5085
 Red. masses --      1.2353                 1.1643                 1.0639
 Frc consts  --      1.6856                 1.5919                 1.4741
 IR Inten    --      1.1434                20.4665                14.9409

                     88                     89                     90
                      A                      A                      A
 Frequencies --   1541.4439              1543.7180              1551.4787
 Red. masses --      1.1501                 2.1955                 1.1818
 Frc consts  --      1.6101                 3.0827                 1.6761
 IR Inten    --      4.5411                18.9697                 1.5621

                     91                     92                     93
                      A                      A                      A
 Frequencies --   1633.3845              1663.1434              1762.8670
 Red. masses --      7.9410                 7.1310                 8.2398
 Frc consts  --     12.4825                11.6215                15.0871
 IR Inten    --     44.0911                 2.4029               261.6812

                     94                     95                     96
                      A                      A                      A
 Frequencies --   2901.1526              2945.3065              2980.7873
 Red. masses --      1.0731                 1.0719                 1.0704
 Frc consts  --      5.3215                 5.4783                 5.6033
 IR Inten    --     68.7615                65.7109                13.3906

                     97                     98                     99
                      A                      A                      A
 Frequencies --   2985.7252              3029.7110              3042.5738
 Red. masses --      1.0730                 1.0731                 1.0597
 Frc consts  --      5.6355                 5.8037                 5.7800
 IR Inten    --    124.4764                31.1191                15.3249

                    100                    101                    102
                      A                      A                      A
 Frequencies --   3044.6439              3066.1146              3073.9387
 Red. masses --      1.0399                 1.0782                 1.0937
 Frc consts  --      5.6796                 5.9720                 6.0891
 IR Inten    --     33.4825                12.0305                24.4350

                    103                    104                    105
                      A                      A                      A
 Frequencies --   3083.5025              3086.0803              3089.8576
 Red. masses --      1.0900                 1.0889                 1.0875
 Frc consts  --      6.1060                 6.1100                 6.1171
 IR Inten    --     46.4862                56.8906                25.4465

                    106                    107                    108
                      A                      A                      A
 Frequencies --   3096.9401              3111.4750              3122.8780
 Red. masses --      1.0916                 1.1000                 1.1024
 Frc consts  --      6.1683                 6.2744                 6.3342
 IR Inten    --     47.2238                51.1942                33.5963

                    109                    110                    111
                      A                      A                      A
 Frequencies --   3136.2666              3152.5235              3177.6685
 Red. masses --      1.0985                 1.0908                 1.0880
 Frc consts  --      6.3659                 6.3873                 6.4727
 IR Inten    --     24.3578                 3.1632                17.1289

                    112                    113                    114
                      A                      A                      A
 Frequencies --   3208.2642              3503.5399              3569.9532
 Red. masses --      1.0929                 1.0747                 1.0751
 Frc consts  --      6.6278                 7.7725                 8.0726
 IR Inten    --     11.2750                 1.4702                15.2424

 - Thermochemistry -
 -------------------
 Temperature   298.150 Kelvin.  Pressure   1.00000 Atm.
 Atom     1 has atomic number  6 and mass  12.00000

 Molecular mass:   259.16846 amu.
 Principal axes and moments of inertia in atomic units:
                           1         2         3
     Eigenvalues --  2500.605607765.127148581.71823
           X            0.99991   0.00264  -0.01281
           Y           -0.00257   0.99998   0.00569
           Z            0.01282  -0.00566   0.99990
 This molecule is an asymmetric top.
 Rotational symmetry number  1.
 Warning -- assumption of classical behavior for rotation
           may cause significant error
 Rotational temperatures (Kelvin)      0.03464     0.01115     0.01009
 Rotational constants (GHZ):           0.72172     0.23242     0.21030
 Zero-point vibrational energy     918765.4 (Joules/Mol)
                                  219.59020 (Kcal/Mol)
 Warning -- explicit consideration of  27 degrees of freedom as
           vibrations may cause significant error
 Vibrational temperatures:     34.85    56.07    70.89    97.65   129.32
          (Kelvin)            181.77   203.24   210.02   248.64   301.06
                              317.52   374.34   403.23   408.85   468.06
                              478.43   512.83   571.81   622.03   630.57
                              696.12   719.51   726.69   769.10   810.95
                              861.75   888.54   909.79   943.39  1022.18
                             1040.03  1093.34  1128.61  1138.51  1181.94
                             1185.98  1221.40  1258.63  1282.55  1287.93
                             1337.62  1353.45  1370.40  1416.95  1425.35
                             1467.57  1470.24  1542.34  1560.57  1579.79
                             1587.13  1605.91  1631.54  1679.00  1700.22
                             1702.12  1719.15  1743.90  1768.67  1777.71
                             1807.53  1843.49  1852.09  1863.36  1898.68
                             1909.09  1926.20  1936.36  1972.54  1976.51
                             1994.35  2009.66  2011.63  2045.39  2064.26
                             2083.11  2087.47  2126.21  2133.45  2157.68
                             2179.13  2180.41  2183.39  2187.50  2189.55
                             2191.79  2206.38  2217.79  2221.07  2232.23
                             2350.08  2392.89  2536.37  4174.11  4237.64
                             4288.69  4295.79  4359.08  4377.59  4380.56
                             4411.45  4422.71  4436.47  4440.18  4445.62
                             4455.81  4476.72  4493.12  4512.39  4535.78
                             4571.96  4615.98  5040.81  5136.37

 Zero-point correction=                           0.349939 (Hartree/Particle)
 Thermal correction to Energy=                    0.367195
 Thermal correction to Enthalpy=                  0.368139
 Thermal correction to Gibbs Free Energy=         0.303922
 Sum of electronic and zero-point Energies=           -823.461379
 Sum of electronic and thermal Energies=              -823.444123
 Sum of electronic and thermal Enthalpies=            -823.443179
 Sum of electronic and thermal Free Energies=         -823.507396

                     E (Thermal)             CV                S
                      KCal/Mol        Cal/Mol-Kelvin    Cal/Mol-Kelvin
 Total                  230.418             67.356            135.156
 Electronic               0.000              0.000              0.000
 Translational            0.889              2.981             42.557
 Rotational               0.889              2.981             33.477
 Vibrational            228.641             61.395             59.123
 Vibration     1          0.593              1.985              6.254
 Vibration     2          0.594              1.981              5.311
 Vibration     3          0.595              1.978              4.847
 Vibration     4          0.598              1.970              4.214
 Vibration     5          0.602              1.956              3.663
 Vibration     6          0.611              1.927              3.001
 Vibration     7          0.615              1.912              2.787
 Vibration     8          0.617              1.907              2.724
 Vibration     9          0.626              1.876              2.405
 Vibration    10          0.642              1.827              2.050
 Vibration    11          0.647              1.810              1.953
 Vibration    12          0.668              1.746              1.661
 Vibration    13          0.680              1.710              1.532
 Vibration    14          0.683              1.703              1.508
 Vibration    15          0.709              1.625              1.283
 Vibration    16          0.714              1.611              1.248
 Vibration    17          0.732              1.562              1.138
 Vibration    18          0.764              1.476              0.972
 Vibration    19          0.793              1.400              0.851
 Vibration    20          0.798              1.387              0.832
 Vibration    21          0.840              1.286              0.700
 Vibration    22          0.855              1.250              0.658
 Vibration    23          0.860              1.239              0.646
 Vibration    24          0.890              1.174              0.577
 Vibration    25          0.919              1.110              0.517
 Vibration    26          0.957              1.034              0.451
 Vibration    27          0.977              0.995              0.420

 Optimization completed.
    -- Stationary point found.
 Normal termination of Gaussian 16 at Mon Dec 14 13:54:51 2020.

 ----------------------------------------------------------------------
 # B3LYP/6-311++G(d,p) empiricaldispersion=gd3bj scf=xqc pop=npa geom=c
 heck
 ----------------------------------------------------------------------

 ---------------------------------------
 CID_118055140_JID_9606_Energie_neutraal
 ---------------------------------------
 Structure from the checkpoint file:  "JID_9606.chk"
 Charge =  0 Multiplicity = 1

 SCF Done:  E(RB3LYP) =  -824.036255564     A.U. after   16 cycles
 Normal termination of Gaussian 16 at Mon Dec 14 14:06:17 2020.

 ----------------------------------------------------------------------
 # B3LYP/6-311++G(d,p) empiricaldispersion=gd3bj scf=xqc pop=npa geom=c
 heck
 ----------------------------------------------------------------------

 -------------------------------------
 CID_118055140_JID_9606_Energie_kation
 -------------------------------------
 Structure from the checkpoint file:  "JID_9606.chk"
 Charge =  1 Multiplicity = 2

 SCF Done:  E(UB3LYP) =  -823.774464165     A.U. after   23 cycles
 Normal termination of Gaussian 16 at Mon Dec 14 14:30:02 2020.
 Gaussian 16:  ES64L-G16RevA.03 25-Dec-2016

 ----------------------------------------------------------------------
 # B3LYP/6-311++G(d,p) empiricaldispersion=gd3bj scf=xqc pop=npa geom=c
 heck
 ----------------------------------------------------------------------

 ------------------------------------
 CID_118055140_JID_9606_Energie_anion
 ------------------------------------
 Structure from the checkpoint file:  "JID_9606.chk"
 Charge = -1 Multiplicity = 2

                         Standard orientation:
 ---------------------------------------------------------------------
 Center     Atomic      Atomic             Coordinates (Angstroms)
 Number     Number       Type             X           Y           Z
 ---------------------------------------------------------------------
      1          6           0       -4.289773    0.842058    1.783144
      2          6           0       -3.282383   -0.309177    1.752003
      3          6           0       -3.474584   -1.259082    0.561135
      4          7           0       -3.428088   -0.591711   -0.744188
      5          6           0       -2.346285    0.116704   -1.223561
      6          8           0       -2.501339    1.077245   -1.972884
      7          6           0       -0.987224   -0.367367   -0.819457
      8          6           0       -0.020709    0.546151   -0.413831
      9          6           0       -0.140767    2.034112   -0.186058
     10          6           0        1.332779    2.452396   -0.055761
     11          7           0        2.053862    1.226651    0.356437
     12          6           0        1.272553    0.129463   -0.049202
     13          6           0        1.615636   -1.232708   -0.054473
     14          6           0        2.905457   -1.774656    0.514116
     15          7           0        4.118399   -1.099445    0.048862
     16          6           0        4.330307    0.197558    0.683609
     17          6           0        3.479592    1.291543    0.051807
     18          6           0        0.640273   -2.131334   -0.513115
     19          6           0       -0.634273   -1.725029   -0.893882
     20          1           0       -4.188051    1.480600    0.898726
     21          1           0       -4.139747    1.473059    2.665447
     22          1           0       -5.321134    0.467922    1.812909
     23          1           0       -2.260939    0.090479    1.717016
     24          1           0       -3.354858   -0.900302    2.674693
     25          1           0       -2.716359   -2.044042    0.589204
     26          1           0       -4.451526   -1.751598    0.624039
     27          1           0       -4.293702   -0.151935   -1.038042
     28          1           0       -0.664764    2.545031   -0.994508
     29          1           0       -0.691465    2.232145    0.744446
     30          1           0        1.715989    2.794005   -1.031854
     31          1           0        1.500746    3.252241    0.671935
     32          1           0        2.984611   -2.830949    0.237934
     33          1           0        2.829975   -1.739157    1.621004
     34          1           0        4.910638   -1.699057    0.266830
     35          1           0        4.137555    0.177865    1.773377
     36          1           0        5.379929    0.475384    0.536002
     37          1           0        3.831157    2.258705    0.430061
     38          1           0        3.647569    1.276569   -1.038913
     39          1           0        0.895316   -3.187267   -0.561638
     40          1           0       -1.353033   -2.449912   -1.262224
 ---------------------------------------------------------------------

 SCF Done:  E(UB3LYP) =  -824.026539347     A.U. after   33 cycles
 SCF Done:  E(UB3LYP) =  -824.026539348     a.u. after    1 cycles

 The electronic state is 2-A.
 Alpha  occ. eigenvalues --  -18.96888 -14.22326 -14.21382 -14.18482 -10.14694
 Alpha  occ. eigenvalues --  -10.11304 -10.09799 -10.09180 -10.08623 -10.08336
 Alpha  occ. eigenvalues --  -10.08310 -10.08254 -10.08090 -10.06519 -10.05349
 Alpha  occ. eigenvalues --  -10.05318 -10.05291 -10.05220 -10.05155  -0.92037
 Alpha  occ. eigenvalues --   -0.84778  -0.81385  -0.79393  -0.73522  -0.69134
 Alpha  occ. eigenvalues --   -0.67872  -0.66049  -0.61777  -0.60459  -0.59809
 Alpha  occ. eigenvalues --   -0.57220  -0.52334  -0.51024  -0.49881  -0.47923
 Alpha  occ. eigenvalues --   -0.46759  -0.44387  -0.40068  -0.39889  -0.39341
 Alpha  occ. eigenvalues --   -0.37398  -0.36981  -0.36624  -0.35518  -0.35242
 Alpha  occ. eigenvalues --   -0.34363  -0.33637  -0.32424  -0.31598  -0.30804
 Alpha  occ. eigenvalues --   -0.29870  -0.29097  -0.28797  -0.28472  -0.27306
 Alpha  occ. eigenvalues --   -0.26789  -0.26554  -0.26251  -0.25430  -0.24810
 Alpha  occ. eigenvalues --   -0.23955  -0.23257  -0.22803  -0.22644  -0.17747
 Alpha  occ. eigenvalues --   -0.15675  -0.14122  -0.12832  -0.11892  -0.08780
 Alpha  occ. eigenvalues --    0.04739
 Alpha virt. eigenvalues --    0.05919   0.06632   0.07626   0.08063   0.08368
 Alpha virt. eigenvalues --    0.08814   0.09459   0.09978   0.10269   0.10462
 Alpha virt. eigenvalues --    0.11127   0.11570   0.11913   0.12024   0.12181

  Beta  occ. eigenvalues --  -18.96738 -14.22313 -14.21369 -14.18437 -10.14554
  Beta  occ. eigenvalues --  -10.11296 -10.09798 -10.09179 -10.08647 -10.08334
  Beta  occ. eigenvalues --  -10.08284 -10.08254 -10.08087 -10.06529 -10.05312
  Beta  occ. eigenvalues --  -10.05232 -10.05179 -10.05130 -10.05056  -0.91757
  Beta  occ. eigenvalues --   -0.84737  -0.81275  -0.79321  -0.73342  -0.69109
  Beta  occ. eigenvalues --   -0.67760  -0.65854  -0.61696  -0.60377  -0.59712
  Beta  occ. eigenvalues --   -0.57062  -0.52226  -0.50958  -0.49783  -0.47805
  Beta  occ. eigenvalues --   -0.46678  -0.44276  -0.39978  -0.39822  -0.39232
  Beta  occ. eigenvalues --   -0.37305  -0.36912  -0.36566  -0.35452  -0.35183
  Beta  occ. eigenvalues --   -0.34249  -0.33524  -0.32285  -0.31532  -0.30712
  Beta  occ. eigenvalues --   -0.29753  -0.28843  -0.28704  -0.28330  -0.27101
  Beta  occ. eigenvalues --   -0.26744  -0.26442  -0.26145  -0.25394  -0.24643
  Beta  occ. eigenvalues --   -0.23879  -0.23141  -0.22647  -0.22537  -0.17558
  Beta  occ. eigenvalues --   -0.15409  -0.13827  -0.12252  -0.11612  -0.08378
  Beta virt. eigenvalues --    0.05842   0.07316   0.07741   0.07902   0.08428
  Beta virt. eigenvalues --    0.08875   0.09086   0.09571   0.10236   0.10468
  Beta virt. eigenvalues --    0.10543   0.11235   0.11782   0.11965   0.12129

 Mulliken charges and spin densities:
               1          2
     1  C   -0.684159  -0.005268
     2  C   -0.174691  -0.014858
     3  C   -0.107529  -0.047365
     4  N   -0.204196   0.009332
     5  C   -0.678167   0.077658
     6  O   -0.338827   0.049875
     7  C    1.108911   0.030703
     8  C   -0.124583   0.127834
     9  C   -0.189497  -0.009334
    10  C   -0.446872   0.044866
    11  N    0.175362   0.039524
    12  C   -0.179605  -0.003390
    13  C   -0.704723   1.380226
    14  C    1.919223  -2.269974
    15  N   -0.467250   0.385884
    16  C    1.040170  -1.530314
    17  C   -0.725990   0.538998
    18  C   -0.577388  -0.126758
    19  C   -0.566180  -0.122918
    20  H    0.202203  -0.000469
    21  H    0.126181   0.001331
    22  H    0.114081   0.005212
    23  H    0.221302  -0.009471
    24  H    0.106800   0.033181
    25  H    0.112848   0.020162
    26  H    0.114655   0.037990
    27  H    0.263450   0.022172
    28  H    0.211032   0.016359
    29  H    0.082644   0.003261
    30  H    0.115282   0.002650
    31  H    0.156063   0.001822
    32  H   -0.171459   0.350163
    33  H   -0.221803   0.357069
    34  H   -0.223414   0.495405
    35  H   -0.001921   0.106220
    36  H   -0.690995   0.855444
    37  H   -0.011615   0.164060
    38  H    0.219241  -0.077873
    39  H    0.034110   0.065668
    40  H    0.167308  -0.005077
 Sum of Mulliken charges =  -1.00000   1.00000

 Dipole moment (field-independent basis, Debye):
    X=             -9.4894    Y=              2.5889    Z=              1.6633  Tot=              9.9759
 Quadrupole moment (field-independent basis, Debye-Ang):
   XX=           -205.7570   YY=           -140.0819   ZZ=           -146.1697
   XY=             20.6737   XZ=            -19.1211   YZ=              6.6860

 Summary of Natural Population Analysis:

                                       Natural Population
                Natural  -----------------------------------------------
    Atom  No    Charge         Core      Valence    Rydberg      Total
 -----------------------------------------------------------------------
      C    1   -0.29027      0.99967     2.28636    0.00424     3.29027
      C    2   -0.19907      0.99964     2.19282    0.00660     3.19907
      C    3   -0.08916      0.99962     2.07834    0.01120     3.08916
      N    4   -0.32856      0.99968     2.81742    0.01145     3.82856
      C    5    0.36050      0.99962     1.61698    0.02290     2.63950
      O    6   -0.31229      0.99988     3.30670    0.00571     4.31229
      C    7   -0.05079      0.99938     2.04055    0.01086     3.05079
      C    8    0.01032      0.99941     1.98036    0.00990     2.98968
      C    9   -0.20376      0.99961     2.19795    0.00620     3.20376
      C   10   -0.07368      0.99965     2.06590    0.00813     3.07368
      N   11   -0.25678      0.99966     2.74763    0.00950     3.75678
      C   12    0.08729      0.99940     1.90041    0.01290     2.91271
      C   13   -0.00632      0.99946     1.99735    0.00951     3.00632
      C   14   -0.09258      0.99959     2.07948    0.01351     3.09258
      N   15   -0.33710      0.99973     2.82401    0.01335     3.83710
      C   16   -0.09381      0.99961     2.07977    0.01442     3.09381
      C   17   -0.08394      0.99961     2.07242    0.01190     3.08394
      C   18   -0.09884      0.99954     2.08963    0.00967     3.09884
      C   19   -0.10871      0.99955     2.09965    0.00951     3.10871
      H   20    0.10323      0.00000     0.39597    0.00080     0.39677
      H   21    0.09766      0.00000     0.40163    0.00071     0.40234
      H   22    0.09038      0.00000     0.40864    0.00097     0.40962
      H   23    0.10548      0.00000     0.39313    0.00139     0.39452
      H   24    0.09159      0.00000     0.40687    0.00154     0.40841
      H   25    0.10580      0.00000     0.39332    0.00088     0.39420
      H   26    0.08855      0.00000     0.41056    0.00089     0.41145
      H   27    0.18548      0.00000     0.31248    0.00204     0.31452
      H   28    0.11803      0.00000     0.38097    0.00100     0.38197
      H   29    0.09719      0.00000     0.40162    0.00119     0.40281
      H   30    0.08157      0.00000     0.41680    0.00163     0.41843
      H   31    0.09091      0.00000     0.40798    0.00112     0.40909
      H   32    0.09670      0.00000     0.40207    0.00123     0.40330
      H   33    0.08505      0.00000     0.41241    0.00254     0.41495
      H   34    0.18077      0.00000     0.31152    0.00771     0.31923
      H   35    0.08053      0.00000     0.41708    0.00239     0.41947
      H   36    0.09756      0.00000     0.40067    0.00177     0.40244
      H   37    0.09205      0.00000     0.40648    0.00146     0.40795
      H   38    0.08660      0.00000     0.41165    0.00175     0.41340
      H   39    0.09483      0.00000     0.40420    0.00096     0.40517
      H   40    0.09755      0.00000     0.40133    0.00111     0.40245
 =======================================================================
   * Total *    0.00000     18.99231    50.77112    0.23657    70.00000

 Normal termination of Gaussian 16 at Mon Dec 14 15:04:16 2020.
