 Gaussian 16, Revision A.03,

 -----------------------------------------------------------
 # opt freq B3LYP/6-31G(d) empiricaldispersion=gd3bj scf=xqc
 -----------------------------------------------------------

 ------------------------------
 CID_90294316_JID_3720_neutraal
 ------------------------------
 Symbolic Z-matrix:
 Charge =  0 Multiplicity = 1

 SCF Done:  E(RB3LYP) =  -539.520725609     A.U. after   14 cycles
 SCF Done:  E(RB3LYP) =  -539.528970292     A.U. after   12 cycles
 SCF Done:  E(RB3LYP) =  -539.529892735     A.U. after   12 cycles
 SCF Done:  E(RB3LYP) =  -539.530438031     A.U. after   12 cycles
 SCF Done:  E(RB3LYP) =  -539.531072325     A.U. after   11 cycles
 SCF Done:  E(RB3LYP) =  -539.531446089     A.U. after   13 cycles
 SCF Done:  E(RB3LYP) =  -539.482675314     A.U. after   14 cycles
 SCF Done:  E(RB3LYP) =  -539.507773504     A.U. after   14 cycles
 SCF Done:  E(RB3LYP) =  -539.531458267     A.U. after    8 cycles
 SCF Done:  E(RB3LYP) =  -539.534877702     A.U. after   15 cycles
 SCF Done:  E(RB3LYP) =  -539.544422853     A.U. after   12 cycles
 SCF Done:  E(RB3LYP) =  -539.544577407     A.U. after   11 cycles
 SCF Done:  E(RB3LYP) =  -539.544581270     A.U. after    8 cycles
 SCF Done:  E(RB3LYP) =  -539.544581933     A.U. after    8 cycles
 SCF Done:  E(RB3LYP) =  -539.544582054     A.U. after    7 cycles
 Optimization completed.
    -- Stationary point found.
 Normal termination of Gaussian 16 at Sun Dec 13 12:28:47 2020.

 --------------------------------------------------------------------
 #N Geom=AllCheck Guess=TCheck SCRF=Check GenChk RB3LYP/6-31G(d) Freq
 --------------------------------------------------------------------

 Structure from the checkpoint file:  "JID_3720.chk"
 ------------------------------
 CID_90294316_JID_3720_neutraal
 ------------------------------
 Charge =  0 Multiplicity = 1

 SCF Done:  E(RB3LYP) =  -539.544582054     A.U. after    1 cycles

  Exact polarizability: 147.149  -6.810 113.873   5.653   1.906 103.691
 Approx polarizability: 196.354 -12.633 173.666  10.494   1.884 155.304

                      1                      2                      3
                      A                      A                      A
 Frequencies --     78.8542               109.9680               150.9609
 Red. masses --      3.6706                 3.2277                 3.0159
 Frc consts  --      0.0134                 0.0230                 0.0405
 IR Inten    --      1.1679                 4.7149                11.3646

                      4                      5                      6
                      A                      A                      A
 Frequencies --    247.6705               288.8066               331.8224
 Red. masses --      3.8863                 2.8079                 2.0532
 Frc consts  --      0.1405                 0.1380                 0.1332
 IR Inten    --      4.2303                 1.6365                 0.5284

                      7                      8                      9
                      A                      A                      A
 Frequencies --    342.9847               370.4709               391.6047
 Red. masses --      4.1097                 2.8088                 1.9668
 Frc consts  --      0.2848                 0.2271                 0.1777
 IR Inten    --      0.2223                 1.7622                 0.7763

                     10                     11                     12
                      A                      A                      A
 Frequencies --    437.0462               452.7564               459.0463
 Red. masses --      3.6552                 1.8217                 1.8449
 Frc consts  --      0.4114                 0.2200                 0.2291
 IR Inten    --      2.4469                 0.9043                 0.1192

                     13                     14                     15
                      A                      A                      A
 Frequencies --    474.7970               602.7221               641.0299
 Red. masses --      3.2180                 1.7163                 4.2894
 Frc consts  --      0.4274                 0.3673                 1.0385
 IR Inten    --      1.3810                64.2596                 0.3998

                     16                     17                     18
                      A                      A                      A
 Frequencies --    647.0006               663.5945               734.8858
 Red. masses --      3.5049                 2.5734                 3.3509
 Frc consts  --      0.8645                 0.6677                 1.0662
 IR Inten    --      0.2204                21.4144                 9.2904

                     19                     20                     21
                      A                      A                      A
 Frequencies --    778.7173               787.9909               804.6746
 Red. masses --      1.4129                 3.0022                 3.0058
 Frc consts  --      0.5048                 1.0983                 1.1467
 IR Inten    --      3.8703                 2.9974                 0.8612

                     22                     23                     24
                      A                      A                      A
 Frequencies --    833.2269               843.6646               898.1336
 Red. masses --      2.7888                 2.7059                 1.4766
 Frc consts  --      1.1408                 1.1348                 0.7018
 IR Inten    --      3.2871                 4.6332                31.8257

                     25                     26                     27
                      A                      A                      A
 Frequencies --    901.5535               903.5474               906.2909
 Red. masses --      2.0802                 1.6431                 1.5844
 Frc consts  --      0.9962                 0.7903                 0.7667
 IR Inten    --      4.0951                 0.7664                 0.1091

                     28                     29                     30
                      A                      A                      A
 Frequencies --    921.5215               965.7468               973.3719
 Red. masses --      2.0770                 2.1125                 2.1267
 Frc consts  --      1.0392                 1.1608                 1.1872
 IR Inten    --      0.2225                 4.8439                 3.1579

                     31                     32                     33
                      A                      A                      A
 Frequencies --    995.7723              1021.0189              1052.3000
 Red. masses --      2.1267                 2.1246                 1.9273
 Frc consts  --      1.2425                 1.3050                 1.2574
 IR Inten    --      4.5015                 1.9950                 0.5699

                     34                     35                     36
                      A                      A                      A
 Frequencies --   1055.8558              1066.5146              1087.2827
 Red. masses --      2.7966                 2.4123                 1.6474
 Frc consts  --      1.8369                 1.6166                 1.1475
 IR Inten    --      0.5346                 5.5912                 2.9486

                     37                     38                     39
                      A                      A                      A
 Frequencies --   1104.0965              1128.4808              1130.6804
 Red. masses --      1.7974                 1.6288                 1.5721
 Frc consts  --      1.2909                 1.2221                 1.1842
 IR Inten    --      2.8162                 1.9218                 2.4300

                     40                     41                     42
                      A                      A                      A
 Frequencies --   1144.5010              1146.9887              1149.9547
 Red. masses --      1.0208                 1.0408                 1.0296
 Frc consts  --      0.7878                 0.8067                 0.8022
 IR Inten    --      0.0931                 0.8929                 0.3010

                     43                     44                     45
                      A                      A                      A
 Frequencies --   1193.7455              1209.3833              1233.0599
 Red. masses --      2.7407                 1.3515                 1.6950
 Frc consts  --      2.3011                 1.1647                 1.5184
 IR Inten    --     96.6667                24.9204                58.5451

                     46                     47                     48
                      A                      A                      A
 Frequencies --   1256.5320              1286.8043              1319.9115
 Red. masses --      1.0744                 1.4817                 1.6689
 Frc consts  --      0.9994                 1.4456                 1.7130
 IR Inten    --     16.0071                 1.5313                 3.6576

                     49                     50                     51
                      A                      A                      A
 Frequencies --   1330.8244              1343.4618              1350.2808
 Red. masses --      1.6518                 1.8510                 1.8351
 Frc consts  --      1.7236                 1.9684                 1.9713
 IR Inten    --      0.6766                 0.6838                 0.0845

                     52                     53                     54
                      A                      A                      A
 Frequencies --   1358.5810              1361.0622              1369.3234
 Red. masses --      1.4818                 2.0193                 1.3133
 Frc consts  --      1.6114                 2.2040                 1.4509
 IR Inten    --      0.1762                 0.7450                 0.1313

                     55                     56                     57
                      A                      A                      A
 Frequencies --   1372.7842              1396.6728              1401.3621
 Red. masses --      1.3235                 1.4206                 1.4444
 Frc consts  --      1.4695                 1.6328                 1.6712
 IR Inten    --      0.3397                 0.7734                 0.8457

                     58                     59                     60
                      A                      A                      A
 Frequencies --   1414.0876              1419.7786              1422.7508
 Red. masses --      1.4111                 1.5545                 1.5339
 Frc consts  --      1.6624                 1.8462                 1.8294
 IR Inten    --      0.3782                 0.2355                 1.3246

                     61                     62                     63
                      A                      A                      A
 Frequencies --   1448.7936              1478.6110              1509.4153
 Red. masses --      1.3926                 1.1886                 1.0871
 Frc consts  --      1.7222                 1.5311                 1.4592
 IR Inten    --      0.7356                 8.4781                 0.5847

                     64                     65                     66
                      A                      A                      A
 Frequencies --   1515.0075              1522.9955              1524.7522
 Red. masses --      1.0952                 1.0961                 1.0971
 Frc consts  --      1.4810                 1.4979                 1.5028
 IR Inten    --      0.9732                10.8230                 8.1089

                     67                     68                     69
                      A                      A                      A
 Frequencies --   1541.6989              1559.6900              1686.3437
 Red. masses --      1.1010                 1.2593                 5.3785
 Frc consts  --      1.5419                 1.8049                 9.0116
 IR Inten    --      8.1691                10.4153                33.0689

                     70                     71                     72
                      A                      A                      A
 Frequencies --   3019.0450              3022.8000              3023.6640
 Red. masses --      1.0767                 1.0756                 1.0630
 Frc consts  --      5.7819                 5.7905                 5.7261
 IR Inten    --     17.9174                 1.6062                12.7676

                     73                     74                     75
                      A                      A                      A
 Frequencies --   3027.2310              3029.5074              3032.5776
 Red. masses --      1.0632                 1.0729                 1.0734
 Frc consts  --      5.7406                 5.8015                 5.8162
 IR Inten    --     15.5842                31.9830                30.7830

                     76                     77                     78
                      A                      A                      A
 Frequencies --   3037.7927              3046.8017              3052.6961
 Red. masses --      1.0773                 1.0825                 1.0804
 Frc consts  --      5.8574                 5.9206                 5.9319
 IR Inten    --    110.4036               125.0791               107.7890

                     79                     80                     81
                      A                      A                      A
 Frequencies --   3054.5926              3061.1999              3065.5014
 Red. masses --      1.0664                 1.1048                 1.0873
 Frc consts  --      5.8622                 6.0996                 6.0203
 IR Inten    --     29.6131                 5.4964                32.4925

                     82                     83                     84
                      A                      A                      A
 Frequencies --   3066.7408              3069.5527              3111.2522
 Red. masses --      1.1028                 1.1013                 1.0933
 Frc consts  --      6.1107                 6.1137                 6.2356
 IR Inten    --     97.9381                77.0217                21.2201

                     85                     86                     87
                      A                      A                      A
 Frequencies --   3137.4155              3230.4645              3402.9142
 Red. masses --      1.0916                 1.1042                 1.0738
 Frc consts  --      6.3310                 6.7895                 7.3261
 IR Inten    --     11.4010                13.1792                 9.0083

 - Thermochemistry -
 -------------------
 Temperature   298.150 Kelvin.  Pressure   1.00000 Atm.
 Atom     1 has atomic number  6 and mass  12.00000

 Molecular mass:   178.14700 amu.
 Principal axes and moments of inertia in atomic units:
                           1         2         3
     Eigenvalues --  1157.325312754.231112823.27643
           X            0.99996  -0.00259   0.00809
           Y            0.00217   0.99867   0.05148
           Z           -0.00822  -0.05146   0.99864
 This molecule is an asymmetric top.
 Rotational symmetry number  1.
 Warning -- assumption of classical behavior for rotation
           may cause significant error
 Rotational temperatures (Kelvin)      0.07484     0.03145     0.03068
 Rotational constants (GHZ):           1.55941     0.65526     0.63924
 Zero-point vibrational energy     743762.4 (Joules/Mol)
                                  177.76349 (Kcal/Mol)
 Warning -- explicit consideration of  14 degrees of freedom as
           vibrations may cause significant error
 Vibrational temperatures:    113.45   158.22   217.20   356.34   415.53
          (Kelvin)            477.42   493.48   533.03   563.43   628.81
                              651.42   660.47   683.13   867.18   922.30
                              930.89   954.76  1057.34  1120.40  1133.74
                             1157.75  1198.83  1213.85  1292.21  1297.13
                             1300.00  1303.95  1325.86  1389.49  1400.47
                             1432.69  1469.02  1514.03  1519.14  1534.48
                             1564.36  1588.55  1623.63  1626.80  1646.68
                             1650.26  1654.53  1717.53  1740.03  1774.10
                             1807.87  1851.42  1899.06  1914.76  1932.94
                             1942.75  1954.69  1958.26  1970.15  1975.13
                             2009.50  2016.25  2034.56  2042.74  2047.02
                             2084.49  2127.39  2171.71  2179.76  2191.25
                             2193.78  2218.16  2244.05  2426.27  4343.73
                             4349.13  4350.38  4355.51  4358.79  4363.20
                             4370.71  4383.67  4392.15  4394.88  4404.38
                             4410.57  4412.36  4416.40  4476.40  4514.04
                             4647.92  4896.03

 Zero-point correction=                           0.283284 (Hartree/Particle)
 Thermal correction to Energy=                    0.293544
 Thermal correction to Enthalpy=                  0.294488
 Thermal correction to Gibbs Free Energy=         0.248028
 Sum of electronic and zero-point Energies=           -539.261298
 Sum of electronic and thermal Energies=              -539.251038
 Sum of electronic and thermal Enthalpies=            -539.250094
 Sum of electronic and thermal Free Energies=         -539.296554

                     E (Thermal)             CV                S
                      KCal/Mol        Cal/Mol-Kelvin    Cal/Mol-Kelvin
 Total                  184.201             44.417             97.783
 Electronic               0.000              0.000              0.000
 Translational            0.889              2.981             41.439
 Rotational               0.889              2.981             30.577
 Vibrational            182.424             38.455             25.768
 Vibration     1          0.600              1.963              3.919
 Vibration     2          0.606              1.941              3.269
 Vibration     3          0.618              1.902              2.660
 Vibration     4          0.661              1.767              1.747
 Vibration     5          0.685              1.695              1.481
 Vibration     6          0.714              1.612              1.251
 Vibration     7          0.722              1.590              1.198
 Vibration     8          0.742              1.533              1.078
 Vibration     9          0.759              1.488              0.994
 Vibration    10          0.797              1.389              0.836
 Vibration    11          0.811              1.355              0.787
 Vibration    12          0.817              1.341              0.769
 Vibration    13          0.832              1.306              0.724
 Vibration    14          0.961              1.026              0.445

 Optimization completed.
    -- Stationary point found.
 Normal termination of Gaussian 16 at Sun Dec 13 12:38:07 2020.

 ----------------------------------------------------------------------
 # B3LYP/6-311++G(d,p) empiricaldispersion=gd3bj scf=xqc pop=npa geom=c
 heck
 ----------------------------------------------------------------------

 --------------------------------------
 CID_90294316_JID_3720_Energie_neutraal
 --------------------------------------
 Structure from the checkpoint file:  "JID_3720.chk"
 Charge =  0 Multiplicity = 1

 SCF Done:  E(RB3LYP) =  -539.687284550     A.U. after   14 cycles
 Normal termination of Gaussian 16 at Sun Dec 13 12:41:58 2020.

 ----------------------------------------------------------------------
 # B3LYP/6-311++G(d,p) empiricaldispersion=gd3bj scf=xqc pop=npa geom=c
 heck
 ----------------------------------------------------------------------

 ------------------------------------
 CID_90294316_JID_3720_Energie_kation
 ------------------------------------
 Structure from the checkpoint file:  "JID_3720.chk"
 Charge =  1 Multiplicity = 2

 SCF Done:  E(UB3LYP) =  -539.392852962     A.U. after   21 cycles
 Normal termination of Gaussian 16 at Sun Dec 13 12:49:07 2020.
 Gaussian 16:  ES64L-G16RevA.03 25-Dec-2016

 ----------------------------------------------------------------------
 # B3LYP/6-311++G(d,p) empiricaldispersion=gd3bj scf=xqc pop=npa geom=c
 heck
 ----------------------------------------------------------------------

 -----------------------------------
 CID_90294316_JID_3720_Energie_anion
 -----------------------------------
 Structure from the checkpoint file:  "JID_3720.chk"
 Charge = -1 Multiplicity = 2

                         Standard orientation:
 ---------------------------------------------------------------------
 Center     Atomic      Atomic             Coordinates (Angstroms)
 Number     Number       Type             X           Y           Z
 ---------------------------------------------------------------------
      1          6           0       -3.824048    0.408772   -0.151076
      2          7           0       -2.610650    0.278072    0.232401
      3          7           0       -2.033208   -0.947942    0.174811
      4          6           0       -0.573822   -1.046689    0.081228
      5          6           0        0.058358   -0.500592   -1.223244
      6          6           0        0.057808    1.040107   -1.240222
      7          6           0        0.856237    1.574982   -0.035345
      8          6           0        2.304620    1.056362   -0.105997
      9          6           0        2.302048   -0.483831   -0.075609
     10          6           0        1.512516   -1.011093   -1.289481
     11          6           0        1.632714   -0.969221    1.226196
     12          6           0        0.177797   -0.455667    1.293705
     13          6           0        0.199348    1.086183    1.269297
     14          1           0       -4.295338    1.379726   -0.039091
     15          1           0       -4.414350   -0.415450   -0.571739
     16          1           0       -2.509768   -1.606704   -0.446788
     17          1           0       -0.406364   -2.132477    0.097478
     18          1           0       -0.509715   -0.885358   -2.081820
     19          1           0        0.511561    1.390953   -2.177439
     20          1           0       -0.967146    1.420858   -1.209386
     21          1           0        0.856612    2.672248   -0.056589
     22          1           0        2.886462    1.447772    0.739450
     23          1           0        2.791351    1.411947   -1.024539
     24          1           0        3.333052   -0.857839   -0.118667
     25          1           0        1.984660   -0.672064   -2.221021
     26          1           0        1.527873   -2.109712   -1.302970
     27          1           0        2.193231   -0.599364    2.094647
     28          1           0        1.653006   -2.066575    1.274706
     29          1           0       -0.307700   -0.811323    2.209937
     30          1           0       -0.815855    1.478409    1.353443
     31          1           0        0.773964    1.448162    2.133191
 ---------------------------------------------------------------------

 SCF Done:  E(UB3LYP) =  -539.672383909     A.U. after   33 cycles
 SCF Done:  E(UB3LYP) =  -539.672383910     a.u. after    1 cycles

 The electronic state is 2-A.
 Alpha  occ. eigenvalues --  -14.24420 -14.23912 -10.09394 -10.08888 -10.06321
 Alpha  occ. eigenvalues --  -10.06115 -10.06003 -10.05979 -10.05498 -10.05244
 Alpha  occ. eigenvalues --  -10.05172 -10.04873 -10.04765  -0.90158  -0.76749
 Alpha  occ. eigenvalues --   -0.72106  -0.66128  -0.65948  -0.64401  -0.56002
 Alpha  occ. eigenvalues --   -0.55703  -0.51297  -0.48078  -0.47433  -0.47083
 Alpha  occ. eigenvalues --   -0.42161  -0.41406  -0.37974  -0.35268  -0.34514
 Alpha  occ. eigenvalues --   -0.34116  -0.33106  -0.31681  -0.30356  -0.29915
 Alpha  occ. eigenvalues --   -0.28822  -0.28611  -0.28457  -0.27144  -0.23963
 Alpha  occ. eigenvalues --   -0.22444  -0.22281  -0.22119  -0.21840  -0.18967
 Alpha  occ. eigenvalues --   -0.17907  -0.17652  -0.16352  -0.11732   0.04610
 Alpha virt. eigenvalues --    0.06684   0.07549   0.07852   0.08317   0.08819
 Alpha virt. eigenvalues --    0.09164   0.09761   0.10356   0.11016   0.11341
 Alpha virt. eigenvalues --    0.11734   0.12696   0.13178   0.13494   0.13592

  Beta  occ. eigenvalues --  -14.24399 -14.23882 -10.09380 -10.08871 -10.06319
  Beta  occ. eigenvalues --  -10.06109 -10.05999 -10.05964 -10.05480 -10.05228
  Beta  occ. eigenvalues --  -10.05149 -10.04863 -10.04758  -0.90120  -0.76719
  Beta  occ. eigenvalues --   -0.72071  -0.66103  -0.65921  -0.64365  -0.55965
  Beta  occ. eigenvalues --   -0.55666  -0.51230  -0.48037  -0.47404  -0.47040
  Beta  occ. eigenvalues --   -0.42100  -0.41326  -0.37928  -0.35229  -0.34478
  Beta  occ. eigenvalues --   -0.34084  -0.33074  -0.31652  -0.30329  -0.29894
  Beta  occ. eigenvalues --   -0.28787  -0.28583  -0.28420  -0.27108  -0.23931
  Beta  occ. eigenvalues --   -0.22420  -0.22248  -0.22093  -0.21816  -0.18912
  Beta  occ. eigenvalues --   -0.17877  -0.17617  -0.16277  -0.11698
  Beta virt. eigenvalues --    0.06822   0.07620   0.08052   0.08289   0.08665
  Beta virt. eigenvalues --    0.09350   0.09730   0.10304   0.10800   0.11291
  Beta virt. eigenvalues --    0.11793   0.12225   0.13208   0.13521   0.13778

 Mulliken charges and spin densities:
               1          2
     1  C    0.332184  -0.596576
     2  N   -0.188275   0.210360
     3  N    0.115860  -0.126626
     4  C    0.441989  -1.259163
     5  C   -0.180671   0.747450
     6  C   -0.107662  -0.694637
     7  C   -0.215354   0.658759
     8  C    0.550923  -1.273021
     9  C   -0.375640   0.835325
    10  C    0.923229  -1.780822
    11  C    0.131554  -0.957151
    12  C    0.316825   0.250260
    13  C   -0.432308  -0.348720
    14  H    0.012332   0.129603
    15  H   -0.348744   0.422382
    16  H   -0.102998   0.324967
    17  H   -0.470995   0.688223
    18  H   -0.438280   0.697588
    19  H   -0.159013   0.315362
    20  H    0.106123   0.022991
    21  H    0.062252   0.156627
    22  H   -0.075132   0.210319
    23  H   -0.142640   0.284297
    24  H   -0.358975   0.594655
    25  H   -0.090857   0.229110
    26  H   -0.307570   0.455413
    27  H   -0.068983   0.205348
    28  H   -0.157076   0.295785
    29  H    0.181681   0.046781
    30  H    0.138585   0.018822
    31  H   -0.092362   0.236287
 Sum of Mulliken charges =  -1.00000   1.00000

 Dipole moment (field-independent basis, Debye):
    X=             -0.6212    Y=              3.4055    Z=              2.5664  Tot=              4.3093
 Quadrupole moment (field-independent basis, Debye-Ang):
   XX=           -137.5696   YY=           -124.0734   ZZ=           -118.8486
   XY=             -3.3037   XZ=             -2.3379   YZ=             -4.1865

 Summary of Natural Population Analysis:

                                       Natural Population
                Natural  -----------------------------------------------
    Atom  No    Charge         Core      Valence    Rydberg      Total
 -----------------------------------------------------------------------
      C    1   -0.08679      0.99967     2.07376    0.01336     3.08679
      N    2   -0.11815      0.99967     2.60541    0.01308     3.61815
      N    3   -0.22030      0.99969     2.70481    0.01579     3.72030
      C    4   -0.00618      0.99952     1.98943    0.01723     3.00618
      C    5   -0.11627      0.99957     2.10276    0.01395     3.11627
      C    6   -0.19156      0.99960     2.18215    0.00982     3.19156
      C    7   -0.11028      0.99959     2.09948    0.01122     3.11028
      C    8   -0.18725      0.99960     2.17764    0.01001     3.18725
      C    9   -0.11148      0.99959     2.09968    0.01220     3.11148
      C   10   -0.18662      0.99960     2.17653    0.01049     3.18662
      C   11   -0.18595      0.99960     2.17640    0.00994     3.18595
      C   12   -0.11132      0.99957     2.09975    0.01201     3.11132
      C   13   -0.19155      0.99960     2.18379    0.00816     3.19155
      H   14    0.08420      0.00000     0.41484    0.00096     0.41580
      H   15    0.06970      0.00000     0.42829    0.00201     0.43030
      H   16    0.16671      0.00000     0.32772    0.00556     0.33329
      H   17    0.10171      0.00000     0.39599    0.00230     0.39829
      H   18    0.10279      0.00000     0.39467    0.00253     0.39721
      H   19    0.09676      0.00000     0.40212    0.00113     0.40324
      H   20    0.10724      0.00000     0.39102    0.00174     0.39276
      H   21    0.09621      0.00000     0.40247    0.00131     0.40379
      H   22    0.09649      0.00000     0.40236    0.00115     0.40351
      H   23    0.09774      0.00000     0.40110    0.00117     0.40226
      H   24    0.09973      0.00000     0.39852    0.00175     0.40027
      H   25    0.09912      0.00000     0.39951    0.00137     0.40088
      H   26    0.10079      0.00000     0.39739    0.00183     0.39921
      H   27    0.09732      0.00000     0.40156    0.00111     0.40268
      H   28    0.09942      0.00000     0.39934    0.00124     0.40058
      H   29    0.10215      0.00000     0.39640    0.00144     0.39785
      H   30    0.11201      0.00000     0.38643    0.00156     0.38799
      H   31    0.09358      0.00000     0.40540    0.00102     0.40642
 =======================================================================
   * Total *    0.00000     12.99488    35.81671    0.18841    49.00000

 Normal termination of Gaussian 16 at Sun Dec 13 13:00:30 2020.
