 Gaussian 16, Revision A.03,

 -----------------------------------------------------------
 # opt freq B3LYP/6-31G(d) empiricaldispersion=gd3bj scf=xqc
 -----------------------------------------------------------

 --------------------------------
 CID_107784560_JID_10156_neutraal
 --------------------------------
 Symbolic Z-matrix:
 Charge =  0 Multiplicity = 1

 SCF Done:  E(RB3LYP) =  -1272.68921820     A.U. after   16 cycles
 SCF Done:  E(RB3LYP) =  -1271.95324212     A.U. after   21 cycles
 SCF Done:  E(RB3LYP) =  -1272.68888243     A.U. after   15 cycles
 SCF Done:  E(RB3LYP) =  -1272.69722153     A.U. after   12 cycles
 SCF Done:  E(RB3LYP) =  -1272.69990586     A.U. after   13 cycles
 SCF Done:  E(RB3LYP) =  -1272.69928510     A.U. after   14 cycles
 SCF Done:  E(RB3LYP) =  -1272.70213025     A.U. after   13 cycles
 SCF Done:  E(RB3LYP) =  -1272.70259050     A.U. after   13 cycles
 SCF Done:  E(RB3LYP) =  -1272.70249018     A.U. after   13 cycles
 SCF Done:  E(RB3LYP) =  -1272.70300164     A.U. after   13 cycles
 SCF Done:  E(RB3LYP) =  -1272.70515030     A.U. after   10 cycles
 SCF Done:  E(RB3LYP) =  -1272.70515386     A.U. after   10 cycles
 SCF Done:  E(RB3LYP) =  -1272.70515522     A.U. after   10 cycles
 SCF Done:  E(RB3LYP) =  -1272.70515543     A.U. after    8 cycles
 Optimization completed.
    -- Stationary point found.
 Normal termination of Gaussian 16 at Sat Dec 12 16:28:12 2020.

 --------------------------------------------------------------------
 #N Geom=AllCheck Guess=TCheck SCRF=Check GenChk RB3LYP/6-31G(d) Freq
 --------------------------------------------------------------------

 Structure from the checkpoint file:  "JID_10156.chk"
 --------------------------------
 CID_107784560_JID_10156_neutraal
 --------------------------------
 Charge =  0 Multiplicity = 1

 SCF Done:  E(RB3LYP) =  -1272.70515543     A.U. after    1 cycles

  Exact polarizability: 188.262  27.436 176.422 -26.070  16.203 160.621
 Approx polarizability: 299.764  54.562 278.093 -74.140  33.346 303.161

                      1                      2                      3
                      A                      A                      A
 Frequencies --     21.9080                36.7065                43.8519
 Red. masses --      5.5084                 7.0038                 4.3091
 Frc consts  --      0.0016                 0.0056                 0.0049
 IR Inten    --      0.3911                 2.0743                 0.5428

                      4                      5                      6
                      A                      A                      A
 Frequencies --     51.6998                70.1983                86.0154
 Red. masses --      1.0759                 6.5168                 6.4551
 Frc consts  --      0.0017                 0.0189                 0.0281
 IR Inten    --      0.3299                 6.5960                 0.3725

                      7                      8                      9
                      A                      A                      A
 Frequencies --    104.7632               113.3633               154.9473
 Red. masses --      5.1988                 3.4165                 1.2450
 Frc consts  --      0.0336                 0.0259                 0.0176
 IR Inten    --      0.6755                 3.5537                 1.5301

                     10                     11                     12
                      A                      A                      A
 Frequencies --    170.4634               186.7913               201.3886
 Red. masses --      3.3212                 5.8051                 3.6633
 Frc consts  --      0.0569                 0.1193                 0.0875
 IR Inten    --      4.4490                 2.9199                 3.1186

                     13                     14                     15
                      A                      A                      A
 Frequencies --    225.2528               237.6907               271.5818
 Red. masses --      5.3757                 3.7737                 4.8564
 Frc consts  --      0.1607                 0.1256                 0.2110
 IR Inten    --      2.8852                 2.5722                 2.4598

                     16                     17                     18
                      A                      A                      A
 Frequencies --    290.3235               328.4075               330.2247
 Red. masses --      4.3412                 1.2100                 3.4117
 Frc consts  --      0.2156                 0.0769                 0.2192
 IR Inten    --     12.2476                41.0365                 7.1665

                     19                     20                     21
                      A                      A                      A
 Frequencies --    346.7099               358.1874               376.3631
 Red. masses --      8.1017                 2.7303                 3.0900
 Frc consts  --      0.5738                 0.2064                 0.2579
 IR Inten    --      0.4168                10.1568                 5.1924

                     22                     23                     24
                      A                      A                      A
 Frequencies --    388.3814               407.5140               441.2536
 Red. masses --      3.0226                 5.0134                 3.4388
 Frc consts  --      0.2686                 0.4905                 0.3945
 IR Inten    --      4.8492                 6.0293                 5.0845

                     25                     26                     27
                      A                      A                      A
 Frequencies --    458.5011               481.2921               510.5272
 Red. masses --      3.1244                 6.9622                 3.1045
 Frc consts  --      0.3870                 0.9502                 0.4767
 IR Inten    --      3.2023                19.4923                 5.2754

                     28                     29                     30
                      A                      A                      A
 Frequencies --    538.0754               541.5097               543.7823
 Red. masses --      4.1375                 3.9348                 2.5482
 Frc consts  --      0.7058                 0.6798                 0.4439
 IR Inten    --      8.1238                14.1648                97.7954

                     31                     32                     33
                      A                      A                      A
 Frequencies --    607.7585               636.5673               653.2391
 Red. masses --      6.1581                 5.3582                 6.2798
 Frc consts  --      1.3402                 1.2793                 1.5788
 IR Inten    --      1.3882                 2.4236                20.3335

                     34                     35                     36
                      A                      A                      A
 Frequencies --    657.4815               694.9369               702.2035
 Red. masses --      5.8112                 4.6424                 9.0410
 Frc consts  --      1.4801                 1.3209                 2.6266
 IR Inten    --     17.1399                12.5272                10.4222

                     37                     38                     39
                      A                      A                      A
 Frequencies --    719.7991               758.9566               793.1434
 Red. masses --      3.5678                 2.2550                11.5323
 Frc consts  --      1.0891                 0.7653                 4.2743
 IR Inten    --      6.2623                 8.9344                 5.6989

                     40                     41                     42
                      A                      A                      A
 Frequencies --    817.1218               853.3655               871.1503
 Red. masses --      1.5491                 5.7620                 2.8176
 Frc consts  --      0.6094                 2.4723                 1.2598
 IR Inten    --     32.6096                 3.7557                72.1084

                     43                     44                     45
                      A                      A                      A
 Frequencies --    896.4580               917.3948               923.3779
 Red. masses --      1.6545                 2.1020                 1.3028
 Frc consts  --      0.7834                 1.0423                 0.6545
 IR Inten    --     33.7834                87.6196                 8.2790

                     46                     47                     48
                      A                      A                      A
 Frequencies --    939.7300               993.1944              1006.0075
 Red. masses --      1.5125                 1.3123                 1.8104
 Frc consts  --      0.7870                 0.7627                 1.0795
 IR Inten    --      9.3502                 1.6627                23.5038

                     49                     50                     51
                      A                      A                      A
 Frequencies --   1024.0865              1040.1912              1072.2069
 Red. masses --      5.2141                 1.7108                 2.2819
 Frc consts  --      3.2218                 1.0906                 1.5456
 IR Inten    --      4.4806                10.3469                 3.9322

                     52                     53                     54
                      A                      A                      A
 Frequencies --   1074.3650              1093.1011              1098.7819
 Red. masses --      1.5231                 2.1942                 4.2437
 Frc consts  --      1.0358                 1.5447                 3.0187
 IR Inten    --      9.3500                 8.2498                43.5257

                     55                     56                     57
                      A                      A                      A
 Frequencies --   1133.1360              1164.3867              1172.1554
 Red. masses --      1.5905                 1.3265                 1.3737
 Frc consts  --      1.2032                 1.0596                 1.1121
 IR Inten    --      0.5744                25.8070                 3.8654

                     58                     59                     60
                      A                      A                      A
 Frequencies --   1193.5883              1195.1733              1213.2185
 Red. masses --      3.0192                 1.4007                 3.3343
 Frc consts  --      2.5343                 1.1789                 2.8915
 IR Inten    --     88.0687                 6.6273                47.4650

                     61                     62                     63
                      A                      A                      A
 Frequencies --   1214.6802              1234.3662              1262.0837
 Red. masses --      1.2777                 1.3875                 1.8022
 Frc consts  --      1.1108                 1.2456                 1.6914
 IR Inten    --     10.0855                 1.2631                 2.2150

                     64                     65                     66
                      A                      A                      A
 Frequencies --   1289.4751              1324.9595              1341.0439
 Red. masses --      1.9063                 4.2553                 1.4851
 Frc consts  --      1.8676                 4.4014                 1.5736
 IR Inten    --      4.2592                50.4885                27.8721

                     67                     68                     69
                      A                      A                      A
 Frequencies --   1345.8185              1367.2879              1408.6371
 Red. masses --      1.5822                 2.6668                 4.0641
 Frc consts  --      1.6884                 2.9374                 4.7513
 IR Inten    --     14.5760                 0.7068                92.4426

                     70                     71                     72
                      A                      A                      A
 Frequencies --   1431.4689              1442.8025              1459.4944
 Red. masses --      1.4423                 1.2555                 1.3041
 Frc consts  --      1.7413                 1.5399                 1.6366
 IR Inten    --     15.0719                 0.9650                 5.9790

                     73                     74                     75
                      A                      A                      A
 Frequencies --   1477.9362              1488.2927              1493.6401
 Red. masses --      2.5328                 1.2706                 1.2750
 Frc consts  --      3.2596                 1.6583                 1.6759
 IR Inten    --      4.3421                52.5599                35.4458

                     76                     77                     78
                      A                      A                      A
 Frequencies --   1513.5420              1517.1252              1524.2101
 Red. masses --      1.0650                 1.0514                 1.2999
 Frc consts  --      1.4374                 1.4258                 1.7793
 IR Inten    --     13.1316                 5.9593                31.6997

                     79                     80                     81
                      A                      A                      A
 Frequencies --   1531.2616              1543.3180              1611.4215
 Red. masses --      1.2688                 1.9202                 4.9091
 Frc consts  --      1.7529                 2.6946                 7.5105
 IR Inten    --     96.0065                15.3491               312.9303

                     82                     83                     84
                      A                      A                      A
 Frequencies --   1649.4642              1667.4613              1694.4108
 Red. masses --      5.2615                 5.6031                 1.0959
 Frc consts  --      8.4342                 9.1789                 1.8538
 IR Inten    --      4.0554                 8.7263                33.5169

                     85                     86                     87
                      A                      A                      A
 Frequencies --   1806.4940              1821.3776              3027.6700
 Red. masses --     12.9845                10.4052                 1.0836
 Frc consts  --     24.9660                20.3376                 5.8523
 IR Inten    --    161.3652               414.2362                17.2222

                     88                     89                     90
                      A                      A                      A
 Frequencies --   3042.6311              3067.9595              3087.3384
 Red. masses --      1.0380                 1.0376                 1.0620
 Frc consts  --      5.6614                 5.7539                 5.9639
 IR Inten    --     29.6174                42.0927                27.6917

                     91                     92                     93
                      A                      A                      A
 Frequencies --   3096.8648              3121.5627              3138.9873
 Red. masses --      1.0989                 1.1023                 1.1051
 Frc consts  --      6.2093                 6.3282                 6.4157
 IR Inten    --     18.8411                17.0008                 8.7730

                     94                     95                     96
                      A                      A                      A
 Frequencies --   3151.7003              3182.6280              3203.3807
 Red. masses --      1.1043                 1.0885                 1.0890
 Frc consts  --      6.4630                 6.4961                 6.5840
 IR Inten    --      2.0005                11.0741                 6.2075

                     97                     98                     99
                      A                      A                      A
 Frequencies --   3210.4602              3214.3626              3217.2527
 Red. masses --      1.0891                 1.0993                 1.0958
 Frc consts  --      6.6135                 6.6918                 6.6825
 IR Inten    --      3.7602                 0.8815                 4.4305

                    100                    101                    102
                      A                      A                      A
 Frequencies --   3458.2498              3548.9870              3575.8994
 Red. masses --      1.0502                 1.0914                 1.0782
 Frc consts  --      7.3998                 8.0994                 8.1232
 IR Inten    --      0.2851                 0.3251                30.2880

 - Thermochemistry -
 -------------------
 Temperature   298.150 Kelvin.  Pressure   1.00000 Atm.
 Atom     1 has atomic number  6 and mass  12.00000

 Molecular mass:   292.09940 amu.
 Principal axes and moments of inertia in atomic units:
                           1         2         3
     Eigenvalues --  4256.167045989.169057271.84151
           X            1.00000   0.00014   0.00114
           Y           -0.00020   0.99851   0.05449
           Z           -0.00113  -0.05449   0.99851
 This molecule is an asymmetric top.
 Rotational symmetry number  1.
 Warning -- assumption of classical behavior for rotation
           may cause significant error
 Rotational temperatures (Kelvin)      0.02035     0.01446     0.01191
 Rotational constants (GHZ):           0.42403     0.30133     0.24818
 Zero-point vibrational energy     753898.3 (Joules/Mol)
                                  180.18603 (Kcal/Mol)
 Warning -- explicit consideration of  31 degrees of freedom as
           vibrations may cause significant error
 Vibrational temperatures:     31.52    52.81    63.09    74.38   101.00
          (Kelvin)            123.76   150.73   163.10   222.93   245.26
                              268.75   289.75   324.09   341.98   390.75
                              417.71   472.51   475.12   498.84   515.35
                              541.50   558.79   586.32   634.87   659.68
                              692.47   734.53   774.17   779.11   782.38
                              874.43   915.88   939.87   945.97   999.86
                             1010.31  1035.63  1091.97  1141.16  1175.66
                             1227.80  1253.39  1289.80  1319.93  1328.53
                             1352.06  1428.99  1447.42  1473.43  1496.60
                             1542.67  1545.77  1572.73  1580.90  1630.33
                             1675.29  1686.47  1717.31  1719.59  1745.55
                             1747.65  1775.98  1815.86  1855.27  1906.32
                             1929.46  1936.33  1967.22  2026.71  2059.56
                             2075.87  2099.89  2126.42  2141.32  2149.01
                             2177.65  2182.80  2193.00  2203.14  2220.49
                             2318.48  2373.21  2399.10  2437.88  2599.14
                             2620.56  4356.14  4377.67  4414.11  4441.99
                             4455.70  4491.23  4516.30  4534.59  4579.09
                             4608.95  4619.14  4624.75  4628.91  4975.65
                             5106.20  5144.92

 Zero-point correction=                           0.287145 (Hartree/Particle)
 Thermal correction to Energy=                    0.306702
 Thermal correction to Enthalpy=                  0.307646
 Thermal correction to Gibbs Free Energy=         0.237995
 Sum of electronic and zero-point Energies=          -1272.418011
 Sum of electronic and thermal Energies=             -1272.398453
 Sum of electronic and thermal Enthalpies=           -1272.397509
 Sum of electronic and thermal Free Energies=        -1272.467160

                     E (Thermal)             CV                S
                      KCal/Mol        Cal/Mol-Kelvin    Cal/Mol-Kelvin
 Total                  192.458             73.328            146.593
 Electronic               0.000              0.000              0.000
 Translational            0.889              2.981             42.913
 Rotational               0.889              2.981             33.582
 Vibrational            190.681             67.366             70.097
 Vibration     1          0.593              1.985              6.453
 Vibration     2          0.594              1.982              5.429
 Vibration     3          0.595              1.980              5.077
 Vibration     4          0.596              1.977              4.751
 Vibration     5          0.598              1.968              4.148
 Vibration     6          0.601              1.959              3.749
 Vibration     7          0.605              1.945              3.364
 Vibration     8          0.607              1.938              3.210
 Vibration     9          0.620              1.897              2.611
 Vibration    10          0.626              1.879              2.430
 Vibration    11          0.632              1.858              2.259
 Vibration    12          0.638              1.838              2.120
 Vibration    13          0.650              1.803              1.916
 Vibration    14          0.656              1.783              1.820
 Vibration    15          0.675              1.726              1.586
 Vibration    16          0.686              1.692              1.472
 Vibration    17          0.712              1.619              1.268
 Vibration    18          0.713              1.615              1.259
 Vibration    19          0.725              1.582              1.181
 Vibration    20          0.733              1.558              1.130
 Vibration    21          0.747              1.520              1.054
 Vibration    22          0.757              1.495              1.006
 Vibration    23          0.772              1.454              0.935
 Vibration    24          0.801              1.380              0.823
 Vibration    25          0.817              1.342              0.770
 Vibration    26          0.838              1.292              0.707
 Vibration    27          0.866              1.227              0.632
 Vibration    28          0.893              1.166              0.569
 Vibration    29          0.897              1.158              0.562
 Vibration    30          0.899              1.153              0.557
 Vibration    31          0.967              1.015              0.437

 Optimization completed.
    -- Stationary point found.
 Normal termination of Gaussian 16 at Sat Dec 12 16:51:11 2020.

 ----------------------------------------------------------------------
 # B3LYP/6-311++G(d,p) empiricaldispersion=gd3bj scf=xqc pop=npa geom=c
 heck
 ----------------------------------------------------------------------

 ----------------------------------------
 CID_107784560_JID_10156_Energie_neutraal
 ----------------------------------------
 Structure from the checkpoint file:  "JID_10156.chk"
 Charge =  0 Multiplicity = 1

 SCF Done:  E(RB3LYP) =  -1272.98204477     A.U. after   18 cycles
 Normal termination of Gaussian 16 at Sat Dec 12 17:02:27 2020.

 ----------------------------------------------------------------------
 # B3LYP/6-311++G(d,p) empiricaldispersion=gd3bj scf=xqc pop=npa geom=c
 heck
 ----------------------------------------------------------------------

 --------------------------------------
 CID_107784560_JID_10156_Energie_kation
 --------------------------------------
 Structure from the checkpoint file:  "JID_10156.chk"
 Charge =  1 Multiplicity = 2

 SCF Done:  E(UB3LYP) =  -1272.67690084     A.U. after   33 cycles
 SCF Done:  E(UB3LYP) =  -1272.67690084     a.u. after    1 cycles
 Normal termination of Gaussian 16 at Sat Dec 12 17:30:21 2020.
 Gaussian 16:  ES64L-G16RevA.03 25-Dec-2016

 ----------------------------------------------------------------------
 # B3LYP/6-311++G(d,p) empiricaldispersion=gd3bj scf=xqc pop=npa geom=c
 heck
 ----------------------------------------------------------------------

 -------------------------------------
 CID_107784560_JID_10156_Energie_anion
 -------------------------------------
 Structure from the checkpoint file:  "JID_10156.chk"
 Charge = -1 Multiplicity = 2

                         Standard orientation:
 ---------------------------------------------------------------------
 Center     Atomic      Atomic             Coordinates (Angstroms)
 Number     Number       Type             X           Y           Z
 ---------------------------------------------------------------------
      1          6           0       -2.168770    3.461363    0.844541
      2          6           0       -1.609703    2.373890   -0.042186
      3          6           0       -2.224325    1.114166   -0.090095
      4          6           0       -1.748130    0.097803   -0.920264
      5          6           0       -0.647685    0.364954   -1.746574
      6          6           0       -0.019475    1.606321   -1.704260
      7          6           0       -0.490837    2.603785   -0.848189
      8          6           0       -2.381216   -1.289463   -0.918671
      9          6           0       -1.341614   -2.392386   -0.596562
     10         16           0       -0.604515   -2.212520    1.080029
     11          6           0        0.814818   -1.206649    0.654710
     12          7           0        1.442587   -1.447752   -0.453154
     13          6           0        2.408975   -0.567213   -0.920252
     14          8           0        2.754917   -0.514090   -2.082028
     15          6           0        3.082817    0.314452    0.132539
     16          8           0        4.164630    0.852148    0.013880
     17          7           0        2.338969    0.444860    1.291734
     18          7           0        1.166720   -0.261438    1.568518
     19          6           0        0.250492    0.484831    2.434002
     20          7           0       -3.562625   -1.337479   -0.057558
     21          1           0       -3.012516    3.970480    0.361067
     22          1           0       -2.540110    3.056938    1.792918
     23          1           0       -1.414652    4.222562    1.069720
     24          1           0       -3.104125    0.927687    0.516806
     25          1           0       -0.249856   -0.404120   -2.400807
     26          1           0        0.850075    1.786052   -2.329176
     27          1           0        0.007364    3.569629   -0.815419
     28          1           0       -2.729031   -1.503901   -1.939599
     29          1           0       -1.824223   -3.374648   -0.598892
     30          1           0       -0.499873   -2.417813   -1.291996
     31          1           0        2.810444    0.823749    2.105984
     32          1           0        0.731599    0.655476    3.402503
     33          1           0       -0.000388    1.437483    1.959063
     34          1           0       -0.652667   -0.101722    2.580394
     35          1           0       -4.040101   -2.227668   -0.185884
     36          1           0       -3.267718   -1.306784    0.918821
 ---------------------------------------------------------------------

 SCF Done:  E(UB3LYP) =  -1272.99964850     A.U. after   33 cycles
 SCF Done:  E(UB3LYP) =  -1272.99964850     a.u. after    1 cycles

 The electronic state is 2-A.
 Alpha  occ. eigenvalues --  -88.73656 -18.95574 -18.92130 -14.26236 -14.24392
 Alpha  occ. eigenvalues --  -14.20600 -14.15794 -10.13155 -10.13024 -10.11394
 Alpha  occ. eigenvalues --  -10.10287 -10.09309 -10.09106 -10.08008 -10.07843
 Alpha  occ. eigenvalues --  -10.07281 -10.06253 -10.05957 -10.05928 -10.05830
 Alpha  occ. eigenvalues --   -7.82287  -5.78654  -5.78292  -5.77718  -0.93597
 Alpha  occ. eigenvalues --   -0.89236  -0.87020  -0.80799  -0.78028  -0.74968
 Alpha  occ. eigenvalues --   -0.73185  -0.68487  -0.66737  -0.64300  -0.61146
 Alpha  occ. eigenvalues --   -0.59421  -0.57924  -0.53864  -0.52922  -0.48849
 Alpha  occ. eigenvalues --   -0.48551  -0.45759  -0.43509  -0.41616  -0.39608
 Alpha  occ. eigenvalues --   -0.38922  -0.38518  -0.37243  -0.35822  -0.34491
 Alpha  occ. eigenvalues --   -0.33819  -0.33104  -0.32804  -0.31990  -0.31781
 Alpha  occ. eigenvalues --   -0.30718  -0.30337  -0.30236  -0.29183  -0.29066
 Alpha  occ. eigenvalues --   -0.27544  -0.26338  -0.25343  -0.24684  -0.23617
 Alpha  occ. eigenvalues --   -0.23355  -0.22893  -0.21463  -0.17122  -0.16613
 Alpha  occ. eigenvalues --   -0.15762  -0.14370  -0.13773  -0.13177  -0.12053
 Alpha  occ. eigenvalues --   -0.10319  -0.08953   0.03750
 Alpha virt. eigenvalues --    0.06306   0.06743   0.07951   0.08303   0.08868
 Alpha virt. eigenvalues --    0.09458   0.09951   0.09991   0.10656   0.10800
 Alpha virt. eigenvalues --    0.11605   0.11905   0.12638   0.12904   0.13159

  Beta  occ. eigenvalues --  -88.73649 -18.95489 -18.91559 -14.26022 -14.24264
  Beta  occ. eigenvalues --  -14.20597 -14.15954 -10.13087 -10.12599 -10.11394
  Beta  occ. eigenvalues --  -10.10263 -10.09058 -10.09032 -10.08005 -10.07858
  Beta  occ. eigenvalues --  -10.07264 -10.06219 -10.05912 -10.05901 -10.05833
  Beta  occ. eigenvalues --   -7.82280  -5.78640  -5.78300  -5.77692  -0.93272
  Beta  occ. eigenvalues --   -0.88959  -0.86149  -0.80777  -0.77712  -0.74922
  Beta  occ. eigenvalues --   -0.72899  -0.68423  -0.66671  -0.64211  -0.60948
  Beta  occ. eigenvalues --   -0.59345  -0.57848  -0.53508  -0.52639  -0.48802
  Beta  occ. eigenvalues --   -0.48227  -0.45632  -0.43248  -0.41587  -0.39459
  Beta  occ. eigenvalues --   -0.38703  -0.38118  -0.37206  -0.35444  -0.34438
  Beta  occ. eigenvalues --   -0.33759  -0.33042  -0.32749  -0.31904  -0.31721
  Beta  occ. eigenvalues --   -0.30425  -0.30189  -0.29897  -0.29066  -0.28864
  Beta  occ. eigenvalues --   -0.27351  -0.25790  -0.24762  -0.24198  -0.23448
  Beta  occ. eigenvalues --   -0.22975  -0.21750  -0.21234  -0.16630  -0.16103
  Beta  occ. eigenvalues --   -0.15500  -0.13993  -0.13586  -0.12905  -0.11703
  Beta  occ. eigenvalues --   -0.09156  -0.08559
  Beta virt. eigenvalues --    0.06234   0.06722   0.07833   0.08275   0.08914
  Beta virt. eigenvalues --    0.09235   0.09586   0.09975   0.10430   0.10789
  Beta virt. eigenvalues --    0.11461   0.11650   0.12286   0.12756   0.13001

 Mulliken charges and spin densities:
               1          2
     1  C   -0.352257  -0.048258
     2  C    0.350621   0.020682
     3  C   -0.387902   0.011185
     4  C   -0.117992   0.086477
     5  C   -0.209536  -0.029143
     6  C   -0.247211  -0.063866
     7  C   -0.635650   0.123271
     8  C    0.527950  -0.218552
     9  C   -0.668875   0.008549
    10  S    0.111013   0.022418
    11  C   -0.564016   0.242558
    12  N    0.087570  -0.091296
    13  C   -0.105294   0.177667
    14  O   -0.351569   0.199689
    15  C    0.058540   0.050980
    16  O   -0.358209   0.032645
    17  N   -0.486351   0.048434
    18  N    0.533602   0.049152
    19  C   -0.364913  -0.006832
    20  N   -0.468144   0.011985
    21  H    0.144028   0.006902
    22  H    0.132824   0.008525
    23  H    0.115717   0.027054
    24  H    0.166242  -0.001826
    25  H    0.199318  -0.000479
    26  H    0.202218   0.010527
    27  H    0.122857   0.012188
    28  H    0.197469  -0.001417
    29  H    0.009367   0.216823
    30  H    0.235880  -0.010258
    31  H    0.263707   0.035030
    32  H    0.127203   0.005868
    33  H    0.194059   0.034061
    34  H    0.117033  -0.000308
    35  H    0.232224   0.016183
    36  H    0.188475   0.013381
 Sum of Mulliken charges =  -1.00000   1.00000

 Dipole moment (field-independent basis, Debye):
    X=             -9.0594    Y=              1.6112    Z=              5.2430  Tot=             10.5905
 Quadrupole moment (field-independent basis, Debye-Ang):
   XX=           -186.5901   YY=           -144.8739   ZZ=           -140.2580
   XY=              2.7877   XZ=             13.3854   YZ=              3.7064

 Summary of Natural Population Analysis:

                                       Natural Population
                Natural  -----------------------------------------------
    Atom  No    Charge         Core      Valence    Rydberg      Total
 -----------------------------------------------------------------------
      C    1   -0.29063      0.99964     2.28586    0.00513     3.29063
      C    2   -0.02992      0.99952     2.02211    0.00829     3.02992
      C    3   -0.09751      0.99946     2.08972    0.00832     3.09751
      C    4   -0.01622      0.99948     2.00537    0.01136     3.01622
      C    5   -0.09831      0.99952     2.08900    0.00979     3.09831
      C    6   -0.09051      0.99957     2.08154    0.00940     3.09051
      C    7   -0.10113      0.99951     2.09295    0.00867     3.10113
      C    8   -0.02300      0.99955     2.01067    0.01279     3.02300
      C    9   -0.25169      0.99957     2.23871    0.01341     3.25169
      S   10    0.08796      4.99954     2.89353    0.01897     7.91204
      C   11    0.23378      0.99954     1.74478    0.02191     2.76622
      N   12   -0.33563      0.99960     2.82291    0.01311     3.83563
      C   13    0.31516      0.99964     1.65981    0.02539     2.68484
      O   14   -0.23187      0.99987     3.22577    0.00624     4.23187
      C   15    0.30752      0.99966     1.66794    0.02488     2.69248
      O   16   -0.30747      0.99987     3.30081    0.00678     4.30747
      N   17   -0.21108      0.99967     2.69808    0.01332     3.71108
      N   18   -0.13038      0.99959     2.61839    0.01240     3.63038
      C   19   -0.17438      0.99964     2.16853    0.00621     3.17438
      N   20   -0.42252      0.99977     2.91362    0.00914     3.92252
      H   21    0.09994      0.00000     0.39896    0.00109     0.40006
      H   22    0.09871      0.00000     0.40009    0.00121     0.40129
      H   23    0.09947      0.00000     0.39939    0.00114     0.40053
      H   24    0.10193      0.00000     0.39677    0.00130     0.39807
      H   25    0.11052      0.00000     0.38751    0.00197     0.38948
      H   26    0.10948      0.00000     0.38909    0.00144     0.39052
      H   27    0.09551      0.00000     0.40338    0.00111     0.40449
      H   28    0.09566      0.00000     0.40261    0.00173     0.40434
      H   29    0.09920      0.00000     0.39914    0.00166     0.40080
      H   30    0.12678      0.00000     0.37140    0.00181     0.37322
      H   31    0.18723      0.00000     0.31038    0.00239     0.31277
      H   32    0.08598      0.00000     0.41302    0.00100     0.41402
      H   33    0.10104      0.00000     0.39707    0.00189     0.39896
      H   34    0.10784      0.00000     0.39079    0.00136     0.39216
      H   35    0.17250      0.00000     0.32589    0.00161     0.32750
      H   36    0.17605      0.00000     0.32201    0.00194     0.32395
 =======================================================================
   * Total *    0.00000     23.99223    52.73759    0.27018    77.00000

 Normal termination of Gaussian 16 at Sat Dec 12 17:58:14 2020.
