 Gaussian 16, Revision A.03,

 -----------------------------------------------------------
 # opt freq B3LYP/6-31G(d) empiricaldispersion=gd3bj scf=xqc
 -----------------------------------------------------------

 ------------------------------
 CID_11816082_JID_2582_neutraal
 ------------------------------
 Symbolic Z-matrix:
 Charge =  0 Multiplicity = 1

 SCF Done:  E(RB3LYP) =  -541.142421450     A.U. after   13 cycles
 SCF Done:  E(RB3LYP) =  -541.146594159     A.U. after   12 cycles
 SCF Done:  E(RB3LYP) =  -541.147290287     A.U. after   12 cycles
 SCF Done:  E(RB3LYP) =  -541.147367176     A.U. after   10 cycles
 SCF Done:  E(RB3LYP) =  -541.147386332     A.U. after   10 cycles
 SCF Done:  E(RB3LYP) =  -541.147391268     A.U. after    9 cycles
 SCF Done:  E(RB3LYP) =  -541.147392797     A.U. after    8 cycles
 SCF Done:  E(RB3LYP) =  -541.147393133     A.U. after    8 cycles
 SCF Done:  E(RB3LYP) =  -541.147393288     A.U. after    8 cycles
 SCF Done:  E(RB3LYP) =  -541.147393327     A.U. after    7 cycles
 Optimization completed.
    -- Stationary point found.
 Normal termination of Gaussian 16 at Wed Dec  9 17:36:54 2020.

 --------------------------------------------------------------------
 #N Geom=AllCheck Guess=TCheck SCRF=Check GenChk RB3LYP/6-31G(d) Freq
 --------------------------------------------------------------------

 Structure from the checkpoint file:  "JID_2582.chk"
 ------------------------------
 CID_11816082_JID_2582_neutraal
 ------------------------------
 Charge =  0 Multiplicity = 1

 SCF Done:  E(RB3LYP) =  -541.147393327     A.U. after    1 cycles

  Exact polarizability: 175.733   2.333 103.132  -6.520   1.686  75.188
 Approx polarizability: 232.131   7.349 145.264 -16.487   4.575 111.509

                      1                      2                      3
                      A                      A                      A
 Frequencies --     34.5803                49.0998                73.5930
 Red. masses --      3.5766                 3.5135                 3.6457
 Frc consts  --      0.0025                 0.0050                 0.0116
 IR Inten    --      0.1529                 0.0120                 2.0496

                      4                      5                      6
                      A                      A                      A
 Frequencies --    106.6493               159.0818               177.9569
 Red. masses --      2.1665                 2.6469                 3.4738
 Frc consts  --      0.0145                 0.0395                 0.0648
 IR Inten    --      0.0754                 5.5118                 0.4360

                      7                      8                      9
                      A                      A                      A
 Frequencies --    197.7978               207.2628               250.0243
 Red. masses --      2.7189                 1.0869                 1.0494
 Frc consts  --      0.0627                 0.0275                 0.0387
 IR Inten    --      0.9145                 0.0149                 0.2102

                     10                     11                     12
                      A                      A                      A
 Frequencies --    285.2265               313.4788               344.0078
 Red. masses --      2.3267                 2.3348                 2.4827
 Frc consts  --      0.1115                 0.1352                 0.1731
 IR Inten    --      1.8453                 0.1283                 0.9707

                     13                     14                     15
                      A                      A                      A
 Frequencies --    358.5168               390.6914               446.4762
 Red. masses --      3.1030                 2.5157                 2.8893
 Frc consts  --      0.2350                 0.2262                 0.3393
 IR Inten    --      0.8993                 3.1765                 1.6160

                     16                     17                     18
                      A                      A                      A
 Frequencies --    482.5592               513.6145               537.9032
 Red. masses --      2.1953                 3.3224                 2.8116
 Frc consts  --      0.3012                 0.5164                 0.4793
 IR Inten    --      0.1671                19.8913                 1.3996

                     19                     20                     21
                      A                      A                      A
 Frequencies --    641.8065               664.9223               750.0681
 Red. masses --      3.8293                 1.4782                 3.4648
 Frc consts  --      0.9293                 0.3851                 1.1485
 IR Inten    --      0.9215                 0.7424                 2.2830

                     22                     23                     24
                      A                      A                      A
 Frequencies --    798.0400               832.9728               862.7640
 Red. masses --      7.1787                 2.5583                 1.9142
 Frc consts  --      2.6937                 1.0458                 0.8395
 IR Inten    --      5.1604                23.8197                19.3902

                     25                     26                     27
                      A                      A                      A
 Frequencies --    886.2892               918.2969               935.9098
 Red. masses --      2.3221                 1.3753                 1.4899
 Frc consts  --      1.0747                 0.6833                 0.7689
 IR Inten    --     19.4567                34.0480                 0.7254

                     28                     29                     30
                      A                      A                      A
 Frequencies --    943.4526               965.4536               989.4296
 Red. masses --      1.9774                 1.7987                 1.8023
 Frc consts  --      1.0370                 0.9878                 1.0396
 IR Inten    --      3.2615                 1.5617                 4.6138

                     31                     32                     33
                      A                      A                      A
 Frequencies --    993.8489              1001.3875              1017.4233
 Red. masses --      1.1436                 2.2015                 1.3232
 Frc consts  --      0.6655                 1.3007                 0.8070
 IR Inten    --      4.7344                 8.6399                 1.8012

                     34                     35                     36
                      A                      A                      A
 Frequencies --   1045.4170              1057.3599              1099.2798
 Red. masses --      2.5980                 1.1238                 4.5881
 Frc consts  --      1.6729                 0.7402                 3.2666
 IR Inten    --     91.9543                35.7204                87.1398

                     37                     38                     39
                      A                      A                      A
 Frequencies --   1122.4903              1141.0904              1187.7817
 Red. masses --      2.8342                 2.2831                 1.8443
 Frc consts  --      2.1040                 1.7515                 1.5331
 IR Inten    --     28.2764                60.4801                36.1285

                     40                     41                     42
                      A                      A                      A
 Frequencies --   1196.6617              1241.8050              1252.0496
 Red. masses --      1.7788                 1.3998                 2.6697
 Frc consts  --      1.5008                 1.2718                 2.4658
 IR Inten    --     10.3568                11.4708                97.1037

                     43                     44                     45
                      A                      A                      A
 Frequencies --   1262.7118              1284.4069              1295.0002
 Red. masses --      1.3940                 2.0233                 1.6074
 Frc consts  --      1.3095                 1.9666                 1.5882
 IR Inten    --     26.0616               100.7132                24.5282

                     46                     47                     48
                      A                      A                      A
 Frequencies --   1321.3278              1340.6970              1343.7657
 Red. masses --      1.3712                 1.3605                 1.3206
 Frc consts  --      1.4105                 1.4408                 1.4050
 IR Inten    --      1.6218                 1.6429                 0.1611

                     49                     50                     51
                      A                      A                      A
 Frequencies --   1374.6471              1392.7729              1407.7023
 Red. masses --      1.4247                 1.3704                 1.3798
 Frc consts  --      1.5862                 1.5662                 1.6110
 IR Inten    --     15.9854                 4.9266                13.0049

                     52                     53                     54
                      A                      A                      A
 Frequencies --   1429.1678              1441.6163              1476.4451
 Red. masses --      1.3578                 1.2728                 1.2505
 Frc consts  --      1.6339                 1.5585                 1.6061
 IR Inten    --     21.1059                19.1723                 1.2724

                     55                     56                     57
                      A                      A                      A
 Frequencies --   1500.9934              1504.2993              1510.1086
 Red. masses --      1.0998                 1.0461                 1.0581
 Frc consts  --      1.4599                 1.3948                 1.4217
 IR Inten    --      5.8427                 0.1035                 2.3236

                     58                     59                     60
                      A                      A                      A
 Frequencies --   1526.2800              1527.0829              1544.1016
 Red. masses --      1.0654                 1.0561                 1.0925
 Frc consts  --      1.4623                 1.4511                 1.5347
 IR Inten    --      0.5756                 4.7562                 0.7307

                     61                     62                     63
                      A                      A                      A
 Frequencies --   1690.9281              1739.8685              3020.8244
 Red. masses --      4.2637                 5.3343                 1.0682
 Frc consts  --      7.1826                 9.5140                 5.7432
 IR Inten    --      4.9852                 9.3332                41.6882

                     64                     65                     66
                      A                      A                      A
 Frequencies --   3023.8277              3063.9183              3065.6275
 Red. masses --      1.0633                 1.0349                 1.0938
 Frc consts  --      5.7282                 5.7239                 6.0567
 IR Inten    --     35.6104                13.8205                 9.1106

                     67                     68                     69
                      A                      A                      A
 Frequencies --   3070.4114              3084.3464              3124.9209
 Red. masses --      1.0352                 1.0926                 1.0959
 Frc consts  --      5.7502                 6.1241                 6.3053
 IR Inten    --      9.6461                60.0549                28.2739

                     70                     71                     72
                      A                      A                      A
 Frequencies --   3138.0022              3138.6089              3141.1025
 Red. masses --      1.1035                 1.0882                 1.1031
 Frc consts  --      6.4019                 6.3157                 6.4128
 IR Inten    --      0.8549                 6.8197                23.6931

                     73                     74                     75
                      A                      A                      A
 Frequencies --   3146.2263              3152.4401              3152.9141
 Red. masses --      1.1030                 1.1030                 1.0837
 Frc consts  --      6.4329                 6.4582                 6.3472
 IR Inten    --     36.5975                21.6858                25.9275

                     76                     77                     78
                      A                      A                      A
 Frequencies --   3163.6373              3172.2232              3246.1885
 Red. masses --      1.0675                 1.0876                 1.1154
 Frc consts  --      6.2952                 6.4481                 6.9251
 IR Inten    --      6.3614                18.4052                17.7093

 - Thermochemistry -
 -------------------
 Temperature   298.150 Kelvin.  Pressure   1.00000 Atm.
 Atom     1 has atomic number  6 and mass  12.00000

 Molecular mass:   168.11503 amu.
 Principal axes and moments of inertia in atomic units:
                           1         2         3
     Eigenvalues --   798.255164768.423335074.47720
           X            0.99997   0.00720   0.00247
           Y           -0.00714   0.99969  -0.02393
           Z           -0.00265   0.02392   0.99971
 This molecule is an asymmetric top.
 Rotational symmetry number  1.
 Warning -- assumption of classical behavior for rotation
           may cause significant error
 Rotational temperatures (Kelvin)      0.10850     0.01816     0.01707
 Rotational constants (GHZ):           2.26086     0.37848     0.35565
 Zero-point vibrational energy     641758.6 (Joules/Mol)
                                  153.38399 (Kcal/Mol)
 Warning -- explicit consideration of  18 degrees of freedom as
           vibrations may cause significant error
 Vibrational temperatures:     49.75    70.64   105.88   153.44   228.88
          (Kelvin)            256.04   284.59   298.20   359.73   410.38
                              451.03   494.95   515.83   562.12   642.38
                              694.30   738.98   773.92   923.42   956.67
                             1079.18  1148.20  1198.46  1241.33  1275.17
                             1321.22  1346.57  1357.42  1389.07  1423.57
                             1429.93  1440.77  1463.85  1504.12  1521.31
                             1581.62  1615.01  1641.77  1708.95  1721.73
                             1786.68  1801.42  1816.76  1847.98  1863.22
                             1901.10  1928.96  1933.38  1977.81  2003.89
                             2025.37  2056.25  2074.16  2124.28  2159.59
                             2164.35  2172.71  2195.98  2197.13  2221.62
                             2432.87  2503.28  4346.29  4350.61  4408.30
                             4410.75  4417.64  4437.69  4496.06  4514.89
                             4515.76  4519.35  4526.72  4535.66  4536.34
                             4551.77  4564.12  4670.54

 Zero-point correction=                           0.244433 (Hartree/Particle)
 Thermal correction to Energy=                    0.257389
 Thermal correction to Enthalpy=                  0.258333
 Thermal correction to Gibbs Free Energy=         0.204422
 Sum of electronic and zero-point Energies=           -540.902960
 Sum of electronic and thermal Energies=              -540.890004
 Sum of electronic and thermal Enthalpies=            -540.889060
 Sum of electronic and thermal Free Energies=         -540.942972

                     E (Thermal)             CV                S
                      KCal/Mol        Cal/Mol-Kelvin    Cal/Mol-Kelvin
 Total                  161.514             48.423            113.466
 Electronic               0.000              0.000              0.000
 Translational            0.889              2.981             41.266
 Rotational               0.889              2.981             31.336
 Vibrational            159.736             42.461             40.864
 Vibration     1          0.594              1.983              5.548
 Vibration     2          0.595              1.978              4.853
 Vibration     3          0.599              1.966              4.055
 Vibration     4          0.606              1.944              3.329
 Vibration     5          0.621              1.892              2.561
 Vibration     6          0.628              1.869              2.350
 Vibration     7          0.637              1.843              2.153
 Vibration     8          0.641              1.830              2.068
 Vibration     9          0.663              1.763              1.730
 Vibration    10          0.683              1.701              1.502
 Vibration    11          0.701              1.648              1.344
 Vibration    12          0.723              1.587              1.193
 Vibration    13          0.733              1.558              1.129
 Vibration    14          0.758              1.490              0.998
 Vibration    15          0.806              1.369              0.807
 Vibration    16          0.839              1.289              0.703
 Vibration    17          0.869              1.220              0.625
 Vibration    18          0.893              1.166              0.570

                           ! Non-Optimized Parameters !
 Normal termination of Gaussian 16 at Wed Dec  9 17:42:48 2020.

 ----------------------------------------------------------------------
 # B3LYP/6-311++G(d,p) empiricaldispersion=gd3bj scf=xqc pop=npa geom=c
 heck
 ----------------------------------------------------------------------

 --------------------------------------
 CID_11816082_JID_2582_Energie_neutraal
 --------------------------------------
 Structure from the checkpoint file:  "JID_2582.chk"
 Charge =  0 Multiplicity = 1

 SCF Done:  E(RB3LYP) =  -541.302739401     A.U. after   13 cycles
 Normal termination of Gaussian 16 at Wed Dec  9 17:46:03 2020.

 ----------------------------------------------------------------------
 # B3LYP/6-311++G(d,p) empiricaldispersion=gd3bj scf=xqc pop=npa geom=c
 heck
 ----------------------------------------------------------------------

 ------------------------------------
 CID_11816082_JID_2582_Energie_kation
 ------------------------------------
 Structure from the checkpoint file:  "JID_2582.chk"
 Charge =  1 Multiplicity = 2

 SCF Done:  E(UB3LYP) =  -541.004498288     A.U. after   27 cycles
 Normal termination of Gaussian 16 at Wed Dec  9 17:52:59 2020.
 Gaussian 16:  ES64L-G16RevA.03 25-Dec-2016

 ----------------------------------------------------------------------
 # B3LYP/6-311++G(d,p) empiricaldispersion=gd3bj scf=xqc pop=npa geom=c
 heck
 ----------------------------------------------------------------------

 -----------------------------------
 CID_11816082_JID_2582_Energie_anion
 -----------------------------------
 Structure from the checkpoint file:  "JID_2582.chk"
 Charge = -1 Multiplicity = 2

                         Standard orientation:
 ---------------------------------------------------------------------
 Center     Atomic      Atomic             Coordinates (Angstroms)
 Number     Number       Type             X           Y           Z
 ---------------------------------------------------------------------
      1          6           0       -3.363147   -0.769724   -1.051140
      2          6           0       -2.280940   -0.517254   -0.003134
      3          8           0       -2.491659    0.729892    0.656702
      4          6           0       -1.739889    1.699875   -0.060214
      5          6           0       -0.495153    0.914010   -0.483835
      6          8           0       -1.014956   -0.405215   -0.676264
      7          6           0        0.611607    0.920901    0.583618
      8          6           0        1.712194   -0.046241    0.273976
      9          6           0        3.009620    0.277385    0.155678
     10          6           0        4.062028   -0.676417   -0.158461
     11          6           0        5.360341   -0.362872   -0.274000
     12          6           0       -2.211752   -1.608490    1.054672
     13          1           0       -4.341578   -0.871511   -0.571661
     14          1           0       -3.402945    0.061043   -1.761799
     15          1           0       -3.142428   -1.685727   -1.607372
     16          1           0       -1.529904    2.533382    0.614830
     17          1           0       -2.294228    2.073952   -0.933330
     18          1           0       -0.089891    1.254328   -1.442959
     19          1           0        1.012888    1.939061    0.673133
     20          1           0        0.140484    0.670960    1.545508
     21          1           0        1.402021   -1.078709    0.119462
     22          1           0        3.319600    1.313418    0.302459
     23          1           0        3.745982   -1.709440   -0.305884
     24          1           0        6.110929   -1.110345   -0.511280
     25          1           0        5.712933    0.656606   -0.133763
     26          1           0       -1.413144   -1.382831    1.765861
     27          1           0       -3.160482   -1.674036    1.596025
     28          1           0       -2.006769   -2.574618    0.584314
 ---------------------------------------------------------------------

 SCF Done:  E(UB3LYP) =  -541.287360754     A.U. after   33 cycles
 SCF Done:  E(UB3LYP) =  -541.287360754     a.u. after    1 cycles

 The electronic state is 2-A.
 Alpha  occ. eigenvalues --  -19.02665 -19.01922 -10.17259 -10.11780 -10.11245
 Alpha  occ. eigenvalues --  -10.06266 -10.06139 -10.05991 -10.05498 -10.05249
 Alpha  occ. eigenvalues --  -10.05049 -10.04673  -0.98604  -0.89077  -0.71300
 Alpha  occ. eigenvalues --   -0.69196  -0.65352  -0.61132  -0.59798  -0.56893
 Alpha  occ. eigenvalues --   -0.50982  -0.47905  -0.46159  -0.43961  -0.39958
 Alpha  occ. eigenvalues --   -0.38772  -0.37377  -0.35958  -0.34494  -0.33554
 Alpha  occ. eigenvalues --   -0.31478  -0.30934  -0.29952  -0.28929  -0.28268
 Alpha  occ. eigenvalues --   -0.27816  -0.26916  -0.26264  -0.25230  -0.23936
 Alpha  occ. eigenvalues --   -0.23181  -0.22046  -0.21021  -0.17008  -0.15482
 Alpha  occ. eigenvalues --   -0.11684   0.04971
 Alpha virt. eigenvalues --    0.06687   0.07405   0.08006   0.08305   0.09426
 Alpha virt. eigenvalues --    0.09585   0.10120   0.10904   0.11092   0.11717
 Alpha virt. eigenvalues --    0.12364   0.13003   0.13436   0.13900   0.14430

  Beta  occ. eigenvalues --  -19.02660 -19.01916 -10.17259 -10.11755 -10.11209
  Beta  occ. eigenvalues --  -10.06269 -10.06120 -10.05920 -10.05458 -10.05216
  Beta  occ. eigenvalues --  -10.04883 -10.04531  -0.98590  -0.89062  -0.71196
  Beta  occ. eigenvalues --   -0.69008  -0.65178  -0.60994  -0.59740  -0.56779
  Beta  occ. eigenvalues --   -0.50877  -0.47774  -0.45940  -0.43809  -0.39880
  Beta  occ. eigenvalues --   -0.38722  -0.37300  -0.35872  -0.34441  -0.33451
  Beta  occ. eigenvalues --   -0.31417  -0.30865  -0.29886  -0.28885  -0.28200
  Beta  occ. eigenvalues --   -0.27759  -0.26839  -0.26221  -0.25169  -0.23875
  Beta  occ. eigenvalues --   -0.23155  -0.21950  -0.20396  -0.16921  -0.15450
  Beta  occ. eigenvalues --   -0.10839
  Beta virt. eigenvalues --    0.07271   0.07918   0.08176   0.08465   0.08898
  Beta virt. eigenvalues --    0.09571   0.09906   0.10648   0.11262   0.11351
  Beta virt. eigenvalues --    0.11844   0.12544   0.13217   0.13707   0.14273

 Mulliken charges and spin densities:
               1          2
     1  C    1.537684  -1.718540
     2  C   -1.495672   0.608879
     3  O   -0.062994   0.052273
     4  C    1.962038  -2.326124
     5  C   -1.244967   1.620602
     6  O   -0.014510  -0.020391
     7  C    0.345165  -0.943024
     8  C    0.083315   0.604359
     9  C    0.024466  -0.698103
    10  C   -0.049016   0.225827
    11  C   -0.512538  -0.016453
    12  C   -0.058544  -0.183816
    13  H   -0.193468   0.344897
    14  H   -0.370017   0.511858
    15  H   -0.161696   0.321146
    16  H   -0.425993   0.591898
    17  H   -0.383556   0.543043
    18  H   -0.352678   0.589605
    19  H   -0.081532   0.224818
    20  H    0.061530   0.123754
    21  H    0.148220  -0.025811
    22  H    0.026720   0.047028
    23  H    0.042272   0.063166
    24  H    0.105737  -0.005199
    25  H    0.060439   0.020412
    26  H    0.015143   0.133161
    27  H   -0.068971   0.222807
    28  H    0.063420   0.087928
 Sum of Mulliken charges =  -1.00000   1.00000

 Dipole moment (field-independent basis, Debye):
    X=              2.0930    Y=             -2.1757    Z=              1.9749  Tot=              3.6076
 Quadrupole moment (field-independent basis, Debye-Ang):
   XX=           -152.8758   YY=           -104.9113   ZZ=           -105.5181
   XY=              3.9286   XZ=             -3.3653   YZ=              0.0039

 Summary of Natural Population Analysis:

                                       Natural Population
                Natural  -----------------------------------------------
    Atom  No    Charge         Core      Valence    Rydberg      Total
 -----------------------------------------------------------------------
      C    1   -0.30248      0.99959     2.29606    0.00683     3.30248
      C    2    0.29166      0.99958     1.68718    0.02158     2.70834
      O    3   -0.30770      0.99987     3.29815    0.00967     4.30770
      C    4   -0.02013      0.99955     2.00770    0.01287     3.02013
      C    5    0.05935      0.99955     1.92627    0.01484     2.94065
      O    6   -0.31497      0.99987     3.30614    0.00896     4.31497
      C    7   -0.21751      0.99959     2.20780    0.01011     3.21751
      C    8   -0.04362      0.99953     2.03534    0.00875     3.04362
      C    9   -0.11537      0.99950     2.10696    0.00891     3.11537
      C   10   -0.08988      0.99956     2.08114    0.00917     3.08988
      C   11   -0.17823      0.99959     2.17017    0.00847     3.17823
      C   12   -0.29594      0.99958     2.29029    0.00607     3.29594
      H   13    0.10159      0.00000     0.39707    0.00134     0.39841
      H   14    0.10573      0.00000     0.39272    0.00156     0.39427
      H   15    0.10312      0.00000     0.39571    0.00116     0.39688
      H   16    0.09554      0.00000     0.40229    0.00216     0.40446
      H   17    0.08450      0.00000     0.41342    0.00208     0.41550
      H   18    0.09257      0.00000     0.40592    0.00151     0.40743
      H   19    0.09971      0.00000     0.39897    0.00132     0.40029
      H   20    0.10420      0.00000     0.39421    0.00159     0.39580
      H   21    0.09193      0.00000     0.40635    0.00172     0.40807
      H   22    0.08680      0.00000     0.41144    0.00177     0.41320
      H   23    0.08819      0.00000     0.41032    0.00149     0.41181
      H   24    0.08642      0.00000     0.41260    0.00098     0.41358
      H   25    0.08438      0.00000     0.41451    0.00111     0.41562
      H   26    0.10509      0.00000     0.39388    0.00103     0.39491
      H   27    0.10283      0.00000     0.39616    0.00101     0.39717
      H   28    0.10222      0.00000     0.39688    0.00090     0.39778
 =======================================================================
   * Total *    0.00000     11.99538    33.85566    0.14896    46.00000

 Normal termination of Gaussian 16 at Wed Dec  9 18:00:33 2020.
