 Gaussian 16, Revision A.03,

 -----------------------------------------------------------
 # opt freq B3LYP/6-31G(d) empiricaldispersion=gd3bj scf=xqc
 -----------------------------------------------------------

 ------------------------------
 CID_65951381_JID_4420_neutraal
 ------------------------------
 Symbolic Z-matrix:
 Charge =  0 Multiplicity = 1

 SCF Done:  E(RB3LYP) =  -957.567245810     A.U. after   15 cycles
 SCF Done:  E(RB3LYP) =  -957.574538664     A.U. after   12 cycles
 SCF Done:  E(RB3LYP) =  -957.575644490     A.U. after   12 cycles
 SCF Done:  E(RB3LYP) =  -957.575981972     A.U. after   11 cycles
 SCF Done:  E(RB3LYP) =  -957.576195420     A.U. after   11 cycles
 SCF Done:  E(RB3LYP) =  -957.576313598     A.U. after   11 cycles
 SCF Done:  E(RB3LYP) =  -957.576398873     A.U. after   11 cycles
 SCF Done:  E(RB3LYP) =  -957.576437836     A.U. after   10 cycles
 SCF Done:  E(RB3LYP) =  -957.576470948     A.U. after   11 cycles
 SCF Done:  E(RB3LYP) =  -957.576500702     A.U. after   11 cycles
 SCF Done:  E(RB3LYP) =  -957.576527748     A.U. after    8 cycles
 SCF Done:  E(RB3LYP) =  -957.576526031     A.U. after   11 cycles
 SCF Done:  E(RB3LYP) =  -957.576528083     A.U. after   11 cycles
 SCF Done:  E(RB3LYP) =  -957.576528144     A.U. after    8 cycles
 SCF Done:  E(RB3LYP) =  -957.576528142     A.U. after    7 cycles
 Optimization completed.
    -- Stationary point found.
 Normal termination of Gaussian 16 at Thu Dec 10 09:50:29 2020.

 --------------------------------------------------------------------
 #N Geom=AllCheck Guess=TCheck SCRF=Check GenChk RB3LYP/6-31G(d) Freq
 --------------------------------------------------------------------

 Structure from the checkpoint file:  "JID_4420.chk"
 ------------------------------
 CID_65951381_JID_4420_neutraal
 ------------------------------
 Charge =  0 Multiplicity = 1

 SCF Done:  E(RB3LYP) =  -957.576528142     A.U. after    1 cycles

  Exact polarizability: 159.199  13.990 123.187   4.890  -8.744 126.361
 Approx polarizability: 220.689  28.048 177.463   9.310 -20.779 223.764

                      1                      2                      3
                      A                      A                      A
 Frequencies --     21.8175                32.1677                51.8331
 Red. masses --      3.3754                 3.1760                 2.9488
 Frc consts  --      0.0009                 0.0019                 0.0047
 IR Inten    --      0.5849                 0.1007                 0.2343

                      4                      5                      6
                      A                      A                      A
 Frequencies --     73.1245                95.4669               145.4597
 Red. masses --      4.3459                 3.8348                 4.0632
 Frc consts  --      0.0137                 0.0206                 0.0507
 IR Inten    --      0.8224                 0.8764                 0.6378

                      7                      8                      9
                      A                      A                      A
 Frequencies --    189.2918               225.6081               236.0955
 Red. masses --      2.0763                 3.4087                 1.7425
 Frc consts  --      0.0438                 0.1022                 0.0572
 IR Inten    --      0.3408                 1.3713                 2.0245

                     10                     11                     12
                      A                      A                      A
 Frequencies --    267.1924               294.2765               302.6004
 Red. masses --      1.1360                 1.3767                 1.8580
 Frc consts  --      0.0478                 0.0702                 0.1002
 IR Inten    --      0.3692                53.4744                22.4683

                     13                     14                     15
                      A                      A                      A
 Frequencies --    332.0531               343.7090               357.8714
 Red. masses --      2.9870                 2.0407                 2.1253
 Frc consts  --      0.1940                 0.1420                 0.1604
 IR Inten    --     20.7326                 0.2362                 0.5801

                     16                     17                     18
                      A                      A                      A
 Frequencies --    370.4702               440.0804               457.5324
 Red. masses --      2.8422                 2.6739                 3.2278
 Frc consts  --      0.2298                 0.3051                 0.3981
 IR Inten    --     12.3238                11.5829                 5.7829

                     19                     20                     21
                      A                      A                      A
 Frequencies --    471.9178               495.5269               588.0111
 Red. masses --      2.3996                 4.6376                 4.0488
 Frc consts  --      0.3149                 0.6709                 0.8248
 IR Inten    --      8.0341                12.7482                 6.7981

                     22                     23                     24
                      A                      A                      A
 Frequencies --    597.3590               624.6425               663.8134
 Red. masses --      3.4720                 3.9561                 5.5392
 Frc consts  --      0.7300                 0.9095                 1.4381
 IR Inten    --      6.2736                 7.7508                 2.4723

                     25                     26                     27
                      A                      A                      A
 Frequencies --    696.1850               745.5651               769.6722
 Red. masses --      4.5885                 4.9487                 3.0309
 Frc consts  --      1.3103                 1.6207                 1.0579
 IR Inten    --     18.1965                 2.8869                 2.6902

                     28                     29                     30
                      A                      A                      A
 Frequencies --    801.3315               822.8535               888.8269
 Red. masses --      1.2464                 1.2968                 1.4347
 Frc consts  --      0.4716                 0.5173                 0.6678
 IR Inten    --      2.5315                24.0675                 0.0657

                     31                     32                     33
                      A                      A                      A
 Frequencies --    908.3886               911.0720               936.1446
 Red. masses --      1.8515                 2.4180                 2.2077
 Frc consts  --      0.9002                 1.1825                 1.1399
 IR Inten    --      3.1830                 0.2342                 4.5847

                     34                     35                     36
                      A                      A                      A
 Frequencies --    950.5278               959.9473               974.4441
 Red. masses --      2.6225                 2.1077                 1.6801
 Frc consts  --      1.3960                 1.1443                 0.9400
 IR Inten    --     19.4717                 7.4195                 9.1232

                     37                     38                     39
                      A                      A                      A
 Frequencies --    988.9774              1036.3819              1074.3842
 Red. masses --      1.7616                 2.0865                 2.1928
 Frc consts  --      1.0152                 1.3204                 1.4913
 IR Inten    --      8.9645                21.8000                 9.5018

                     40                     41                     42
                      A                      A                      A
 Frequencies --   1095.4287              1102.4688              1108.5457
 Red. masses --      1.7287                 1.4971                 1.9749
 Frc consts  --      1.2222                 1.0721                 1.4299
 IR Inten    --      4.2331                 2.3424                 4.3068

                     43                     44                     45
                      A                      A                      A
 Frequencies --   1136.6230              1161.1893              1172.3446
 Red. masses --      1.6594                 1.1197                 3.5305
 Frc consts  --      1.2631                 0.8895                 2.8589
 IR Inten    --     59.4643                14.7448                17.2305

                     46                     47                     48
                      A                      A                      A
 Frequencies --   1192.5646              1198.1767              1248.9423
 Red. masses --      3.0187                 1.9214                 2.3915
 Frc consts  --      2.5295                 1.6252                 2.1979
 IR Inten    --      1.5938                16.4133                54.0211

                     49                     50                     51
                      A                      A                      A
 Frequencies --   1254.1666              1287.9520              1297.4832
 Red. masses --      1.7207                 1.3694                 2.2868
 Frc consts  --      1.5946                 1.3384                 2.2682
 IR Inten    --     33.9227                 3.0723                73.2662

                     52                     53                     54
                      A                      A                      A
 Frequencies --   1308.1684              1340.8495              1348.3320
 Red. masses --      1.3113                 1.5122                 1.4796
 Frc consts  --      1.3221                 1.6018                 1.5848
 IR Inten    --      2.9060                 1.1538                 0.3897

                     55                     56                     57
                      A                      A                      A
 Frequencies --   1368.5221              1378.0377              1397.7238
 Red. masses --      1.4125                 1.2532                 1.9557
 Frc consts  --      1.5587                 1.4021                 2.2511
 IR Inten    --     24.2346                12.9855                 0.3451

                     58                     59                     60
                      A                      A                      A
 Frequencies --   1409.7581              1437.2407              1438.9615
 Red. masses --      1.8498                 1.2260                 1.2918
 Frc consts  --      2.1660                 1.4921                 1.5759
 IR Inten    --     17.8659                 1.4275                 6.3999

                     61                     62                     63
                      A                      A                      A
 Frequencies --   1494.1790              1510.9768              1515.6752
 Red. masses --      1.0915                 1.0686                 1.0729
 Frc consts  --      1.4358                 1.4374                 1.4522
 IR Inten    --      7.0754                 2.4305                 1.1880

                     64                     65                     66
                      A                      A                      A
 Frequencies --   1520.7717              1525.4752              1527.0235
 Red. masses --      1.0625                 1.0480                 1.0824
 Frc consts  --      1.4477                 1.4369                 1.4871
 IR Inten    --      0.6222                 7.1958                 1.3636

                     67                     68                     69
                      A                      A                      A
 Frequencies --   1533.0457              1538.1642              1543.2136
 Red. masses --      1.2053                 1.1151                 3.7098
 Frc consts  --      1.6690                 1.5544                 5.2054
 IR Inten    --      2.8885                 1.3946                 6.3646

                     70                     71                     72
                      A                      A                      A
 Frequencies --   1615.5413              3032.6464              3035.5442
 Red. masses --      5.5729                 1.0501                 1.0449
 Frc consts  --      8.5698                 5.6902                 5.6729
 IR Inten    --      0.2344                27.7379                56.2614

                     73                     74                     75
                      A                      A                      A
 Frequencies --   3040.3217              3043.4311              3051.9158
 Red. masses --      1.0628                 1.0580                 1.0575
 Frc consts  --      5.7884                 5.7737                 5.8031
 IR Inten    --     34.7673                45.1976                36.3079

                     76                     77                     78
                      A                      A                      A
 Frequencies --   3052.4238              3079.9261              3080.7203
 Red. masses --      1.0375                 1.1101                 1.1004
 Frc consts  --      5.6954                 6.2044                 6.1530
 IR Inten    --     12.0509                51.1731                 7.3060

                     79                     80                     81
                      A                      A                      A
 Frequencies --   3093.3890              3097.3749              3104.2240
 Red. masses --      1.1054                 1.1069                 1.0966
 Frc consts  --      6.2320                 6.2570                 6.2261
 IR Inten    --     20.2340                27.1351                23.2308

                     82                     83                     84
                      A                      A                      A
 Frequencies --   3123.0004              3127.8458              3133.1361
 Red. masses --      1.1027                 1.1036                 1.1027
 Frc consts  --      6.3366                 6.3616                 6.3778
 IR Inten    --     48.0036                31.3534                19.8219

                     85                     86                     87
                      A                      A                      A
 Frequencies --   3202.9275              3217.6682              3726.4106
 Red. masses --      1.0889                 1.0968                 1.0658
 Frc consts  --      6.5815                 6.6904                 8.7197
 IR Inten    --     11.8294                 9.4361                 7.9113

 - Thermochemistry -
 -------------------
 Temperature   298.150 Kelvin.  Pressure   1.00000 Atm.
 Atom     1 has atomic number  6 and mass  12.00000

 Molecular mass:   211.10309 amu.
 Principal axes and moments of inertia in atomic units:
                           1         2         3
     Eigenvalues --  1777.606034561.939755315.27615
           X            0.99975   0.02208   0.00398
           Y           -0.02201   0.99961  -0.01700
           Z           -0.00435   0.01691   0.99985
 This molecule is an asymmetric top.
 Rotational symmetry number  1.
 Warning -- assumption of classical behavior for rotation
           may cause significant error
 Rotational temperatures (Kelvin)      0.04873     0.01899     0.01630
 Rotational constants (GHZ):           1.01527     0.39561     0.33954
 Zero-point vibrational energy     696185.2 (Joules/Mol)
                                  166.39225 (Kcal/Mol)
 Warning -- explicit consideration of  22 degrees of freedom as
           vibrations may cause significant error
 Vibrational temperatures:     31.39    46.28    74.58   105.21   137.36
          (Kelvin)            209.28   272.35   324.60   339.69   384.43
                              423.40   435.37   477.75   494.52   514.90
                              533.02   633.18   658.29   678.98   712.95
                              846.02   859.47   898.72   955.08  1001.65
                             1072.70  1107.39  1152.94  1183.90  1278.82
                             1306.97  1310.83  1346.90  1367.60  1381.15
                             1402.01  1422.92  1491.12  1545.80  1576.08
                             1586.21  1594.95  1635.35  1670.69  1686.74
                             1715.83  1723.91  1796.95  1804.47  1853.08
                             1866.79  1882.16  1929.18  1939.95  1969.00
                             1982.69  2011.01  2028.33  2067.87  2070.34
                             2149.79  2173.96  2180.72  2188.05  2194.82
                             2197.05  2205.71  2213.08  2220.34  2324.40
                             4363.30  4367.47  4374.34  4378.82  4391.03
                             4391.76  4431.33  4432.47  4450.70  4456.43
                             4466.29  4493.30  4500.27  4507.88  4608.30
                             4629.51  5361.47

 Zero-point correction=                           0.265163 (Hartree/Particle)
 Thermal correction to Energy=                    0.279954
 Thermal correction to Enthalpy=                  0.280898
 Thermal correction to Gibbs Free Energy=         0.221868
 Sum of electronic and zero-point Energies=           -957.311365
 Sum of electronic and thermal Energies=              -957.296574
 Sum of electronic and thermal Enthalpies=            -957.295630
 Sum of electronic and thermal Free Energies=         -957.354660

                     E (Thermal)             CV                S
                      KCal/Mol        Cal/Mol-Kelvin    Cal/Mol-Kelvin
 Total                  175.674             55.917            124.238
 Electronic               0.000              0.000              0.000
 Translational            0.889              2.981             41.945
 Rotational               0.889              2.981             32.133
 Vibrational            173.896             49.955             50.160
 Vibration     1          0.593              1.985              6.461
 Vibration     2          0.594              1.983              5.691
 Vibration     3          0.596              1.977              4.746
 Vibration     4          0.599              1.967              4.067
 Vibration     5          0.603              1.952              3.545
 Vibration     6          0.617              1.908              2.731
 Vibration     7          0.633              1.855              2.235
 Vibration     8          0.650              1.802              1.914
 Vibration     9          0.655              1.786              1.832
 Vibration    10          0.672              1.733              1.614
 Vibration    11          0.689              1.684              1.449
 Vibration    12          0.694              1.669              1.402
 Vibration    13          0.714              1.611              1.250
 Vibration    14          0.722              1.588              1.195
 Vibration    15          0.733              1.559              1.131
 Vibration    16          0.742              1.533              1.078
 Vibration    17          0.800              1.383              0.826
 Vibration    18          0.816              1.344              0.773
 Vibration    19          0.829              1.312              0.732
 Vibration    20          0.851              1.260              0.669
 Vibration    21          0.945              1.057              0.471
 Vibration    22          0.955              1.037              0.454

 Optimization completed.
    -- Stationary point found.
 Normal termination of Gaussian 16 at Thu Dec 10 09:59:24 2020.

 ----------------------------------------------------------------------
 # B3LYP/6-311++G(d,p) empiricaldispersion=gd3bj scf=xqc pop=npa geom=c
 heck
 ----------------------------------------------------------------------

 --------------------------------------
 CID_65951381_JID_4420_Energie_neutraal
 --------------------------------------
 Structure from the checkpoint file:  "JID_4420.chk"
 Charge =  0 Multiplicity = 1

 SCF Done:  E(RB3LYP) =  -957.764741384     A.U. after   15 cycles
 Normal termination of Gaussian 16 at Thu Dec 10 10:03:21 2020.

 ----------------------------------------------------------------------
 # B3LYP/6-311++G(d,p) empiricaldispersion=gd3bj scf=xqc pop=npa geom=c
 heck
 ----------------------------------------------------------------------

 ------------------------------------
 CID_65951381_JID_4420_Energie_kation
 ------------------------------------
 Structure from the checkpoint file:  "JID_4420.chk"
 Charge =  1 Multiplicity = 2

 SCF Done:  E(UB3LYP) =  -957.485830905     A.U. after   24 cycles
 Normal termination of Gaussian 16 at Thu Dec 10 10:14:28 2020.
 Gaussian 16:  ES64L-G16RevA.03 25-Dec-2016

 ----------------------------------------------------------------------
 # B3LYP/6-311++G(d,p) empiricaldispersion=gd3bj scf=xqc pop=npa geom=c
 heck
 ----------------------------------------------------------------------

 -----------------------------------
 CID_65951381_JID_4420_Energie_anion
 -----------------------------------
 Structure from the checkpoint file:  "JID_4420.chk"
 Charge = -1 Multiplicity = 2

                         Standard orientation:
 ---------------------------------------------------------------------
 Center     Atomic      Atomic             Coordinates (Angstroms)
 Number     Number       Type             X           Y           Z
 ---------------------------------------------------------------------
      1          6           0        3.316906    2.160203   -0.254617
      2          6           0        3.683938    0.690155    0.006311
      3          6           0        2.487953   -0.190294    0.222010
      4          6           0        2.079998   -0.810092    1.373002
      5          6           0        0.864579   -1.546710    1.228279
      6          6           0        0.332277   -1.492337   -0.034007
      7         16           0        1.355694   -0.520113   -1.071476
      8          6           0       -0.993879   -2.041065   -0.502798
      9          7           0       -2.134132   -1.133659   -0.400599
     10          6           0       -2.388090   -0.439143    0.882617
     11          6           0       -2.454314    0.920664    0.152017
     12          6           0       -2.123865    0.140748   -1.154711
     13          6           0       -1.405802    1.939897    0.575784
     14          8           0       -3.766482    1.457304    0.225934
     15          1           0        2.711024    2.258316   -1.161874
     16          1           0        4.217678    2.771046   -0.380159
     17          1           0        2.736018    2.566634    0.580076
     18          1           0        4.287813    0.312406   -0.829396
     19          1           0        4.315043    0.620500    0.900326
     20          1           0        2.640350   -0.744499    2.300263
     21          1           0        0.399284   -2.106992    2.033085
     22          1           0       -0.928990   -2.372871   -1.545297
     23          1           0       -1.221404   -2.929512    0.098880
     24          1           0       -3.329782   -0.738502    1.355044
     25          1           0       -1.571462   -0.503970    1.612547
     26          1           0       -1.160745    0.412526   -1.605220
     27          1           0       -2.907650    0.186650   -1.920623
     28          1           0       -1.395231    2.796025   -0.112959
     29          1           0       -1.626763    2.309708    1.583049
     30          1           0       -0.403478    1.499753    0.574402
     31          1           0       -3.780234    2.269606   -0.305132
 ---------------------------------------------------------------------

 SCF Done:  E(UB3LYP) =  -957.749741997     A.U. after   33 cycles
 SCF Done:  E(UB3LYP) =  -957.749741997     a.u. after    1 cycles

 The electronic state is 2-A.
 Alpha  occ. eigenvalues --  -88.75273 -19.04141 -14.20492 -10.14088 -10.10279
 Alpha  occ. eigenvalues --  -10.09610 -10.09430 -10.08074 -10.07765 -10.07438
 Alpha  occ. eigenvalues --  -10.06602 -10.05824 -10.05434 -10.05210  -7.83935
 Alpha  occ. eigenvalues --   -5.80214  -5.79860  -5.79539  -0.94657  -0.84161
 Alpha  occ. eigenvalues --   -0.76455  -0.68979  -0.66772  -0.63215  -0.61469
 Alpha  occ. eigenvalues --   -0.59170  -0.58585  -0.53313  -0.50669  -0.46349
 Alpha  occ. eigenvalues --   -0.43198  -0.42465  -0.41508  -0.39457  -0.38013
 Alpha  occ. eigenvalues --   -0.37355  -0.34821  -0.33863  -0.33372  -0.31799
 Alpha  occ. eigenvalues --   -0.31153  -0.30374  -0.28710  -0.28130  -0.27383
 Alpha  occ. eigenvalues --   -0.27235  -0.26714  -0.25645  -0.24510  -0.23587
 Alpha  occ. eigenvalues --   -0.23329  -0.22413  -0.21898  -0.18907  -0.13979
 Alpha  occ. eigenvalues --   -0.12346  -0.11157   0.04921
 Alpha virt. eigenvalues --    0.05595   0.07208   0.07891   0.08635   0.09092
 Alpha virt. eigenvalues --    0.09564   0.09884   0.10119   0.10368   0.11139
 Alpha virt. eigenvalues --    0.11819   0.12082   0.12683   0.12914   0.13477

  Beta  occ. eigenvalues --  -88.75256 -19.04128 -14.20468 -10.14086 -10.10280
  Beta  occ. eigenvalues --  -10.09611 -10.09431 -10.07950 -10.07605 -10.07436
  Beta  occ. eigenvalues --  -10.06584 -10.05817 -10.05415 -10.05164  -7.83918
  Beta  occ. eigenvalues --   -5.80208  -5.79853  -5.79485  -0.94631  -0.84116
  Beta  occ. eigenvalues --   -0.76297  -0.68885  -0.66682  -0.63150  -0.61373
  Beta  occ. eigenvalues --   -0.59146  -0.58481  -0.53229  -0.50601  -0.46313
  Beta  occ. eigenvalues --   -0.43080  -0.42320  -0.41454  -0.39399  -0.37942
  Beta  occ. eigenvalues --   -0.37303  -0.34792  -0.33800  -0.33341  -0.31718
  Beta  occ. eigenvalues --   -0.31121  -0.30308  -0.28671  -0.28011  -0.27330
  Beta  occ. eigenvalues --   -0.27142  -0.26675  -0.25569  -0.24330  -0.23497
  Beta  occ. eigenvalues --   -0.23228  -0.22391  -0.21804  -0.18891  -0.13689
  Beta  occ. eigenvalues --   -0.12105  -0.10655
  Beta virt. eigenvalues --    0.05825   0.07395   0.07999   0.08335   0.09203
  Beta virt. eigenvalues --    0.09419   0.09878   0.10017   0.10547   0.10651
  Beta virt. eigenvalues --    0.11447   0.11777   0.12408   0.12849   0.13054

 Mulliken charges and spin densities:
               1          2
     1  C    0.903163  -1.371888
     2  C    0.028401  -0.526988
     3  C   -0.194897   0.744430
     4  C    0.151137  -0.637457
     5  C    0.174472  -0.536386
     6  C    0.054394   0.723973
     7  S   -0.283153   0.331851
     8  C    0.487074  -1.499487
     9  N    0.010207   0.079183
    10  C   -0.199041   0.064501
    11  C    0.030916  -0.075167
    12  C   -0.193517   0.059294
    13  C   -0.678037  -0.039719
    14  O   -0.224952  -0.012108
    15  H    0.038152   0.081701
    16  H   -0.734642   0.889037
    17  H   -0.017711   0.139483
    18  H   -0.356447   0.515808
    19  H   -0.450505   0.619123
    20  H   -0.432478   0.588351
    21  H   -0.245453   0.375504
    22  H   -0.015887   0.197237
    23  H   -0.040785   0.223415
    24  H    0.177359   0.022516
    25  H    0.145236  -0.030035
    26  H    0.074910  -0.008599
    27  H    0.182855   0.000872
    28  H    0.115968   0.009962
    29  H    0.163862  -0.007928
    30  H    0.224929  -0.055191
    31  H    0.104468   0.134714
 Sum of Mulliken charges =  -1.00000   1.00000

 Dipole moment (field-independent basis, Debye):
    X=             -9.0715    Y=              0.4357    Z=             -0.9626  Tot=              9.1328
 Quadrupole moment (field-independent basis, Debye-Ang):
   XX=           -190.5933   YY=           -132.2368   ZZ=           -120.2125
   XY=            -16.7495   XZ=             -0.3196   YZ=              1.2678

 Summary of Natural Population Analysis:

                                       Natural Population
                Natural  -----------------------------------------------
    Atom  No    Charge         Core      Valence    Rydberg      Total
 -----------------------------------------------------------------------
      C    1   -0.27897      0.99966     2.27348    0.00583     3.27897
      C    2   -0.20744      0.99958     2.19660    0.01126     3.20744
      C    3   -0.07181      0.99949     2.05913    0.01319     3.07181
      C    4   -0.13159      0.99945     2.12112    0.01102     3.13159
      C    5   -0.13196      0.99946     2.12141    0.01109     3.13196
      C    6   -0.09384      0.99949     2.08219    0.01216     3.09384
      S    7    0.19424      4.99936     2.78734    0.01906     7.80576
      C    8   -0.09975      0.99955     2.08583    0.01437     3.09975
      N    9   -0.27689      0.99975     2.76388    0.01326     3.77689
      C   10   -0.08364      0.99959     2.07348    0.01057     3.08364
      C   11    0.11593      0.99951     1.87073    0.01384     2.88407
      C   12   -0.09041      0.99960     2.08124    0.00957     3.09041
      C   13   -0.29810      0.99962     2.29283    0.00565     3.29810
      O   14   -0.37253      0.99988     3.36592    0.00672     4.37253
      H   15    0.09473      0.00000     0.40423    0.00104     0.40527
      H   16    0.10140      0.00000     0.39570    0.00290     0.39860
      H   17    0.09529      0.00000     0.40336    0.00135     0.40471
      H   18    0.10510      0.00000     0.39218    0.00272     0.39490
      H   19    0.10630      0.00000     0.39099    0.00271     0.39370
      H   20    0.10568      0.00000     0.39315    0.00117     0.39432
      H   21    0.10323      0.00000     0.39564    0.00112     0.39677
      H   22    0.10059      0.00000     0.39833    0.00107     0.39941
      H   23    0.10290      0.00000     0.39569    0.00141     0.39710
      H   24    0.09501      0.00000     0.40386    0.00113     0.40499
      H   25    0.09617      0.00000     0.40265    0.00118     0.40383
      H   26    0.09458      0.00000     0.40407    0.00135     0.40542
      H   27    0.09098      0.00000     0.40802    0.00100     0.40902
      H   28    0.09451      0.00000     0.40465    0.00084     0.40549
      H   29    0.10070      0.00000     0.39850    0.00080     0.39930
      H   30    0.11430      0.00000     0.38470    0.00100     0.38570
      H   31    0.22525      0.00000     0.27193    0.00282     0.27475
 =======================================================================
   * Total *    0.00000     17.99399    38.82281    0.18320    57.00000

 Normal termination of Gaussian 16 at Thu Dec 10 10:26:56 2020.
