 Gaussian 16, Revision A.03,

 -----------------------------------------------------------
 # opt freq B3LYP/6-31G(d) empiricaldispersion=gd3bj scf=xqc
 -----------------------------------------------------------

 -------------------------------
 CID_114286358_JID_9554_neutraal
 -------------------------------
 Symbolic Z-matrix:
 Charge =  0 Multiplicity = 1

 SCF Done:  E(RB3LYP) =  -858.496427840     A.U. after   15 cycles
 SCF Done:  E(RB3LYP) =  -858.500704085     A.U. after   13 cycles
 SCF Done:  E(RB3LYP) =  -858.500814902     A.U. after   12 cycles
 SCF Done:  E(RB3LYP) =  -858.502351639     A.U. after   13 cycles
 SCF Done:  E(RB3LYP) =  -858.502846125     A.U. after   12 cycles
 SCF Done:  E(RB3LYP) =  -858.503028079     A.U. after   12 cycles
 SCF Done:  E(RB3LYP) =  -858.503098165     A.U. after   11 cycles
 SCF Done:  E(RB3LYP) =  -858.503133529     A.U. after   10 cycles
 SCF Done:  E(RB3LYP) =  -858.503156932     A.U. after   11 cycles
 SCF Done:  E(RB3LYP) =  -858.503172113     A.U. after   10 cycles
 SCF Done:  E(RB3LYP) =  -858.504317905     A.U. after   10 cycles
 SCF Done:  E(RB3LYP) =  -858.504319611     A.U. after    9 cycles
 SCF Done:  E(RB3LYP) =  -858.504319787     A.U. after    8 cycles
 SCF Done:  E(RB3LYP) =  -858.504319800     A.U. after    7 cycles
 SCF Done:  E(RB3LYP) =  -858.504319807     A.U. after    6 cycles
 Optimization completed.
    -- Stationary point found.
 Normal termination of Gaussian 16 at Sat Dec 12 10:30:41 2020.

 --------------------------------------------------------------------
 #N Geom=AllCheck Guess=TCheck SCRF=Check GenChk RB3LYP/6-31G(d) Freq
 --------------------------------------------------------------------

 Structure from the checkpoint file:  "JID_9554.chk"
 -------------------------------
 CID_114286358_JID_9554_neutraal
 -------------------------------
 Charge =  0 Multiplicity = 1

 SCF Done:  E(RB3LYP) =  -858.504319807     A.U. after    1 cycles

  Exact polarizability: 229.229  25.114 156.184  18.565 -11.031 138.178
 Approx polarizability: 318.666  47.374 244.399  33.421 -30.607 235.189

                      1                      2                      3
                      A                      A                      A
 Frequencies --     22.8782                25.1277                34.7353
 Red. masses --      5.5327                 3.9252                 4.2233
 Frc consts  --      0.0017                 0.0015                 0.0030
 IR Inten    --      0.1057                 2.4553                 1.8872

                      4                      5                      6
                      A                      A                      A
 Frequencies --     50.0519                61.5941                91.0785
 Red. masses --      5.9810                 1.1030                 4.7960
 Frc consts  --      0.0088                 0.0025                 0.0234
 IR Inten    --      0.9295                 0.4387                 0.3040

                      7                      8                      9
                      A                      A                      A
 Frequencies --    109.0417               142.2424               162.0970
 Red. masses --      3.8824                 3.6368                 3.6229
 Frc consts  --      0.0272                 0.0434                 0.0561
 IR Inten    --      0.7904                 0.2995                 1.2342

                     10                     11                     12
                      A                      A                      A
 Frequencies --    199.9223               205.2257               222.5038
 Red. masses --      2.0984                 3.0909                 1.5196
 Frc consts  --      0.0494                 0.0767                 0.0443
 IR Inten    --      0.6277                 3.5833                 0.8758

                     13                     14                     15
                      A                      A                      A
 Frequencies --    235.6930               261.1134               268.4786
 Red. masses --      2.3729                 4.0357                 1.3219
 Frc consts  --      0.0777                 0.1621                 0.0561
 IR Inten    --      1.0268                 0.0547                 0.0661

                     16                     17                     18
                      A                      A                      A
 Frequencies --    281.1523               314.6642               363.0211
 Red. masses --      4.6688                 2.8770                 3.8063
 Frc consts  --      0.2174                 0.1678                 0.2955
 IR Inten    --      1.4937                 1.6715                 6.8151

                     19                     20                     21
                      A                      A                      A
 Frequencies --    370.9338               398.2744               424.3059
 Red. masses --      4.5774                 2.7987                 1.8484
 Frc consts  --      0.3711                 0.2616                 0.1961
 IR Inten    --      1.7154                46.1570               105.5900

                     22                     23                     24
                      A                      A                      A
 Frequencies --    458.9087               461.4119               508.5516
 Red. masses --      3.0215                 3.1552                 3.9570
 Frc consts  --      0.3749                 0.3958                 0.6030
 IR Inten    --      4.0120                13.7783                 1.7108

                     25                     26                     27
                      A                      A                      A
 Frequencies --    567.6093               574.8920               594.9380
 Red. masses --      4.6998                 2.7240                 3.5712
 Frc consts  --      0.8921                 0.5304                 0.7447
 IR Inten    --     18.0837                12.2324                10.2901

                     28                     29                     30
                      A                      A                      A
 Frequencies --    619.9599               627.5161               643.0259
 Red. masses --      3.1979                 1.6789                 4.2240
 Frc consts  --      0.7242                 0.3895                 1.0290
 IR Inten    --     18.2613                31.0158                39.0171

                     31                     32                     33
                      A                      A                      A
 Frequencies --    653.9043               692.5927               714.9072
 Red. masses --      5.3078                 2.9032                 2.7924
 Frc consts  --      1.3372                 0.8205                 0.8409
 IR Inten    --      3.5569                16.6794                32.5357

                     34                     35                     36
                      A                      A                      A
 Frequencies --    747.5707               757.4028               777.7853
 Red. masses --      4.1163                 3.4074                 4.2907
 Frc consts  --      1.3554                 1.1517                 1.5293
 IR Inten    --     19.8627                 9.1145                36.4366

                     37                     38                     39
                      A                      A                      A
 Frequencies --    779.6637               798.3495               831.7130
 Red. masses --      4.5500                 1.3941                 1.5222
 Frc consts  --      1.6296                 0.5235                 0.6204
 IR Inten    --     23.0459                 8.7210                 5.7449

                     40                     41                     42
                      A                      A                      A
 Frequencies --    855.3808               862.1119               927.7230
 Red. masses --      1.5095                 1.3483                 2.2644
 Frc consts  --      0.6507                 0.5904                 1.1482
 IR Inten    --     23.8974                10.1444                 0.5586

                     43                     44                     45
                      A                      A                      A
 Frequencies --    986.0787               987.8768              1011.1006
 Red. masses --      2.6595                 1.3443                 3.2239
 Frc consts  --      1.5236                 0.7729                 1.9419
 IR Inten    --      9.4380                 1.0329                36.1535

                     46                     47                     48
                      A                      A                      A
 Frequencies --   1024.9202              1050.1328              1075.1440
 Red. masses --      2.5172                 1.8192                 1.5181
 Frc consts  --      1.5579                 1.1820                 1.0339
 IR Inten    --      0.5814                 8.4228                 3.1818

                     49                     50                     51
                      A                      A                      A
 Frequencies --   1078.6420              1086.0581              1104.7912
 Red. masses --      2.0695                 1.5484                 4.7845
 Frc consts  --      1.4186                 1.0761                 3.4407
 IR Inten    --     17.9522                10.7725                35.7933

                     52                     53                     54
                      A                      A                      A
 Frequencies --   1120.1656              1150.7621              1158.5271
 Red. masses --      2.3246                 2.0078                 1.3194
 Frc consts  --      1.7186                 1.5666                 1.0434
 IR Inten    --      2.9024               259.6762                 7.3477

                     55                     56                     57
                      A                      A                      A
 Frequencies --   1173.6054              1214.5791              1221.8755
 Red. masses --      2.2157                 1.8827                 1.7330
 Frc consts  --      1.7980                 1.6364                 1.5244
 IR Inten    --     67.6484                43.8871                 8.5039

                     58                     59                     60
                      A                      A                      A
 Frequencies --   1231.3431              1237.6174              1302.3677
 Red. masses --      1.5091                 1.6728                 1.5247
 Frc consts  --      1.3481                 1.5096                 1.5237
 IR Inten    --     25.7168               186.3720               113.9508

                     61                     62                     63
                      A                      A                      A
 Frequencies --   1330.8110              1348.3361              1352.0628
 Red. masses --      1.8240                 1.8079                 3.1240
 Frc consts  --      1.9033                 1.9365                 3.3648
 IR Inten    --      8.3276                20.3836                10.1733

                     64                     65                     66
                      A                      A                      A
 Frequencies --   1370.8098              1379.5612              1390.1406
 Red. masses --      2.6117                 2.5824                 2.3010
 Frc consts  --      2.8915                 2.8957                 2.6199
 IR Inten    --     13.8730               175.8840                79.2048

                     67                     68                     69
                      A                      A                      A
 Frequencies --   1414.4759              1432.3800              1438.1591
 Red. masses --      3.2696                 2.4001                 1.5574
 Frc consts  --      3.8543                 2.9014                 1.8978
 IR Inten    --      4.1040                 3.5772                 4.7766

                     70                     71                     72
                      A                      A                      A
 Frequencies --   1445.2296              1458.8687              1467.6594
 Red. masses --      1.3661                 2.0800                 1.8002
 Frc consts  --      1.6812                 2.6083                 2.2846
 IR Inten    --     32.1382               125.0415                18.4354

                     73                     74                     75
                      A                      A                      A
 Frequencies --   1491.9457              1509.7347              1511.0013
 Red. masses --      1.8708                 1.0640                 1.0448
 Frc consts  --      2.4534                 1.4289                 1.4055
 IR Inten    --     10.7912                 9.9573                 5.3063

                     76                     77                     78
                      A                      A                      A
 Frequencies --   1519.5216              1522.3870              1526.1984
 Red. masses --      1.0914                 1.0871                 1.1210
 Frc consts  --      1.4847                 1.4845                 1.5384
 IR Inten    --      6.0768                11.4482                 4.1119

                     79                     80                     81
                      A                      A                      A
 Frequencies --   1545.3142              1546.0186              1566.8729
 Red. masses --      1.4136                 1.6692                 2.5728
 Frc consts  --      1.9889                 2.3506                 3.7215
 IR Inten    --      7.4075                 3.8686               102.0611

                     82                     83                     84
                      A                      A                      A
 Frequencies --   1617.4125              1620.7262              1668.8361
 Red. masses --      4.9802                 4.2024                 5.7244
 Frc consts  --      7.6761                 6.5037                 9.3931
 IR Inten    --     15.4889                 7.4533               466.8398

                     85                     86                     87
                      A                      A                      A
 Frequencies --   1797.5817              3029.9984              3053.3070
 Red. masses --      8.9790                 1.0830                 1.0377
 Frc consts  --     17.0944                 5.8583                 5.7000
 IR Inten    --    344.5113                18.9783                23.5905

                     88                     89                     90
                      A                      A                      A
 Frequencies --   3065.9937              3067.8365              3123.4288
 Red. masses --      1.0359                 1.0366                 1.1008
 Frc consts  --      5.7372                 5.7478                 6.3271
 IR Inten    --     23.4188                43.0049                30.4157

                     91                     92                     93
                      A                      A                      A
 Frequencies --   3133.6932              3136.0625              3140.0282
 Red. masses --      1.1003                 1.1033                 1.1003
 Frc consts  --      6.3662                 6.3929                 6.3918
 IR Inten    --     10.6120                16.5370                14.2511

                     94                     95                     96
                      A                      A                      A
 Frequencies --   3145.3393              3164.3154              3171.5171
 Red. masses --      1.1026                 1.0892                 1.1057
 Frc consts  --      6.4268                 6.4259                 6.5526
 IR Inten    --     23.3328                24.1133                 8.0337

                     97                     98                     99
                      A                      A                      A
 Frequencies --   3221.6350              3236.1309              3247.5570
 Red. masses --      1.0874                 1.0938                 1.0955
 Frc consts  --      6.6494                 6.7492                 6.8073
 IR Inten    --      2.4600                 9.9843                 8.9854

                    100                    101                    102
                      A                      A                      A
 Frequencies --   3284.8791              3591.0653              3690.1081
 Red. masses --      1.0976                 1.0758                 1.0639
 Frc consts  --      6.9780                 8.1738                 8.5353
 IR Inten    --      0.1939                21.5721                73.6420

 - Thermochemistry -
 -------------------
 Temperature   298.150 Kelvin.  Pressure   1.00000 Atm.
 Atom     1 has atomic number  6 and mass  12.00000

 Molecular mass:   259.13208 amu.
 Principal axes and moments of inertia in atomic units:
                           1         2         3
     Eigenvalues --  2839.570619413.23787**********
           X            0.99997  -0.00008   0.00822
           Y           -0.00005   0.99986   0.01662
           Z           -0.00823  -0.01662   0.99983
 This molecule is an asymmetric top.
 Rotational symmetry number  1.
 Warning -- assumption of classical behavior for rotation
           may cause significant error
 Rotational temperatures (Kelvin)      0.03050     0.00920     0.00815
 Rotational constants (GHZ):           0.63557     0.19172     0.16972
 Zero-point vibrational energy     781703.3 (Joules/Mol)
                                  186.83157 (Kcal/Mol)
 Warning -- explicit consideration of  28 degrees of freedom as
           vibrations may cause significant error
 Vibrational temperatures:     32.92    36.15    49.98    72.01    88.62
          (Kelvin)            131.04   156.89   204.66   233.22   287.64
                              295.27   320.13   339.11   375.68   386.28
                              404.52   452.73   522.31   533.69   573.03
                              610.48   660.27   663.87   731.69   816.66
                              827.14   855.98   891.98   902.86   925.17
                              940.82   996.49  1028.59  1075.59  1089.73
                             1119.06  1121.76  1148.65  1196.65  1230.70
                             1240.39  1334.79  1418.75  1421.33  1454.75
                             1474.63  1510.91  1546.89  1551.93  1562.60
                             1589.55  1611.67  1655.69  1666.86  1688.56
                             1747.51  1758.01  1771.63  1780.66  1873.82
                             1914.74  1939.95  1945.32  1972.29  1984.88
                             2000.10  2035.12  2060.88  2069.19  2079.36
                             2098.99  2111.63  2146.58  2172.17  2173.99
                             2186.25  2190.38  2195.86  2223.36  2224.38
                             2254.38  2327.10  2331.86  2401.08  2586.32
                             4359.49  4393.03  4411.28  4413.93  4493.92
                             4508.69  4512.09  4517.80  4525.44  4552.74
                             4563.11  4635.21  4656.07  4672.51  4726.21
                             5166.74  5309.24

 Zero-point correction=                           0.297735 (Hartree/Particle)
 Thermal correction to Energy=                    0.316105
 Thermal correction to Enthalpy=                  0.317049
 Thermal correction to Gibbs Free Energy=         0.248978
 Sum of electronic and zero-point Energies=           -858.206585
 Sum of electronic and thermal Energies=              -858.188215
 Sum of electronic and thermal Enthalpies=            -858.187271
 Sum of electronic and thermal Free Energies=         -858.255341

                     E (Thermal)             CV                S
                      KCal/Mol        Cal/Mol-Kelvin    Cal/Mol-Kelvin
 Total                  198.359             68.815            143.266
 Electronic               0.000              0.000              0.000
 Translational            0.889              2.981             42.556
 Rotational               0.889              2.981             34.007
 Vibrational            196.581             62.853             66.703
 Vibration     1          0.593              1.985              6.367
 Vibration     2          0.593              1.985              6.181
 Vibration     3          0.594              1.983              5.539
 Vibration     4          0.595              1.978              4.815
 Vibration     5          0.597              1.973              4.405
 Vibration     6          0.602              1.956              3.637
 Vibration     7          0.606              1.942              3.286
 Vibration     8          0.616              1.911              2.773
 Vibration     9          0.622              1.889              2.525
 Vibration    10          0.638              1.840              2.134
 Vibration    11          0.640              1.832              2.086
 Vibration    12          0.648              1.807              1.939
 Vibration    13          0.655              1.786              1.835
 Vibration    14          0.669              1.744              1.654
 Vibration    15          0.673              1.731              1.606
 Vibration    16          0.681              1.709              1.527
 Vibration    17          0.702              1.646              1.338
 Vibration    18          0.737              1.548              1.109
 Vibration    19          0.743              1.532              1.076
 Vibration    20          0.765              1.474              0.969
 Vibration    21          0.786              1.417              0.877
 Vibration    22          0.817              1.341              0.769
 Vibration    23          0.819              1.336              0.762
 Vibration    24          0.864              1.231              0.637
 Vibration    25          0.924              1.101              0.509
 Vibration    26          0.931              1.086              0.495
 Vibration    27          0.953              1.043              0.458
 Vibration    28          0.980              0.990              0.417

 Optimization completed.
    -- Stationary point found.
 Normal termination of Gaussian 16 at Sat Dec 12 10:45:53 2020.

 ----------------------------------------------------------------------
 # B3LYP/6-311++G(d,p) empiricaldispersion=gd3bj scf=xqc pop=npa geom=c
 heck
 ----------------------------------------------------------------------

 ---------------------------------------
 CID_114286358_JID_9554_Energie_neutraal
 ---------------------------------------
 Structure from the checkpoint file:  "JID_9554.chk"
 Charge =  0 Multiplicity = 1

 SCF Done:  E(RB3LYP) =  -858.746781199     A.U. after   16 cycles
 Normal termination of Gaussian 16 at Sat Dec 12 10:52:07 2020.

 ----------------------------------------------------------------------
 # B3LYP/6-311++G(d,p) empiricaldispersion=gd3bj scf=xqc pop=npa geom=c
 heck
 ----------------------------------------------------------------------

 -------------------------------------
 CID_114286358_JID_9554_Energie_kation
 -------------------------------------
 Structure from the checkpoint file:  "JID_9554.chk"
 Charge =  1 Multiplicity = 2

 SCF Done:  E(UB3LYP) =  -858.469744538     A.U. after   25 cycles
 Normal termination of Gaussian 16 at Sat Dec 12 11:05:06 2020.
 Gaussian 16:  ES64L-G16RevA.03 25-Dec-2016

 ----------------------------------------------------------------------
 # B3LYP/6-311++G(d,p) empiricaldispersion=gd3bj scf=xqc pop=npa geom=c
 heck
 ----------------------------------------------------------------------

 ------------------------------------
 CID_114286358_JID_9554_Energie_anion
 ------------------------------------
 Structure from the checkpoint file:  "JID_9554.chk"
 Charge = -1 Multiplicity = 2

                         Standard orientation:
 ---------------------------------------------------------------------
 Center     Atomic      Atomic             Coordinates (Angstroms)
 Number     Number       Type             X           Y           Z
 ---------------------------------------------------------------------
      1          6           0        3.548860   -1.020002    1.830476
      2          6           0        2.511259   -0.735498    0.769954
      3          6           0        2.712373    0.144307   -0.325341
      4          6           0        1.665796    0.328350   -1.245151
      5          6           0        0.447143   -0.313972   -1.125436
      6          6           0        0.235858   -1.195924   -0.048225
      7          6           0        1.281816   -1.377859    0.878632
      8          7           0       -0.938557   -1.897953    0.115545
      9          6           0       -2.171717   -1.613262   -0.608741
     10          6           0       -3.169286   -2.743443   -0.327063
     11          6           0       -2.755249   -0.258495   -0.280240
     12          6           0       -2.301682    0.661630    0.650270
     13          7           0       -3.154876    1.719457    0.613303
     14          7           0       -4.140148    1.555625   -0.297129
     15          6           0       -3.902398    0.359518   -0.836610
     16          6           0       -3.046685    2.973124    1.331570
     17          6           0        3.937330    0.917781   -0.610736
     18          8           0        4.075800    1.676513   -1.555384
     19          8           0        4.956770    0.734046    0.275800
     20          1           0        4.458518   -1.445331    1.397302
     21          1           0        3.853931   -0.107426    2.350328
     22          1           0        3.151480   -1.725018    2.566789
     23          1           0        1.839800    1.011797   -2.068917
     24          1           0       -0.339612   -0.120710   -1.844267
     25          1           0        1.120855   -2.059757    1.711323
     26          1           0       -1.067132   -2.322665    1.024720
     27          1           0       -1.929495   -1.646277   -1.679546
     28          1           0       -3.428607   -2.766955    0.738321
     29          1           0       -4.094784   -2.584193   -0.886927
     30          1           0       -2.745264   -3.711545   -0.612295
     31          1           0       -1.442578    0.647208    1.304019
     32          1           0       -4.567372   -0.021446   -1.601460
     33          1           0       -2.591888    3.746247    0.703180
     34          1           0       -4.046203    3.295951    1.628508
     35          1           0       -2.430901    2.822620    2.220966
     36          1           0        5.673244    1.305591   -0.057544
 ---------------------------------------------------------------------

 SCF Done:  E(UB3LYP) =  -858.741915103     A.U. after   33 cycles
 SCF Done:  E(UB3LYP) =  -858.741915103     a.u. after    1 cycles

 The electronic state is 2-A.
 Alpha  occ. eigenvalues --  -19.04909 -18.97711 -14.29400 -14.23174 -14.22025
 Alpha  occ. eigenvalues --  -10.16720 -10.12655 -10.11847 -10.10582 -10.09740
 Alpha  occ. eigenvalues --  -10.09308 -10.07915 -10.07706 -10.07392 -10.05944
 Alpha  occ. eigenvalues --  -10.05370 -10.05321 -10.05258 -10.05189  -0.98583
 Alpha  occ. eigenvalues --   -0.95459  -0.88860  -0.84124  -0.74941  -0.74126
 Alpha  occ. eigenvalues --   -0.70296  -0.67096  -0.65742  -0.62534  -0.60553
 Alpha  occ. eigenvalues --   -0.58428  -0.54885  -0.53453  -0.49634  -0.48145
 Alpha  occ. eigenvalues --   -0.47721  -0.46350  -0.43322  -0.41805  -0.39307
 Alpha  occ. eigenvalues --   -0.38552  -0.38380  -0.36887  -0.36652  -0.34699
 Alpha  occ. eigenvalues --   -0.33567  -0.33281  -0.32453  -0.31853  -0.31390
 Alpha  occ. eigenvalues --   -0.30584  -0.30473  -0.30193  -0.29894  -0.29158
 Alpha  occ. eigenvalues --   -0.28568  -0.28077  -0.27620  -0.25876  -0.24350
 Alpha  occ. eigenvalues --   -0.22758  -0.21338  -0.20262  -0.18495  -0.16084
 Alpha  occ. eigenvalues --   -0.15927  -0.14792  -0.13629  -0.09918   0.04196
 Alpha virt. eigenvalues --    0.06110   0.06427   0.07233   0.07698   0.08691
 Alpha virt. eigenvalues --    0.08869   0.09195   0.09547   0.09656   0.10266
 Alpha virt. eigenvalues --    0.10819   0.11549   0.11975   0.11995   0.12171

  Beta  occ. eigenvalues --  -19.04860 -18.97579 -14.29394 -14.23153 -14.21962
  Beta  occ. eigenvalues --  -10.16541 -10.12651 -10.11811 -10.10576 -10.09513
  Beta  occ. eigenvalues --  -10.09303 -10.07898 -10.07645 -10.07386 -10.05947
  Beta  occ. eigenvalues --  -10.05408 -10.05316 -10.05278 -10.05046  -0.98402
  Beta  occ. eigenvalues --   -0.95437  -0.88647  -0.83959  -0.74896  -0.73990
  Beta  occ. eigenvalues --   -0.70228  -0.67011  -0.65614  -0.62328  -0.60502
  Beta  occ. eigenvalues --   -0.58378  -0.54824  -0.53132  -0.49583  -0.48088
  Beta  occ. eigenvalues --   -0.47598  -0.46269  -0.43273  -0.41707  -0.39142
  Beta  occ. eigenvalues --   -0.38486  -0.38337  -0.36781  -0.36573  -0.34664
  Beta  occ. eigenvalues --   -0.33214  -0.32982  -0.32356  -0.31813  -0.31321
  Beta  occ. eigenvalues --   -0.30471  -0.30273  -0.30121  -0.29860  -0.29096
  Beta  occ. eigenvalues --   -0.28434  -0.27984  -0.27513  -0.25545  -0.24230
  Beta  occ. eigenvalues --   -0.22686  -0.20908  -0.20004  -0.17985  -0.16030
  Beta  occ. eigenvalues --   -0.15798  -0.14715  -0.13339  -0.09384
  Beta virt. eigenvalues --    0.06363   0.06968   0.07428   0.07937   0.08166
  Beta virt. eigenvalues --    0.08819   0.08959   0.09195   0.09798   0.09918
  Beta virt. eigenvalues --    0.10698   0.10946   0.11637   0.11923   0.12067

 Mulliken charges and spin densities:
               1          2
     1  C   -0.336516  -0.311046
     2  C    0.140436   0.275043
     3  C   -0.231241   0.221181
     4  C   -0.362509   0.282735
     5  C   -0.140516   0.012375
     6  C    0.045405  -0.353397
     7  C    0.061050  -0.271162
     8  N    0.027045   0.064288
     9  C   -1.398844   0.438341
    10  C    0.296747  -0.963795
    11  C    1.179502  -0.287359
    12  C   -1.064703   0.506905
    13  N    0.197366   0.055488
    14  N   -0.371708   0.157168
    15  C    0.300286  -0.447779
    16  C    0.644742  -0.942859
    17  C    0.272810  -0.068374
    18  O   -0.387097   0.049945
    19  O   -0.239030   0.010267
    20  H    0.153965   0.013481
    21  H    0.157991   0.020030
    22  H    0.030810   0.088888
    23  H    0.192728   0.006952
    24  H    0.151419   0.002219
    25  H   -0.195220   0.292820
    26  H    0.065595   0.203679
    27  H    0.090824   0.087012
    28  H   -0.235487   0.391539
    29  H    0.116393   0.025945
    30  H    0.088019   0.054215
    31  H    0.042532   0.187293
    32  H    0.038585   0.101308
    33  H    0.003351   0.167457
    34  H   -0.148469   0.311867
    35  H   -0.465354   0.615118
    36  H    0.279091   0.002212
 Sum of Mulliken charges =  -1.00000   1.00000

 Dipole moment (field-independent basis, Debye):
    X=              0.5584    Y=             -2.8200    Z=             -1.2445  Tot=              3.1326
 Quadrupole moment (field-independent basis, Debye-Ang):
   XX=           -181.3319   YY=           -149.2405   ZZ=           -144.9838
   XY=              3.3810   XZ=             15.8478   YZ=              3.4228

 Summary of Natural Population Analysis:

                                       Natural Population
                Natural  -----------------------------------------------
    Atom  No    Charge         Core      Valence    Rydberg      Total
 -----------------------------------------------------------------------
      C    1   -0.29244      0.99963     2.28775    0.00505     3.29244
      C    2    0.02606      0.99951     1.96574    0.00870     2.97394
      C    3   -0.10872      0.99941     2.09924    0.01007     3.10872
      C    4   -0.03009      0.99955     2.02084    0.00970     3.03009
      C    5   -0.15678      0.99952     2.14910    0.00816     3.15678
      C    6    0.13775      0.99950     1.85169    0.01106     2.86225
      C    7   -0.14267      0.99949     2.13384    0.00934     3.14267
      N    8   -0.30315      0.99967     2.79275    0.01073     3.80315
      C    9   -0.01343      0.99957     2.00245    0.01141     3.01343
      C   10   -0.27998      0.99965     2.27469    0.00565     3.27998
      C   11   -0.07943      0.99951     2.06858    0.01134     3.07943
      C   12    0.00005      0.99949     1.98889    0.01156     2.99995
      N   13   -0.10558      0.99967     2.59302    0.01289     3.60558
      N   14   -0.15337      0.99973     2.64185    0.01179     3.65337
      C   15   -0.01328      0.99957     2.00077    0.01294     3.01328
      C   16   -0.17132      0.99964     2.16351    0.00818     3.17132
      C   17    0.41588      0.99965     1.55993    0.02454     2.58412
      O   18   -0.32019      0.99987     3.31444    0.00588     4.32019
      O   19   -0.35228      0.99988     3.34629    0.00611     4.35228
      H   20    0.10677      0.00000     0.39210    0.00113     0.39323
      H   21    0.10790      0.00000     0.39085    0.00125     0.39210
      H   22    0.09460      0.00000     0.40461    0.00079     0.40540
      H   23    0.10774      0.00000     0.39130    0.00096     0.39226
      H   24    0.10094      0.00000     0.39780    0.00127     0.39906
      H   25    0.09388      0.00000     0.40453    0.00159     0.40612
      H   26    0.18605      0.00000     0.31098    0.00297     0.31395
      H   27    0.09711      0.00000     0.40112    0.00177     0.40289
      H   28    0.10108      0.00000     0.39774    0.00117     0.39892
      H   29    0.10011      0.00000     0.39913    0.00075     0.39989
      H   30    0.10006      0.00000     0.39907    0.00087     0.39994
      H   31    0.11424      0.00000     0.38422    0.00154     0.38576
      H   32    0.09501      0.00000     0.40403    0.00095     0.40499
      H   33    0.09755      0.00000     0.40146    0.00099     0.40245
      H   34    0.10424      0.00000     0.39427    0.00149     0.39576
      H   35    0.10374      0.00000     0.39469    0.00157     0.39626
      H   36    0.23194      0.00000     0.26371    0.00435     0.26806
 =======================================================================
   * Total *   -0.00000     18.99252    49.78698    0.22050    69.00000

 Normal termination of Gaussian 16 at Sat Dec 12 11:22:28 2020.
