 Gaussian 16, Revision A.03,

 -----------------------------------------------------------
 # opt freq B3LYP/6-31G(d) empiricaldispersion=gd3bj scf=xqc
 -----------------------------------------------------------

 ------------------------------
 CID_79763783_JID_6710_neutraal
 ------------------------------
 Symbolic Z-matrix:
 Charge =  0 Multiplicity = 1

 SCF Done:  E(RB3LYP) =  -731.924769694     A.U. after   14 cycles
 SCF Done:  E(RB3LYP) =  -731.928476886     A.U. after   11 cycles
 SCF Done:  E(RB3LYP) =  -731.929040940     A.U. after   11 cycles
 SCF Done:  E(RB3LYP) =  -731.929341085     A.U. after   11 cycles
 SCF Done:  E(RB3LYP) =  -731.929461674     A.U. after   11 cycles
 SCF Done:  E(RB3LYP) =  -731.929561433     A.U. after   10 cycles
 SCF Done:  E(RB3LYP) =  -731.929595730     A.U. after   11 cycles
 SCF Done:  E(RB3LYP) =  -731.929617075     A.U. after   11 cycles
 SCF Done:  E(RB3LYP) =  -731.929663792     A.U. after   11 cycles
 SCF Done:  E(RB3LYP) =  -731.929704770     A.U. after   11 cycles
 SCF Done:  E(RB3LYP) =  -731.929714337     A.U. after   10 cycles
 SCF Done:  E(RB3LYP) =  -731.929719759     A.U. after   10 cycles
 SCF Done:  E(RB3LYP) =  -731.929720505     A.U. after    9 cycles
 SCF Done:  E(RB3LYP) =  -731.929720572     A.U. after    6 cycles
 SCF Done:  E(RB3LYP) =  -731.929720599     A.U. after    7 cycles
 Optimization completed.
    -- Stationary point found.
 Normal termination of Gaussian 16 at Fri Dec 11 00:22:40 2020.

 --------------------------------------------------------------------
 #N Geom=AllCheck Guess=TCheck SCRF=Check GenChk RB3LYP/6-31G(d) Freq
 --------------------------------------------------------------------

 Structure from the checkpoint file:  "JID_6710.chk"
 ------------------------------
 CID_79763783_JID_6710_neutraal
 ------------------------------
 Charge =  0 Multiplicity = 1

 SCF Done:  E(RB3LYP) =  -731.929720599     A.U. after    1 cycles

  Exact polarizability: 190.923 -17.185 111.375  -5.650  -8.512 124.615
 Approx polarizability: 246.854 -32.226 164.372  -8.164 -25.456 215.069

                      1                      2                      3
                      A                      A                      A
 Frequencies --     36.4728                45.7081                53.5823
 Red. masses --      4.1961                 3.4172                 3.8990
 Frc consts  --      0.0033                 0.0042                 0.0066
 IR Inten    --      0.2514                 0.2704                 0.3777

                      4                      5                      6
                      A                      A                      A
 Frequencies --     67.5881                94.7765               158.1958
 Red. masses --      3.3862                 3.5367                 4.4595
 Frc consts  --      0.0091                 0.0187                 0.0658
 IR Inten    --      4.0338                 1.4035                 2.5350

                      7                      8                      9
                      A                      A                      A
 Frequencies --    164.9051               186.4386               225.5373
 Red. masses --      4.3139                 2.3455                 2.1545
 Frc consts  --      0.0691                 0.0480                 0.0646
 IR Inten    --      1.6884                 1.5092                 0.3313

                     10                     11                     12
                      A                      A                      A
 Frequencies --    247.0034               256.3354               275.2630
 Red. masses --      1.1059                 1.9012                 1.9675
 Frc consts  --      0.0398                 0.0736                 0.0878
 IR Inten    --      0.7246                 1.7831                 3.1154

                     13                     14                     15
                      A                      A                      A
 Frequencies --    283.3350               323.0212               335.2132
 Red. masses --      3.1318                 2.7696                 2.5610
 Frc consts  --      0.1481                 0.1703                 0.1696
 IR Inten    --      5.1859                14.7412                17.5404

                     16                     17                     18
                      A                      A                      A
 Frequencies --    367.7293               412.8517               428.1604
 Red. masses --      1.5134                 3.8787                 3.1315
 Frc consts  --      0.1206                 0.3895                 0.3382
 IR Inten    --    107.3737                 6.3478                 0.5123

                     19                     20                     21
                      A                      A                      A
 Frequencies --    464.4064               490.2767               508.6803
 Red. masses --      4.2033                 3.0153                 3.4353
 Frc consts  --      0.5341                 0.4270                 0.5237
 IR Inten    --      1.9026                 0.6777                 2.0286

                     22                     23                     24
                      A                      A                      A
 Frequencies --    558.4888               582.8915               617.9210
 Red. masses --      3.0125                 4.4554                 2.3648
 Frc consts  --      0.5536                 0.8919                 0.5320
 IR Inten    --      4.3682                25.2658                 5.4597

                     25                     26                     27
                      A                      A                      A
 Frequencies --    653.1928               675.6794               739.6958
 Red. masses --      6.4046                 3.6082                 4.4152
 Frc consts  --      1.6100                 0.9705                 1.4233
 IR Inten    --      0.4399                16.9287                 3.9495

                     28                     29                     30
                      A                      A                      A
 Frequencies --    786.7971               831.4778               842.5563
 Red. masses --      4.5130                 1.2899                 2.1053
 Frc consts  --      1.6460                 0.5254                 0.8805
 IR Inten    --      5.1006                 6.1768                41.4308

                     31                     32                     33
                      A                      A                      A
 Frequencies --    849.2533               865.6361               890.8974
 Red. masses --      1.8268                 4.8676                 2.2052
 Frc consts  --      0.7763                 2.1490                 1.0312
 IR Inten    --     16.8396                11.7698                11.5170

                     34                     35                     36
                      A                      A                      A
 Frequencies --    906.0704               952.7420               960.9989
 Red. masses --      1.7598                 1.3478                 1.3200
 Frc consts  --      0.8512                 0.7208                 0.7182
 IR Inten    --      2.0416                 0.5631                 0.1653

                     37                     38                     39
                      A                      A                      A
 Frequencies --    964.7684              1006.7128              1033.0176
 Red. masses --      1.9592                 1.7085                 2.7598
 Frc consts  --      1.0744                 1.0202                 1.7352
 IR Inten    --      4.6989                 1.0170                 0.0745

                     40                     41                     42
                      A                      A                      A
 Frequencies --   1037.8994              1055.2114              1079.3386
 Red. masses --      2.1942                 3.6225                 3.1171
 Frc consts  --      1.3927                 2.3765                 2.1395
 IR Inten    --     26.7735                24.4845               112.0363

                     43                     44                     45
                      A                      A                      A
 Frequencies --   1083.1185              1113.8071              1131.0417
 Red. masses --      5.6352                 3.0092                 1.7586
 Frc consts  --      3.8950                 2.1995                 1.3255
 IR Inten    --     52.9500                16.8394                 5.3581

                     46                     47                     48
                      A                      A                      A
 Frequencies --   1144.6999              1149.6414              1154.6600
 Red. masses --      2.1163                 2.0383                 1.8169
 Frc consts  --      1.6338                 1.5872                 1.4272
 IR Inten    --     18.2793                71.1908                20.7193

                     49                     50                     51
                      A                      A                      A
 Frequencies --   1186.6137              1205.3344              1215.4807
 Red. masses --      1.2712                 1.1803                 1.3252
 Frc consts  --      1.0546                 1.0103                 1.1535
 IR Inten    --      0.7261                31.4856                 6.6112

                     52                     53                     54
                      A                      A                      A
 Frequencies --   1219.4030              1233.5269              1247.6925
 Red. masses --      1.3946                 2.1684                 1.3516
 Frc consts  --      1.2218                 1.9440                 1.2397
 IR Inten    --     10.4117                 0.4397                 9.1665

                     55                     56                     57
                      A                      A                      A
 Frequencies --   1265.2012              1304.0416              1312.4814
 Red. masses --      1.3748                 4.1470                 1.3767
 Frc consts  --      1.2966                 4.1550                 1.3973
 IR Inten    --     17.6583               243.8491                29.2641

                     58                     59                     60
                      A                      A                      A
 Frequencies --   1331.8154              1335.5093              1352.1648
 Red. masses --      1.2689                 1.5504                 2.3111
 Frc consts  --      1.3260                 1.6293                 2.4896
 IR Inten    --     23.8917                54.1836                38.8704

                     61                     62                     63
                      A                      A                      A
 Frequencies --   1363.0901              1380.3091              1400.9929
 Red. masses --      1.2754                 1.2669                 1.5989
 Frc consts  --      1.3962                 1.4222                 1.8491
 IR Inten    --      0.2866                 0.5409                 9.5472

                     64                     65                     66
                      A                      A                      A
 Frequencies --   1407.2326              1410.2436              1434.0281
 Red. masses --      1.4855                 1.3961                 1.5538
 Frc consts  --      1.7332                 1.6359                 1.8826
 IR Inten    --     26.6511                 2.9073                21.0088

                     67                     68                     69
                      A                      A                      A
 Frequencies --   1435.4853              1472.9100              1500.7319
 Red. masses --      1.3320                 2.6820                 1.2023
 Frc consts  --      1.6171                 3.4281                 1.5954
 IR Inten    --      7.5152                 3.9750                15.1764

                     70                     71                     72
                      A                      A                      A
 Frequencies --   1516.0504              1520.3284              1521.4408
 Red. masses --      1.0888                 1.0645                 1.0478
 Frc consts  --      1.4744                 1.4497                 1.4290
 IR Inten    --      3.4136                 1.2619                 5.3844

                     73                     74                     75
                      A                      A                      A
 Frequencies --   1526.2023              1535.6190              1554.0539
 Red. masses --      1.0475                 1.0642                 1.0970
 Frc consts  --      1.4376                 1.4785                 1.5609
 IR Inten    --      1.2346                42.2483                 1.8340

                     76                     77                     78
                      A                      A                      A
 Frequencies --   1567.7847              1637.7114              1676.4718
 Red. masses --      2.4576                 6.5733                 5.7741
 Frc consts  --      3.5590                10.3875                 9.5615
 IR Inten    --     93.3896                 9.1615                73.5694

                     79                     80                     81
                      A                      A                      A
 Frequencies --   2971.8653              2985.4020              3018.3095
 Red. masses --      1.0831                 1.0731                 1.0844
 Frc consts  --      5.6362                 5.6353                 5.8207
 IR Inten    --     40.6084                85.9293                35.2872

                     82                     83                     84
                      A                      A                      A
 Frequencies --   3026.4336              3046.1535              3054.5914
 Red. masses --      1.0348                 1.0801                 1.0389
 Frc consts  --      5.5845                 5.9051                 5.7113
 IR Inten    --     54.8045                 8.5337                14.6998

                     85                     86                     87
                      A                      A                      A
 Frequencies --   3062.2575              3085.3256              3100.7533
 Red. masses --      1.0684                 1.1067                 1.0920
 Frc consts  --      5.9031                 6.2068                 6.1858
 IR Inten    --     41.5347                42.7467                64.1150

                     88                     89                     90
                      A                      A                      A
 Frequencies --   3124.0025              3136.5015              3137.4619
 Red. masses --      1.1016                 1.0990                 1.1023
 Frc consts  --      6.3342                 6.3698                 6.3932
 IR Inten    --     26.6115                22.5392                24.6632

                     91                     92                     93
                      A                      A                      A
 Frequencies --   3160.7452              3181.6450              3200.4910
 Red. masses --      1.0997                 1.0887                 1.0884
 Frc consts  --      6.4732                 6.4930                 6.5687
 IR Inten    --     27.5001                13.5597                 5.4037

                     94                     95                     96
                      A                      A                      A
 Frequencies --   3217.3443              3228.4169              3734.9531
 Red. masses --      1.0930                 1.0917                 1.0660
 Frc consts  --      6.6658                 6.7042                 8.7618
 IR Inten    --      7.1090                11.5126                10.2325

 - Thermochemistry -
 -------------------
 Temperature   298.150 Kelvin.  Pressure   1.00000 Atm.
 Atom     1 has atomic number  6 and mass  12.00000

 Molecular mass:   222.12559 amu.
 Principal axes and moments of inertia in atomic units:
                           1         2         3
     Eigenvalues --  1588.706016707.642497388.18095
           X            0.99998  -0.00335  -0.00585
           Y            0.00344   0.99986   0.01608
           Z            0.00580  -0.01610   0.99985
 This molecule is an asymmetric top.
 Rotational symmetry number  1.
 Warning -- assumption of classical behavior for rotation
           may cause significant error
 Rotational temperatures (Kelvin)      0.05452     0.01291     0.01172
 Rotational constants (GHZ):           1.13598     0.26906     0.24427
 Zero-point vibrational energy     769415.9 (Joules/Mol)
                                  183.89482 (Kcal/Mol)
 Warning -- explicit consideration of  24 degrees of freedom as
           vibrations may cause significant error
 Vibrational temperatures:     52.48    65.76    77.09    97.24   136.36
          (Kelvin)            227.61   237.26   268.24   324.50   355.38
                              368.81   396.04   407.66   464.76   482.30
                              529.08   594.00   616.03   668.18   705.40
                              731.88   803.54   838.65   889.05   939.80
                              972.15  1064.26  1132.03  1196.31  1212.25
                             1221.89  1245.46  1281.80  1303.63  1370.78
                             1382.66  1388.09  1448.44  1486.28  1493.31
                             1518.21  1552.93  1558.37  1602.52  1627.32
                             1646.97  1654.08  1661.30  1707.27  1734.21
                             1748.81  1754.45  1774.77  1795.15  1820.34
                             1876.22  1888.37  1916.19  1921.50  1945.46
                             1961.18  1985.96  2015.72  2024.69  2029.03
                             2063.25  2065.34  2119.19  2159.22  2181.26
                             2187.41  2189.01  2195.86  2209.41  2235.94
                             2255.69  2356.30  2412.07  4275.85  4295.33
                             4342.67  4354.36  4382.74  4394.88  4405.91
                             4439.10  4461.29  4494.74  4512.73  4514.11
                             4547.61  4577.68  4604.79  4629.04  4644.97
                             5373.76

 Zero-point correction=                           0.293055 (Hartree/Particle)
 Thermal correction to Energy=                    0.308557
 Thermal correction to Enthalpy=                  0.309502
 Thermal correction to Gibbs Free Energy=         0.249533
 Sum of electronic and zero-point Energies=           -731.636666
 Sum of electronic and thermal Energies=              -731.621163
 Sum of electronic and thermal Enthalpies=            -731.620219
 Sum of electronic and thermal Free Energies=         -731.680187

                     E (Thermal)             CV                S
                      KCal/Mol        Cal/Mol-Kelvin    Cal/Mol-Kelvin
 Total                  193.623             59.305            126.214
 Electronic               0.000              0.000              0.000
 Translational            0.889              2.981             42.097
 Rotational               0.889              2.981             32.732
 Vibrational            191.845             53.344             51.386
 Vibration     1          0.594              1.982              5.442
 Vibration     2          0.595              1.979              4.995
 Vibration     3          0.596              1.976              4.681
 Vibration     4          0.598              1.970              4.222
 Vibration     5          0.603              1.953              3.559
 Vibration     6          0.621              1.893              2.571
 Vibration     7          0.623              1.886              2.493
 Vibration     8          0.632              1.858              2.263
 Vibration     9          0.650              1.802              1.914
 Vibration    10          0.661              1.768              1.752
 Vibration    11          0.666              1.752              1.687
 Vibration    12          0.677              1.719              1.563
 Vibration    13          0.682              1.705              1.513
 Vibration    14          0.708              1.629              1.295
 Vibration    15          0.716              1.605              1.235
 Vibration    16          0.740              1.539              1.089
 Vibration    17          0.777              1.442              0.917
 Vibration    18          0.790              1.409              0.865
 Vibration    19          0.822              1.329              0.753
 Vibration    20          0.846              1.272              0.683
 Vibration    21          0.864              1.231              0.637
 Vibration    22          0.914              1.121              0.527
 Vibration    23          0.940              1.068              0.480
 Vibration    24          0.978              0.994              0.420

 Optimization completed.
    -- Stationary point found.
 Normal termination of Gaussian 16 at Fri Dec 11 00:34:12 2020.

 ----------------------------------------------------------------------
 # B3LYP/6-311++G(d,p) empiricaldispersion=gd3bj scf=xqc pop=npa geom=c
 heck
 ----------------------------------------------------------------------

 --------------------------------------
 CID_79763783_JID_6710_Energie_neutraal
 --------------------------------------
 Structure from the checkpoint file:  "JID_6710.chk"
 Charge =  0 Multiplicity = 1

 SCF Done:  E(RB3LYP) =  -732.141920492     A.U. after   15 cycles
 Normal termination of Gaussian 16 at Fri Dec 11 00:39:07 2020.

 ----------------------------------------------------------------------
 # B3LYP/6-311++G(d,p) empiricaldispersion=gd3bj scf=xqc pop=npa geom=c
 heck
 ----------------------------------------------------------------------

 ------------------------------------
 CID_79763783_JID_6710_Energie_kation
 ------------------------------------
 Structure from the checkpoint file:  "JID_6710.chk"
 Charge =  1 Multiplicity = 2

 SCF Done:  E(UB3LYP) =  -731.849242872     A.U. after   24 cycles
 Normal termination of Gaussian 16 at Fri Dec 11 00:50:47 2020.
 Gaussian 16:  ES64L-G16RevA.03 25-Dec-2016

 ----------------------------------------------------------------------
 # B3LYP/6-311++G(d,p) empiricaldispersion=gd3bj scf=xqc pop=npa geom=c
 heck
 ----------------------------------------------------------------------

 -----------------------------------
 CID_79763783_JID_6710_Energie_anion
 -----------------------------------
 Structure from the checkpoint file:  "JID_6710.chk"
 Charge = -1 Multiplicity = 2

                         Standard orientation:
 ---------------------------------------------------------------------
 Center     Atomic      Atomic             Coordinates (Angstroms)
 Number     Number       Type             X           Y           Z
 ---------------------------------------------------------------------
      1          6           0       -1.179707   -2.103453   -0.541462
      2          6           0       -2.035074   -1.127267    0.257376
      3          6           0       -2.035699    0.318918   -0.298771
      4          6           0       -3.514801    0.726564   -0.218416
      5          6           0       -4.209918   -0.614692   -0.430997
      6          8           0       -3.406852   -1.563909    0.265233
      7          6           0       -1.093877    1.270718    0.441684
      8          6           0        0.349618    0.816542    0.397732
      9          6           0        0.948338    0.189723    1.498135
     10          6           0        2.249521   -0.291353    1.430589
     11          6           0        2.990070   -0.145483    0.249682
     12          6           0        2.412436    0.492862   -0.854956
     13          6           0        1.102166    0.964870   -0.769621
     14          8           0        4.257574   -0.648109    0.278459
     15          6           0        5.045086   -0.531612   -0.894867
     16          8           0       -1.266342    2.549269   -0.175760
     17          1           0       -1.272033   -3.113158   -0.129211
     18          1           0       -0.125757   -1.808812   -0.515445
     19          1           0       -1.508160   -2.128855   -1.586906
     20          1           0       -1.700651   -1.129606    1.304746
     21          1           0       -1.722612    0.300352   -1.350795
     22          1           0       -3.785246    1.488977   -0.952655
     23          1           0       -3.744373    1.116248    0.780983
     24          1           0       -4.265367   -0.861490   -1.504490
     25          1           0       -5.222214   -0.663771   -0.017690
     26          1           0       -1.417888    1.313271    1.495636
     27          1           0        0.384339    0.073108    2.420468
     28          1           0        2.717993   -0.778874    2.279303
     29          1           0        2.967540    0.624854   -1.776141
     30          1           0        0.654247    1.462891   -1.624521
     31          1           0        4.584592   -1.056231   -1.742281
     32          1           0        5.207728    0.519311   -1.168166
     33          1           0        6.003968   -0.996280   -0.659781
     34          1           0       -0.600115    3.142031    0.206829
 ---------------------------------------------------------------------

 SCF Done:  E(UB3LYP) =  -732.128878402     A.U. after   33 cycles
 SCF Done:  E(UB3LYP) =  -732.128878402     a.u. after    1 cycles

 The electronic state is 2-A.
 Alpha  occ. eigenvalues --  -19.05971 -19.03437 -19.03210 -10.14329 -10.13919
 Alpha  occ. eigenvalues --  -10.13243 -10.13088 -10.12173 -10.08971 -10.08729
 Alpha  occ. eigenvalues --  -10.08378 -10.08321 -10.08319 -10.08099 -10.08084
 Alpha  occ. eigenvalues --  -10.06842  -0.97590  -0.95023  -0.93724  -0.76796
 Alpha  occ. eigenvalues --   -0.71924  -0.68202  -0.67141  -0.66065  -0.62078
 Alpha  occ. eigenvalues --   -0.59572  -0.55868  -0.52699  -0.50491  -0.49782
 Alpha  occ. eigenvalues --   -0.47831  -0.44502  -0.42966  -0.41571  -0.40349
 Alpha  occ. eigenvalues --   -0.39299  -0.37328  -0.37092  -0.35808  -0.34641
 Alpha  occ. eigenvalues --   -0.34330  -0.33497  -0.32661  -0.32263  -0.31377
 Alpha  occ. eigenvalues --   -0.30458  -0.29132  -0.28594  -0.27910  -0.26787
 Alpha  occ. eigenvalues --   -0.25483  -0.24858  -0.24091  -0.23422  -0.22957
 Alpha  occ. eigenvalues --   -0.22666  -0.19421  -0.16935  -0.16674  -0.13094
 Alpha  occ. eigenvalues --    0.04223
 Alpha virt. eigenvalues --    0.05880   0.06525   0.07013   0.07282   0.07635
 Alpha virt. eigenvalues --    0.08251   0.08635   0.08992   0.09316   0.09794
 Alpha virt. eigenvalues --    0.10308   0.10582   0.10858   0.12245   0.12436

  Beta  occ. eigenvalues --  -19.05959 -19.03414 -19.03210 -10.14329 -10.13908
  Beta  occ. eigenvalues --  -10.13240 -10.13081 -10.12113 -10.08968 -10.08719
  Beta  occ. eigenvalues --  -10.08369 -10.08315 -10.08311 -10.08094 -10.08064
  Beta  occ. eigenvalues --  -10.06834  -0.97563  -0.95018  -0.93674  -0.76779
  Beta  occ. eigenvalues --   -0.71906  -0.68189  -0.67117  -0.66037  -0.62031
  Beta  occ. eigenvalues --   -0.59529  -0.55831  -0.52661  -0.50464  -0.49746
  Beta  occ. eigenvalues --   -0.47809  -0.44458  -0.42929  -0.41555  -0.40314
  Beta  occ. eigenvalues --   -0.39272  -0.37290  -0.37052  -0.35774  -0.34628
  Beta  occ. eigenvalues --   -0.34317  -0.33475  -0.32639  -0.32222  -0.31360
  Beta  occ. eigenvalues --   -0.30425  -0.29107  -0.28577  -0.27889  -0.26750
  Beta  occ. eigenvalues --   -0.25472  -0.24838  -0.24059  -0.23390  -0.22949
  Beta  occ. eigenvalues --   -0.22642  -0.19392  -0.16923  -0.16658  -0.13078
  Beta virt. eigenvalues --    0.06073   0.06855   0.07035   0.07267   0.07640
  Beta virt. eigenvalues --    0.07966   0.08533   0.08891   0.09463   0.09667
  Beta virt. eigenvalues --    0.09974   0.10641   0.11021   0.11319   0.12367

 Mulliken charges and spin densities:
               1          2
     1  C   -0.199600  -0.332843
     2  C   -0.660408   0.287587
     3  C   -0.006884   0.389785
     4  C    0.063016  -0.342154
     5  C   -0.065660  -0.255707
     6  O   -0.102575   0.008127
     7  C    2.822709  -3.515188
     8  C    1.185848  -0.042673
     9  C   -0.892618   0.591591
    10  C   -0.492913   0.211431
    11  C   -0.343464  -0.270165
    12  C    0.059613  -0.158064
    13  C   -1.135646   0.664512
    14  O   -0.211408   0.068521
    15  C    1.317799  -1.666453
    16  O   -0.199537   0.040169
    17  H    0.051510   0.087213
    18  H    0.410950  -0.228247
    19  H   -0.007962   0.152704
    20  H    0.153660   0.039454
    21  H    0.196714  -0.007226
    22  H    0.054541   0.107392
    23  H    0.055690   0.091636
    24  H    0.051403   0.071465
    25  H    0.044661   0.125096
    26  H   -0.019521   0.240320
    27  H   -0.485076   0.633858
    28  H   -0.101345   0.293972
    29  H   -0.685374   0.903214
    30  H   -0.421913   0.623400
    31  H   -0.369887   0.526767
    32  H   -0.369874   0.532126
    33  H   -0.669887   0.844336
    34  H   -0.026561   0.284047
 Sum of Mulliken charges =  -1.00000   1.00000

 Dipole moment (field-independent basis, Debye):
    X=             -8.4400    Y=             -1.1729    Z=              2.3243  Tot=              8.8324
 Quadrupole moment (field-independent basis, Debye-Ang):
   XX=           -201.1772   YY=           -139.3334   ZZ=           -135.9099
   XY=              1.0784   XZ=             17.4178   YZ=              1.7003

 Summary of Natural Population Analysis:

                                       Natural Population
                Natural  -----------------------------------------------
    Atom  No    Charge         Core      Valence    Rydberg      Total
 -----------------------------------------------------------------------
      C    1   -0.29236      0.99963     2.28722    0.00550     3.29236
      C    2    0.06742      0.99955     1.91986    0.01317     2.93258
      C    3   -0.12222      0.99955     2.11018    0.01248     3.12222
      C    4   -0.19917      0.99962     2.19217    0.00738     3.19917
      C    5   -0.00818      0.99960     1.99740    0.01118     3.00818
      O    6   -0.30707      0.99989     3.29866    0.00851     4.30707
      C    7    0.06489      0.99947     1.92002    0.01562     2.93511
      C    8   -0.05544      0.99948     2.04308    0.01288     3.05544
      C    9   -0.09332      0.99951     2.08353    0.01028     3.09332
      C   10   -0.11749      0.99952     2.10852    0.00946     3.11749
      C   11    0.16304      0.99938     1.82334    0.01424     2.83696
      C   12   -0.13854      0.99952     2.12949    0.00953     3.13854
      C   13   -0.08649      0.99951     2.07607    0.01090     3.08649
      O   14   -0.27222      0.99986     3.26204    0.01032     4.27222
      C   15   -0.10087      0.99960     2.09217    0.00910     3.10087
      O   16   -0.37159      0.99990     3.36549    0.00621     4.37159
      H   17    0.10014      0.00000     0.39880    0.00106     0.39986
      H   18    0.10853      0.00000     0.39031    0.00116     0.39147
      H   19    0.09611      0.00000     0.40272    0.00117     0.40389
      H   20    0.08594      0.00000     0.41225    0.00181     0.41406
      H   21    0.10220      0.00000     0.39590    0.00190     0.39780
      H   22    0.10805      0.00000     0.39095    0.00100     0.39195
      H   23    0.09793      0.00000     0.40077    0.00130     0.40207
      H   24    0.07477      0.00000     0.42367    0.00157     0.42523
      H   25    0.08732      0.00000     0.41125    0.00143     0.41268
      H   26    0.08010      0.00000     0.41753    0.00237     0.41990
      H   27    0.10133      0.00000     0.39737    0.00129     0.39867
      H   28    0.10599      0.00000     0.39255    0.00145     0.39401
      H   29    0.11084      0.00000     0.38702    0.00214     0.38916
      H   30    0.10790      0.00000     0.39050    0.00160     0.39210
      H   31    0.08640      0.00000     0.41131    0.00229     0.41360
      H   32    0.08772      0.00000     0.40946    0.00282     0.41228
      H   33    0.09531      0.00000     0.40294    0.00175     0.40469
      H   34    0.23301      0.00000     0.26316    0.00383     0.26699
 =======================================================================
   * Total *    0.00000     15.99359    43.80771    0.19870    60.00000

 Normal termination of Gaussian 16 at Fri Dec 11 01:06:21 2020.
