 Gaussian 16, Revision A.03,

 -----------------------------------------------------------
 # opt freq B3LYP/6-31G(d) empiricaldispersion=gd3bj scf=xqc
 -----------------------------------------------------------

 -------------------------------
 CID_151636597_JID_8526_neutraal
 -------------------------------
 Symbolic Z-matrix:
 Charge =  0 Multiplicity = 1

 SCF Done:  E(RB3LYP) =  -857.607192166     A.U. after   15 cycles
 SCF Done:  E(RB3LYP) =  -857.612489904     A.U. after   15 cycles
 SCF Done:  E(RB3LYP) =  -857.612632430     A.U. after   15 cycles
 SCF Done:  E(RB3LYP) =  -857.612412917     A.U. after   13 cycles
 SCF Done:  E(RB3LYP) =  -857.613353945     A.U. after   13 cycles
 SCF Done:  E(RB3LYP) =  -857.613500312     A.U. after   12 cycles
 SCF Done:  E(RB3LYP) =  -857.613485747     A.U. after   11 cycles
 SCF Done:  E(RB3LYP) =  -857.613538580     A.U. after   12 cycles
 SCF Done:  E(RB3LYP) =  -857.613559477     A.U. after   10 cycles
 SCF Done:  E(RB3LYP) =  -857.613585667     A.U. after   12 cycles
 SCF Done:  E(RB3LYP) =  -857.614245359     A.U. after    8 cycles
 SCF Done:  E(RB3LYP) =  -857.614245069     A.U. after    8 cycles
 SCF Done:  E(RB3LYP) =  -857.614245981     A.U. after   10 cycles
 SCF Done:  E(RB3LYP) =  -857.614246167     A.U. after    8 cycles
 SCF Done:  E(RB3LYP) =  -857.614246174     A.U. after    7 cycles
 Optimization completed.
    -- Stationary point found.
 Normal termination of Gaussian 16 at Fri Dec 11 21:43:04 2020.

 --------------------------------------------------------------------
 #N Geom=AllCheck Guess=TCheck SCRF=Check GenChk RB3LYP/6-31G(d) Freq
 --------------------------------------------------------------------

 Structure from the checkpoint file:  "JID_8526.chk"
 -------------------------------
 CID_151636597_JID_8526_neutraal
 -------------------------------
 Charge =  0 Multiplicity = 1

 SCF Done:  E(RB3LYP) =  -857.614246174     A.U. after    1 cycles

  Exact polarizability: 153.653 -15.103 170.751 -22.497 -13.477 102.927
 Approx polarizability: 233.776 -33.657 301.121 -50.699 -32.286 188.118

                      1                      2                      3
                      A                      A                      A
 Frequencies --     23.8043                30.1953                47.8769
 Red. masses --      5.7425                 6.7376                 4.4813
 Frc consts  --      0.0019                 0.0036                 0.0061
 IR Inten    --      1.0678                 0.2423                 0.7148

                      4                      5                      6
                      A                      A                      A
 Frequencies --     70.2507               103.5724               116.1448
 Red. masses --      5.5519                 5.9450                 6.3757
 Frc consts  --      0.0161                 0.0376                 0.0507
 IR Inten    --      0.4698                 0.2357                 1.6787

                      7                      8                      9
                      A                      A                      A
 Frequencies --    165.4903               189.1609               235.0754
 Red. masses --      5.5571                 6.6446                 3.6841
 Frc consts  --      0.0897                 0.1401                 0.1199
 IR Inten    --      2.9821                 7.7853                 0.2805

                     10                     11                     12
                      A                      A                      A
 Frequencies --    265.9829               312.7744               339.0377
 Red. masses --      5.0520                 7.6969                 5.9118
 Frc consts  --      0.2106                 0.4436                 0.4004
 IR Inten    --      0.6628                 3.0884                 0.9671

                     13                     14                     15
                      A                      A                      A
 Frequencies --    369.9619               374.8871               387.6926
 Red. masses --      3.3157                 3.4830                 1.2630
 Frc consts  --      0.2674                 0.2884                 0.1118
 IR Inten    --      7.8593                27.6779                89.4298

                     16                     17                     18
                      A                      A                      A
 Frequencies --    415.7668               434.8307               471.8167
 Red. masses --      2.9357                 4.5553                 5.6958
 Frc consts  --      0.2990                 0.5075                 0.7471
 IR Inten    --      0.4079                 2.3663                 4.8183

                     19                     20                     21
                      A                      A                      A
 Frequencies --    495.7089               496.3396               542.1136
 Red. masses --      5.5051                 4.1715                 5.9717
 Frc consts  --      0.7970                 0.6055                 1.0340
 IR Inten    --      0.4833                 6.0289                 4.0889

                     22                     23                     24
                      A                      A                      A
 Frequencies --    575.3029               635.5855               642.4667
 Red. masses --      6.1821                 6.3737                 5.0448
 Frc consts  --      1.2055                 1.5170                 1.2269
 IR Inten    --      1.5138                 0.1133                 5.0461

                     25                     26                     27
                      A                      A                      A
 Frequencies --    678.7805               712.2837               715.7358
 Red. masses --      8.7244                 2.9932                 2.0681
 Frc consts  --      2.3684                 0.8947                 0.6242
 IR Inten    --      0.6178                 3.4428                25.4211

                     28                     29                     30
                      A                      A                      A
 Frequencies --    757.8228               765.3898               817.3488
 Red. masses --      5.7866                 1.7394                 7.2272
 Frc consts  --      1.9580                 0.6004                 2.8447
 IR Inten    --     29.0143                46.6617                 7.5952

                     31                     32                     33
                      A                      A                      A
 Frequencies --    841.3237               865.4617               879.8695
 Red. masses --      4.5849                 1.2675                 4.4036
 Frc consts  --      1.9121                 0.5594                 2.0086
 IR Inten    --     10.2978                 1.1048                20.6759

                     34                     35                     36
                      A                      A                      A
 Frequencies --    907.0606               924.9818               929.7590
 Red. masses --      1.8699                 1.3813                 1.3499
 Frc consts  --      0.9065                 0.6963                 0.6875
 IR Inten    --      6.9679                 3.7217                 3.5767

                     37                     38                     39
                      A                      A                      A
 Frequencies --    957.7566               971.8718               974.4037
 Red. masses --      1.5033                 4.9919                 1.4105
 Frc consts  --      0.8125                 2.7780                 0.7890
 IR Inten    --      0.6907                52.8425                 3.1385

                     40                     41                     42
                      A                      A                      A
 Frequencies --    988.2227               998.8616              1021.8521
 Red. masses --      5.7530                 1.2928                 5.1481
 Frc consts  --      3.3102                 0.7599                 3.1672
 IR Inten    --      8.6246                 0.6939                 4.1752

                     43                     44                     45
                      A                      A                      A
 Frequencies --   1030.1126              1040.2150              1058.5112
 Red. masses --      2.1493                 4.5287                 2.1904
 Frc consts  --      1.3437                 2.8871                 1.4460
 IR Inten    --     14.8033                35.0684                 1.3576

                     46                     47                     48
                      A                      A                      A
 Frequencies --   1086.9805              1121.6042              1188.3674
 Red. masses --      3.9199                 1.5472                 2.0744
 Frc consts  --      2.7288                 1.1467                 1.7260
 IR Inten    --     99.3558                 1.4096                60.2204

                     49                     50                     51
                      A                      A                      A
 Frequencies --   1193.7496              1215.2852              1228.7887
 Red. masses --      1.1029                 1.1383                 1.9557
 Frc consts  --      0.9260                 0.9905                 1.7399
 IR Inten    --      0.0832                 2.4481                77.6976

                     52                     53                     54
                      A                      A                      A
 Frequencies --   1232.0896              1236.4547              1265.0280
 Red. masses --      1.4572                 2.5054                 1.3115
 Frc consts  --      1.3034                 2.2568                 1.2366
 IR Inten    --     82.6448               107.1294                 9.7557

                     55                     56                     57
                      A                      A                      A
 Frequencies --   1335.5435              1342.7857              1350.3640
 Red. masses --      3.8649                 3.4285                 2.3023
 Frc consts  --      4.0616                 3.6422                 2.4735
 IR Inten    --     82.5086                19.2548                22.3605

                     58                     59                     60
                      A                      A                      A
 Frequencies --   1368.3377              1369.1529              1401.1575
 Red. masses --      1.3713                 1.8503                 1.3640
 Frc consts  --      1.5128                 2.0436                 1.5777
 IR Inten    --      0.7129                 1.5903                16.9309

                     61                     62                     63
                      A                      A                      A
 Frequencies --   1488.8746              1500.6835              1521.7468
 Red. masses --      3.9022                 1.9754                 2.2158
 Frc consts  --      5.0966                 2.6211                 3.0232
 IR Inten    --     72.2492                 5.8497                 4.7864

                     64                     65                     66
                      A                      A                      A
 Frequencies --   1522.7834              1547.5581              1639.9342
 Red. masses --      1.2516                 2.1692                 5.4213
 Frc consts  --      1.7099                 3.0608                 8.5903
 IR Inten    --     12.7260                 4.3074                27.4356

                     67                     68                     69
                      A                      A                      A
 Frequencies --   1646.3257              1655.1446              1666.3892
 Red. masses --      5.5323                 6.0172                 5.5142
 Frc consts  --      8.8346                 9.7123                 9.0217
 IR Inten    --      0.8739                41.0575                 0.2711

                     70                     71                     72
                      A                      A                      A
 Frequencies --   1840.7886              3066.6216              3115.6676
 Red. masses --     12.7847                 1.0573                 1.1085
 Frc consts  --     25.5241                 5.8582                 6.3402
 IR Inten    --    228.7181                21.1110                 9.2340

                     73                     74                     75
                      A                      A                      A
 Frequencies --   3182.8544              3190.2796              3190.5948
 Red. masses --      1.0855                 1.0887                 1.0905
 Frc consts  --      6.4790                 6.5283                 6.5407
 IR Inten    --      0.6841                 1.4544                15.7556

                     76                     77                     78
                      A                      A                      A
 Frequencies --   3197.0321              3208.0817              3208.7174
 Red. masses --      1.0904                 1.0943                 1.0918
 Frc consts  --      6.5666                 6.6356                 6.6228
 IR Inten    --     12.3180                21.3268                 3.5138

                     79                     80                     81
                      A                      A                      A
 Frequencies --   3213.6522              3231.3737              3722.1948
 Red. masses --      1.0976                 1.0918                 1.0661
 Frc consts  --      6.6789                 6.7166                 8.7023
 IR Inten    --      6.7485                 4.6485                54.0126

 - Thermochemistry -
 -------------------
 Temperature   298.150 Kelvin.  Pressure   1.00000 Atm.
 Atom     1 has atomic number  6 and mass  12.00000

 Molecular mass:   245.06881 amu.
 Principal axes and moments of inertia in atomic units:
                           1         2         3
     Eigenvalues --  3149.085064447.269236626.91425
           X            0.99998   0.00589  -0.00164
           Y           -0.00591   0.99995  -0.00841
           Z            0.00159   0.00842   0.99996
 This molecule is an asymmetric top.
 Rotational symmetry number  1.
 Warning -- assumption of classical behavior for rotation
           may cause significant error
 Rotational temperatures (Kelvin)      0.02750     0.01948     0.01307
 Rotational constants (GHZ):           0.57310     0.40581     0.27234
 Zero-point vibrational energy     580622.2 (Joules/Mol)
                                  138.77204 (Kcal/Mol)
 Warning -- explicit consideration of  22 degrees of freedom as
           vibrations may cause significant error
 Vibrational temperatures:     34.25    43.44    68.88   101.08   149.02
          (Kelvin)            167.11   238.10   272.16   338.22   382.69
                              450.01   487.80   532.29   539.38   557.80
                              598.20   625.62   678.84   713.21   714.12
                              779.98   827.73   914.47   924.37   976.61
                             1024.82  1029.78  1090.34  1101.23  1175.98
                             1210.48  1245.21  1265.94  1305.06  1330.84
                             1337.72  1378.00  1398.31  1401.95  1421.83
                             1437.14  1470.22  1482.10  1496.64  1522.96
                             1563.92  1613.74  1709.80  1717.54  1748.52
                             1767.95  1772.70  1778.98  1820.09  1921.55
                             1931.97  1942.87  1968.73  1969.91  2015.95
                             2142.16  2159.15  2189.45  2190.95  2226.59
                             2359.50  2368.70  2381.38  2397.56  2648.48
                             4412.18  4482.75  4579.42  4590.10  4590.55
                             4599.82  4615.71  4616.63  4623.73  4649.23
                             5355.41

 Zero-point correction=                           0.221147 (Hartree/Particle)
 Thermal correction to Energy=                    0.236171
 Thermal correction to Enthalpy=                  0.237116
 Thermal correction to Gibbs Free Energy=         0.177047
 Sum of electronic and zero-point Energies=           -857.393099
 Sum of electronic and thermal Energies=              -857.378075
 Sum of electronic and thermal Enthalpies=            -857.377131
 Sum of electronic and thermal Free Energies=         -857.437199

                     E (Thermal)             CV                S
                      KCal/Mol        Cal/Mol-Kelvin    Cal/Mol-Kelvin
 Total                  148.200             57.765            126.426
 Electronic               0.000              0.000              0.000
 Translational            0.889              2.981             42.390
 Rotational               0.889              2.981             32.895
 Vibrational            146.422             51.803             51.141
 Vibration     1          0.593              1.985              6.288
 Vibration     2          0.594              1.984              5.817
 Vibration     3          0.595              1.978              4.903
 Vibration     4          0.598              1.968              4.146
 Vibration     5          0.605              1.946              3.386
 Vibration     6          0.608              1.936              3.164
 Vibration     7          0.624              1.885              2.486
 Vibration     8          0.633              1.855              2.236
 Vibration     9          0.655              1.787              1.840
 Vibration    10          0.672              1.735              1.622
 Vibration    11          0.701              1.649              1.348
 Vibration    12          0.719              1.597              1.217
 Vibration    13          0.742              1.534              1.080
 Vibration    14          0.746              1.524              1.060
 Vibration    15          0.756              1.496              1.009
 Vibration    16          0.779              1.436              0.906
 Vibration    17          0.795              1.394              0.843
 Vibration    18          0.829              1.313              0.732
 Vibration    19          0.851              1.260              0.669
 Vibration    20          0.852              1.258              0.667
 Vibration    21          0.897              1.157              0.561
 Vibration    22          0.932              1.085              0.494

 Optimization completed.
    -- Stationary point found.
 Normal termination of Gaussian 16 at Fri Dec 11 21:54:46 2020.

 ----------------------------------------------------------------------
 # B3LYP/6-311++G(d,p) empiricaldispersion=gd3bj scf=xqc pop=npa geom=c
 heck
 ----------------------------------------------------------------------

 ---------------------------------------
 CID_151636597_JID_8526_Energie_neutraal
 ---------------------------------------
 Structure from the checkpoint file:  "JID_8526.chk"
 Charge =  0 Multiplicity = 1

 SCF Done:  E(RB3LYP) =  -857.855189754     A.U. after   16 cycles
 Normal termination of Gaussian 16 at Fri Dec 11 22:00:04 2020.

 ----------------------------------------------------------------------
 # B3LYP/6-311++G(d,p) empiricaldispersion=gd3bj scf=xqc pop=npa geom=c
 heck
 ----------------------------------------------------------------------

 -------------------------------------
 CID_151636597_JID_8526_Energie_kation
 -------------------------------------
 Structure from the checkpoint file:  "JID_8526.chk"
 Charge =  1 Multiplicity = 2

 SCF Done:  E(UB3LYP) =  -857.529608541     A.U. after   33 cycles
 SCF Done:  E(UB3LYP) =  -857.529608541     a.u. after    1 cycles
 Normal termination of Gaussian 16 at Fri Dec 11 22:16:14 2020.
 Gaussian 16:  ES64L-G16RevA.03 25-Dec-2016

 ----------------------------------------------------------------------
 # B3LYP/6-311++G(d,p) empiricaldispersion=gd3bj scf=xqc pop=npa geom=c
 heck
 ----------------------------------------------------------------------

 ------------------------------------
 CID_151636597_JID_8526_Energie_anion
 ------------------------------------
 Structure from the checkpoint file:  "JID_8526.chk"
 Charge = -1 Multiplicity = 2

                         Standard orientation:
 ---------------------------------------------------------------------
 Center     Atomic      Atomic             Coordinates (Angstroms)
 Number     Number       Type             X           Y           Z
 ---------------------------------------------------------------------
      1          6           0        1.704634    2.707602    0.320829
      2          6           0        2.345204    2.105540   -0.769025
      3          6           0        2.632515    0.742612   -0.746097
      4          6           0        2.276361   -0.037672    0.361432
      5          6           0        1.638138    0.569646    1.445635
      6          6           0        1.356985    1.937846    1.431089
      7          6           0        2.486805   -1.532247    0.349739
      8          8           0        1.911822   -2.170781   -0.810420
      9          8           0        0.609668   -1.578348   -1.041985
     10          6           0       -0.335099   -1.966509   -0.121337
     11          8           0       -0.238247   -2.915839    0.615434
     12          6           0       -1.443372   -0.976152   -0.144302
     13          6           0       -1.202271    0.354353   -0.500853
     14          6           0       -2.238477    1.271477   -0.365253
     15          6           0       -3.487691    0.809055    0.074695
     16          7           0       -3.724269   -0.464837    0.397807
     17          6           0       -2.716411   -1.338272    0.307996
     18          8           0       -2.092252    2.599125   -0.630274
     19          1           0        1.492299    3.773498    0.307624
     20          1           0        2.622082    2.701455   -1.634187
     21          1           0        3.105378    0.268260   -1.601192
     22          1           0        1.338032   -0.035545    2.297042
     23          1           0        0.856325    2.395928    2.278895
     24          1           0        3.543349   -1.807477    0.251837
     25          1           0        2.083485   -1.989978    1.258762
     26          1           0       -0.220825    0.665702   -0.839900
     27          1           0       -4.311133    1.512937    0.173275
     28          1           0       -2.916806   -2.363611    0.605463
     29          1           0       -1.154153    2.775757   -0.811593
 ---------------------------------------------------------------------

 SCF Done:  E(UB3LYP) =  -857.876009328     A.U. after   25 cycles

 The electronic state is 2-A.
 Alpha  occ. eigenvalues --  -19.05735 -19.05494 -19.03803 -18.95530 -14.17179
 Alpha  occ. eigenvalues --  -10.13779 -10.11087 -10.10336 -10.07835 -10.07576
 Alpha  occ. eigenvalues --  -10.07446 -10.07292 -10.07163 -10.06749 -10.05966
 Alpha  occ. eigenvalues --  -10.05348 -10.04155 -10.03946  -1.01367  -0.94786
 Alpha  occ. eigenvalues --   -0.90076  -0.81086  -0.80106  -0.75590  -0.67020
 Alpha  occ. eigenvalues --   -0.65955  -0.64658  -0.62502  -0.57431  -0.52205
 Alpha  occ. eigenvalues --   -0.51065  -0.50736  -0.48771  -0.44892  -0.41851
 Alpha  occ. eigenvalues --   -0.40268  -0.38541  -0.37801  -0.37061  -0.36710
 Alpha  occ. eigenvalues --   -0.35105  -0.34402  -0.33713  -0.32309  -0.31234
 Alpha  occ. eigenvalues --   -0.30093  -0.29787  -0.28761  -0.27941  -0.27139
 Alpha  occ. eigenvalues --   -0.25953  -0.25612  -0.24605  -0.24053  -0.23405
 Alpha  occ. eigenvalues --   -0.23182  -0.18364  -0.16179  -0.16160  -0.15221
 Alpha  occ. eigenvalues --   -0.14659  -0.13817  -0.11982  -0.10828   0.03567
 Alpha virt. eigenvalues --    0.06945   0.07438   0.08451   0.08892   0.09144
 Alpha virt. eigenvalues --    0.10364   0.10680   0.10966   0.11413   0.11885
 Alpha virt. eigenvalues --    0.12188   0.12975   0.13777   0.14213   0.14639

  Beta  occ. eigenvalues --  -19.05583 -19.05309 -19.03813 -18.95205 -14.17212
  Beta  occ. eigenvalues --  -10.13551 -10.11058 -10.10415 -10.07861 -10.07531
  Beta  occ. eigenvalues --  -10.07377 -10.07309 -10.07094 -10.06639 -10.05880
  Beta  occ. eigenvalues --  -10.05029 -10.04035 -10.03731  -1.00908  -0.94805
  Beta  occ. eigenvalues --   -0.89491  -0.80737  -0.79912  -0.75459  -0.66697
  Beta  occ. eigenvalues --   -0.65726  -0.64523  -0.62140  -0.57186  -0.51651
  Beta  occ. eigenvalues --   -0.50870  -0.50666  -0.48548  -0.44667  -0.41742
  Beta  occ. eigenvalues --   -0.40128  -0.38370  -0.37586  -0.36758  -0.36490
  Beta  occ. eigenvalues --   -0.34939  -0.34210  -0.33386  -0.32253  -0.31072
  Beta  occ. eigenvalues --   -0.29773  -0.29554  -0.28419  -0.27774  -0.26682
  Beta  occ. eigenvalues --   -0.25621  -0.25341  -0.24535  -0.23845  -0.23178
  Beta  occ. eigenvalues --   -0.22671  -0.17611  -0.15789  -0.15597  -0.14611
  Beta  occ. eigenvalues --   -0.14033  -0.13233  -0.11858  -0.09800
  Beta virt. eigenvalues --    0.06985   0.07812   0.08421   0.08814   0.09017
  Beta virt. eigenvalues --    0.09761   0.10339   0.10633   0.11234   0.11560
  Beta virt. eigenvalues --    0.11939   0.12194   0.13260   0.13743   0.14331

 Mulliken charges and spin densities:
               1          2
     1  C   -0.321703   0.062382
     2  C   -0.374869  -0.014849
     3  C   -0.102155   0.073069
     4  C    0.662946   0.028978
     5  C   -0.105856  -0.035973
     6  C   -0.353538   0.063203
     7  C   -0.896693   0.048794
     8  O   -0.026540  -0.003216
     9  O    0.117224   0.069571
    10  C   -0.731262   0.135771
    11  O   -0.316549   0.105816
    12  C    0.133239   0.037262
    13  C    1.329843   0.223390
    14  C   -0.811588  -0.051502
    15  C   -0.215372   0.221424
    16  N   -0.081157  -0.025491
    17  C   -0.587347   0.073015
    18  O   -0.245318  -0.000341
    19  H    0.136798  -0.003610
    20  H    0.132325   0.012991
    21  H    0.170846   0.004964
    22  H    0.164156   0.006277
    23  H    0.154897  -0.004249
    24  H    0.140403   0.000840
    25  H    0.193792  -0.001268
    26  H    0.233594  -0.019160
    27  H    0.153712  -0.019369
    28  H    0.177346  -0.003781
    29  H    0.268825   0.015062
 Sum of Mulliken charges =  -1.00000   1.00000

 Dipole moment (field-independent basis, Debye):
    X=              5.5214    Y=              4.7012    Z=              0.0458  Tot=              7.2518
 Quadrupole moment (field-independent basis, Debye-Ang):
   XX=           -146.1290   YY=           -133.8125   ZZ=           -112.4755
   XY=              0.7974   XZ=              1.9041   YZ=             -0.7814

 Summary of Natural Population Analysis:

                                       Natural Population
                Natural  -----------------------------------------------
    Atom  No    Charge         Core      Valence    Rydberg      Total
 -----------------------------------------------------------------------
      C    1   -0.10444      0.99957     2.09488    0.00999     3.10444
      C    2   -0.11299      0.99957     2.10412    0.00930     3.11299
      C    3   -0.07549      0.99951     2.06721    0.00876     3.07549
      C    4   -0.02471      0.99950     2.01488    0.01033     3.02471
      C    5   -0.09593      0.99952     2.08772    0.00869     3.09593
      C    6   -0.09075      0.99957     2.08159    0.00960     3.09075
      C    7   -0.02211      0.99955     2.01139    0.01117     3.02211
      O    8   -0.14172      0.99990     3.13210    0.00971     4.14172
      O    9   -0.14653      0.99987     3.13689    0.00977     4.14653
      C   10    0.41508      0.99964     1.56009    0.02519     2.58492
      O   11   -0.27628      0.99987     3.27049    0.00592     4.27628
      C   12   -0.07063      0.99945     2.06237    0.00881     3.07063
      C   13   -0.06780      0.99949     2.06010    0.00821     3.06780
      C   14    0.11756      0.99938     1.87127    0.01179     2.88244
      C   15    0.05835      0.99956     1.92708    0.01500     2.94165
      N   16   -0.24716      0.99972     2.73449    0.01295     3.74716
      C   17    0.04487      0.99956     1.94116    0.01441     2.95513
      O   18   -0.34922      0.99987     3.34213    0.00721     4.34922
      H   19    0.09542      0.00000     0.40360    0.00098     0.40458
      H   20    0.09595      0.00000     0.40304    0.00101     0.40405
      H   21    0.10068      0.00000     0.39777    0.00155     0.39932
      H   22    0.10250      0.00000     0.39647    0.00104     0.39750
      H   23    0.09800      0.00000     0.40101    0.00099     0.40200
      H   24    0.09336      0.00000     0.40552    0.00112     0.40664
      H   25    0.09284      0.00000     0.40556    0.00160     0.40716
      H   26    0.10644      0.00000     0.39139    0.00217     0.39356
      H   27    0.08052      0.00000     0.41784    0.00164     0.41948
      H   28    0.09063      0.00000     0.40800    0.00136     0.40937
      H   29    0.23355      0.00000     0.26289    0.00356     0.26645
 =======================================================================
   * Total *   -0.00000     17.99311    45.79306    0.21383    64.00000

 Normal termination of Gaussian 16 at Fri Dec 11 22:28:27 2020.
