 Gaussian 16, Revision A.03,

 -----------------------------------------------------------
 # opt freq B3LYP/6-31G(d) empiricaldispersion=gd3bj scf=xqc
 -----------------------------------------------------------

 -------------------------------
 CID_82907468_JID_10453_neutraal
 -------------------------------
 Symbolic Z-matrix:
 Charge =  0 Multiplicity = 1

 SCF Done:  E(RB3LYP) =  -1296.14491028     A.U. after   14 cycles
 SCF Done:  E(RB3LYP) =  -1296.15123298     A.U. after   12 cycles
 SCF Done:  E(RB3LYP) =  -1296.15244518     A.U. after   12 cycles
 SCF Done:  E(RB3LYP) =  -1296.15274859     A.U. after   12 cycles
 SCF Done:  E(RB3LYP) =  -1296.15307034     A.U. after   11 cycles
 SCF Done:  E(RB3LYP) =  -1296.15320097     A.U. after   11 cycles
 SCF Done:  E(RB3LYP) =  -1296.15325157     A.U. after   11 cycles
 SCF Done:  E(RB3LYP) =  -1296.15327325     A.U. after   10 cycles
 SCF Done:  E(RB3LYP) =  -1296.15329347     A.U. after   11 cycles
 SCF Done:  E(RB3LYP) =  -1296.15331406     A.U. after   11 cycles
 SCF Done:  E(RB3LYP) =  -1296.15354280     A.U. after   12 cycles
 SCF Done:  E(RB3LYP) =  -1296.15353061     A.U. after   11 cycles
 SCF Done:  E(RB3LYP) =  -1296.15354601     A.U. after   11 cycles
 SCF Done:  E(RB3LYP) =  -1296.15354692     A.U. after    8 cycles
 SCF Done:  E(RB3LYP) =  -1296.15354701     A.U. after    8 cycles
 Optimization completed.
    -- Stationary point found.
 Normal termination of Gaussian 16 at Sun Dec 13 13:18:54 2020.

 --------------------------------------------------------------------
 #N Geom=AllCheck Guess=TCheck SCRF=Check GenChk RB3LYP/6-31G(d) Freq
 --------------------------------------------------------------------

 Structure from the checkpoint file:  "JID_10453.chk"
 -------------------------------
 CID_82907468_JID_10453_neutraal
 -------------------------------
 Charge =  0 Multiplicity = 1

 SCF Done:  E(RB3LYP) =  -1296.15354701     A.U. after    1 cycles

  Exact polarizability: 230.929  -2.611 195.076 -11.228  -5.654 125.486
 Approx polarizability: 316.084 -15.038 306.798 -25.542 -18.534 196.098

                      1                      2                      3
                      A                      A                      A
 Frequencies --     17.5654                34.3278                42.4415
 Red. masses --      6.9955                 4.0487                 3.3541
 Frc consts  --      0.0013                 0.0028                 0.0036
 IR Inten    --      2.3778                 0.5908                 0.6440

                      4                      5                      6
                      A                      A                      A
 Frequencies --     48.1012                76.9886                93.5029
 Red. masses --      3.4260                 3.2285                 4.2465
 Frc consts  --      0.0047                 0.0113                 0.0219
 IR Inten    --      0.7776                 0.7978                 0.2575

                      7                      8                      9
                      A                      A                      A
 Frequencies --     99.0630               121.3307               155.3171
 Red. masses --      4.4038                 3.1353                 1.6879
 Frc consts  --      0.0255                 0.0272                 0.0240
 IR Inten    --      7.7684                 1.7488                21.9486

                     10                     11                     12
                      A                      A                      A
 Frequencies --    165.2271               179.3098               214.5226
 Red. masses --      5.1280                 2.9103                 1.7563
 Frc consts  --      0.0825                 0.0551                 0.0476
 IR Inten    --      0.9782                 3.3892                 0.1099

                     13                     14                     15
                      A                      A                      A
 Frequencies --    242.8154               255.4153               282.1772
 Red. masses --      2.3808                 2.5168                 5.1920
 Frc consts  --      0.0827                 0.0967                 0.2436
 IR Inten    --      0.6502                19.3795                 3.4787

                     16                     17                     18
                      A                      A                      A
 Frequencies --    305.0121               317.2979               342.9608
 Red. masses --      3.9732                 2.4349                 2.6473
 Frc consts  --      0.2178                 0.1444                 0.1835
 IR Inten    --      0.2712                 0.3480                 5.6527

                     19                     20                     21
                      A                      A                      A
 Frequencies --    349.7812               379.5961               388.1931
 Red. masses --      3.3515                 2.3550                 2.9557
 Frc consts  --      0.2416                 0.1999                 0.2624
 IR Inten    --      2.4382                 0.0539                 7.5800

                     22                     23                     24
                      A                      A                      A
 Frequencies --    416.4301               426.8088               444.8220
 Red. masses --      3.3566                 2.9479                 3.0421
 Frc consts  --      0.3430                 0.3164                 0.3546
 IR Inten    --      1.5257                 4.1809                 1.0822

                     25                     26                     27
                      A                      A                      A
 Frequencies --    458.2123               476.0320               482.7740
 Red. masses --      1.2777                 2.4702                 4.7331
 Frc consts  --      0.1581                 0.3298                 0.6500
 IR Inten    --     78.9554                13.6302                11.2888

                     28                     29                     30
                      A                      A                      A
 Frequencies --    505.8460               508.8032               522.8465
 Red. masses --      3.2446                 3.9349                 3.4257
 Frc consts  --      0.4892                 0.6002                 0.5518
 IR Inten    --      3.2045                20.6674                15.1556

                     31                     32                     33
                      A                      A                      A
 Frequencies --    551.2626               589.4744               607.7524
 Red. masses --      5.3451                 3.9246                 5.3931
 Frc consts  --      0.9570                 0.8035                 1.1737
 IR Inten    --    123.1772                 3.9366                 5.3916

                     34                     35                     36
                      A                      A                      A
 Frequencies --    665.5140               678.0647               699.0125
 Red. masses --      5.2021                 2.2354                 1.6946
 Frc consts  --      1.3575                 0.6055                 0.4879
 IR Inten    --      1.8054                29.5634               197.3394

                     37                     38                     39
                      A                      A                      A
 Frequencies --    710.0386               753.3320               764.9965
 Red. masses --      4.0978                 3.7074                 3.2569
 Frc consts  --      1.2172                 1.2396                 1.1230
 IR Inten    --    220.2975                52.6767                38.2801

                     40                     41                     42
                      A                      A                      A
 Frequencies --    805.9099               808.7297               828.6220
 Red. masses --      1.5683                 1.1592                 1.6646
 Frc consts  --      0.6002                 0.4467                 0.6734
 IR Inten    --      0.2715                 2.9927                31.8480

                     43                     44                     45
                      A                      A                      A
 Frequencies --    842.2751               864.0803               877.0849
 Red. masses --      3.0681                 2.8232                 1.4998
 Frc consts  --      1.2824                 1.2419                 0.6798
 IR Inten    --      9.4254                 9.2202                 7.4409

                     46                     47                     48
                      A                      A                      A
 Frequencies --    884.3292               899.6484               903.7819
 Red. masses --      2.0107                 2.1134                 2.2793
 Frc consts  --      0.9264                 1.0078                 1.0969
 IR Inten    --     61.1461                65.9556                29.8057

                     49                     50                     51
                      A                      A                      A
 Frequencies --    943.4360               945.4693               979.4205
 Red. masses --      1.2859                 2.4964                 2.7254
 Frc consts  --      0.6744                 1.3148                 1.5404
 IR Inten    --      1.6699                21.5549                10.8802

                     52                     53                     54
                      A                      A                      A
 Frequencies --   1014.1948              1031.6477              1049.1675
 Red. masses --      1.6193                 2.4019                 2.4773
 Frc consts  --      0.9814                 1.5061                 1.6067
 IR Inten    --      4.6201                21.1460                53.9070

                     55                     56                     57
                      A                      A                      A
 Frequencies --   1091.3298              1097.4884              1100.1018
 Red. masses --      1.8668                 2.1097                 2.8536
 Frc consts  --      1.3100                 1.4972                 2.0347
 IR Inten    --     21.4349                77.6706                45.8142

                     58                     59                     60
                      A                      A                      A
 Frequencies --   1107.9473              1121.0712              1139.6831
 Red. masses --      1.8280                 1.5956                 2.6245
 Frc consts  --      1.3221                 1.1815                 2.0085
 IR Inten    --     31.1933                 7.7328               190.1820

                     61                     62                     63
                      A                      A                      A
 Frequencies --   1145.5575              1152.4571              1155.3501
 Red. masses --      2.4675                 3.1299                 2.7574
 Frc consts  --      1.9078                 2.4492                 2.1686
 IR Inten    --     75.0558                11.4786               134.7545

                     64                     65                     66
                      A                      A                      A
 Frequencies --   1186.5686              1210.1134              1213.2269
 Red. masses --      1.2137                 1.5402                 1.4441
 Frc consts  --      1.0068                 1.3289                 1.2524
 IR Inten    --     14.2952                 7.1404                42.8323

                     67                     68                     69
                      A                      A                      A
 Frequencies --   1240.2877              1271.7524              1289.7249
 Red. masses --      1.9657                 1.4716                 1.3183
 Frc consts  --      1.7816                 1.4023                 1.2920
 IR Inten    --    104.8997                15.4285                 2.3509

                     70                     71                     72
                      A                      A                      A
 Frequencies --   1322.8708              1333.8780              1335.4946
 Red. masses --      2.0788                 5.0305                 2.0651
 Frc consts  --      2.1433                 5.2735                 2.1700
 IR Inten    --     56.1057               140.8683                27.9871

                     73                     74                     75
                      A                      A                      A
 Frequencies --   1342.0882              1375.7511              1382.5159
 Red. masses --      1.1558                 1.3528                 1.4334
 Frc consts  --      1.2266                 1.5085                 1.6142
 IR Inten    --     26.1154                25.1374                 2.2347

                     76                     77                     78
                      A                      A                      A
 Frequencies --   1386.4438              1394.7128              1401.9082
 Red. masses --      1.9248                 1.4998                 2.0419
 Frc consts  --      2.1799                 1.7189                 2.3644
 IR Inten    --     42.4688                17.5625                 5.2528

                     79                     80                     81
                      A                      A                      A
 Frequencies --   1410.1093              1419.2420              1429.4059
 Red. masses --      1.3839                 1.3114                 1.5519
 Frc consts  --      1.6213                 1.5563                 1.8682
 IR Inten    --     10.5762                 3.2748                11.1295

                     82                     83                     84
                      A                      A                      A
 Frequencies --   1439.2831              1444.2443              1466.2264
 Red. masses --      1.3022                 1.3343                 3.7896
 Frc consts  --      1.5893                 1.6397                 4.8000
 IR Inten    --      9.9380                16.2986                36.6140

                     85                     86                     87
                      A                      A                      A
 Frequencies --   1498.7567              1510.5577              1515.6599
 Red. masses --      1.0990                 1.0910                 1.0938
 Frc consts  --      1.4545                 1.4667                 1.4804
 IR Inten    --      3.7494                 7.1318                 8.8628

                     88                     89                     90
                      A                      A                      A
 Frequencies --   1518.9463              1522.6453              1529.4802
 Red. masses --      1.0444                 1.0551                 1.1267
 Frc consts  --      1.4197                 1.4412                 1.5529
 IR Inten    --      3.7460                 0.1911                 7.3455

                     91                     92                     93
                      A                      A                      A
 Frequencies --   1541.3961              1552.5499              1621.4166
 Red. masses --      1.0830                 2.7327                 1.3191
 Frc consts  --      1.5160                 3.8809                 2.0432
 IR Inten    --      2.0989               128.5315                22.4049

                     94                     95                     96
                      A                      A                      A
 Frequencies --   1627.7778              1640.2425              1679.0231
 Red. masses --      2.5479                 3.0624                 1.6276
 Frc consts  --      3.9776                 4.8543                 2.7035
 IR Inten    --     15.8820                13.1093               154.1292

                     97                     98                     99
                      A                      A                      A
 Frequencies --   3012.2055              3020.3905              3053.1085
 Red. masses --      1.0748                 1.0759                 1.0398
 Frc consts  --      5.7456                 5.7828                 5.7107
 IR Inten    --     39.2461                31.8396                12.7520

                    100                    101                    102
                      A                      A                      A
 Frequencies --   3054.4022              3055.7784              3061.8378
 Red. masses --      1.0576                 1.0660                 1.0639
 Frc consts  --      5.8133                 5.8647                 5.8766
 IR Inten    --     28.5462                27.0813                33.8322

                    103                    104                    105
                      A                      A                      A
 Frequencies --   3072.0834              3087.2093              3099.1522
 Red. masses --      1.0668                 1.0965                 1.0994
 Frc consts  --      5.9322                 6.1573                 6.2212
 IR Inten    --     21.2445                23.5382                32.3463

                    106                    107                    108
                      A                      A                      A
 Frequencies --   3102.9739              3118.7061              3120.1723
 Red. masses --      1.1012                 1.1018                 1.1012
 Frc consts  --      6.2471                 6.3142                 6.3165
 IR Inten    --     54.4149                30.7815                48.7159

                    109                    110                    111
                      A                      A                      A
 Frequencies --   3133.2182              3143.5145              3183.9564
 Red. masses --      1.1037                 1.1008                 1.0896
 Frc consts  --      6.3836                 6.4088                 6.5082
 IR Inten    --     34.4749                10.0375                19.3403

                    112                    113                    114
                      A                      A                      A
 Frequencies --   3236.6854              3256.7626              3473.4578
 Red. masses --      1.0923                 1.0890                 1.0472
 Frc consts  --      6.7420                 6.8055                 7.4437
 IR Inten    --      1.1884                 0.7956                20.9893

                    115                    116                    117
                      A                      A                      A
 Frequencies --   3516.1672              3583.0283              3633.6307
 Red. masses --      1.0490                 1.0965                 1.0965
 Frc consts  --      7.6414                 8.2941                 8.5298
 IR Inten    --     19.7817                20.8906                20.4766

 - Thermochemistry -
 -------------------
 Temperature   298.150 Kelvin.  Pressure   1.00000 Atm.
 Atom     1 has atomic number  6 and mass  12.00000

 Molecular mass:   299.13036 amu.
 Principal axes and moments of inertia in atomic units:
                           1         2         3
     Eigenvalues --  3461.55213********************
           X            0.99979   0.02029  -0.00141
           Y           -0.02028   0.99976   0.00857
           Z            0.00158  -0.00854   0.99996
 This molecule is an asymmetric top.
 Rotational symmetry number  1.
 Warning -- assumption of classical behavior for rotation
           may cause significant error
 Rotational temperatures (Kelvin)      0.02502     0.00791     0.00653
 Rotational constants (GHZ):           0.52137     0.16482     0.13607
 Zero-point vibrational energy     910564.5 (Joules/Mol)
                                  217.63014 (Kcal/Mol)
 Warning -- explicit consideration of  33 degrees of freedom as
           vibrations may cause significant error
 Vibrational temperatures:     25.27    49.39    61.06    69.21   110.77
          (Kelvin)            134.53   142.53   174.57   223.47   237.72
                              257.99   308.65   349.36   367.49   405.99
                              438.84   456.52   493.44   503.26   546.15
                              558.52   599.15   614.08   640.00   659.27
                              684.90   694.60   727.80   732.05   752.26
                              793.14   848.12   874.42   957.53   975.58
                             1005.72  1021.59  1083.88  1100.66  1159.52
                             1163.58  1192.20  1211.85  1243.22  1261.93
                             1272.35  1294.39  1300.34  1357.39  1360.32
                             1409.17  1459.20  1484.31  1509.52  1570.18
                             1579.04  1582.80  1594.09  1612.97  1639.75
                             1648.20  1658.13  1662.29  1707.21  1741.08
                             1745.56  1784.50  1829.77  1855.63  1903.32
                             1919.15  1921.48  1930.97  1979.40  1989.13
                             1994.78  2006.68  2017.03  2028.83  2041.97
                             2056.60  2070.81  2077.95  2109.57  2156.38
                             2173.36  2180.70  2185.42  2190.75  2200.58
                             2217.73  2233.77  2332.86  2342.01  2359.94
                             2415.74  4333.89  4345.67  4392.74  4394.60
                             4396.58  4405.30  4420.04  4441.81  4458.99
                             4464.49  4487.12  4489.23  4508.00  4522.82
                             4581.00  4656.87  4685.75  4997.53  5058.98
                             5155.18  5227.98

 Zero-point correction=                           0.346816 (Hartree/Particle)
 Thermal correction to Energy=                    0.366718
 Thermal correction to Enthalpy=                  0.367662
 Thermal correction to Gibbs Free Energy=         0.296963
 Sum of electronic and zero-point Energies=          -1295.806731
 Sum of electronic and thermal Energies=             -1295.786829
 Sum of electronic and thermal Enthalpies=           -1295.785885
 Sum of electronic and thermal Free Energies=        -1295.856584

                     E (Thermal)             CV                S
                      KCal/Mol        Cal/Mol-Kelvin    Cal/Mol-Kelvin
 Total                  230.119             76.966            148.799
 Electronic               0.000              0.000              0.000
 Translational            0.889              2.981             42.984
 Rotational               0.889              2.981             34.574
 Vibrational            228.341             71.004             71.241
 Vibration     1          0.593              1.986              6.892
 Vibration     2          0.594              1.983              5.562
 Vibration     3          0.595              1.980              5.142
 Vibration     4          0.595              1.978              4.894
 Vibration     5          0.599              1.965              3.966
 Vibration     6          0.603              1.954              3.585
 Vibration     7          0.604              1.950              3.473
 Vibration     8          0.609              1.931              3.079
 Vibration     9          0.620              1.897              2.606
 Vibration    10          0.624              1.885              2.489
 Vibration    11          0.629              1.868              2.336
 Vibration    12          0.644              1.819              2.005
 Vibration    13          0.659              1.775              1.782
 Vibration    14          0.666              1.754              1.693
 Vibration    15          0.681              1.707              1.520
 Vibration    16          0.696              1.664              1.389
 Vibration    17          0.704              1.641              1.324
 Vibration    18          0.722              1.590              1.198
 Vibration    19          0.727              1.576              1.167
 Vibration    20          0.750              1.514              1.041
 Vibration    21          0.756              1.495              1.007
 Vibration    22          0.780              1.435              0.904
 Vibration    23          0.788              1.412              0.869
 Vibration    24          0.804              1.372              0.812
 Vibration    25          0.816              1.343              0.771
 Vibration    26          0.833              1.303              0.721
 Vibration    27          0.839              1.288              0.703
 Vibration    28          0.861              1.237              0.644
 Vibration    29          0.864              1.230              0.636
 Vibration    30          0.878              1.199              0.603
 Vibration    31          0.907              1.137              0.542
 Vibration    32          0.947              1.054              0.468
 Vibration    33          0.967              1.015              0.437

 Optimization completed.
    -- Stationary point found.
 Normal termination of Gaussian 16 at Sun Dec 13 13:40:13 2020.

 ----------------------------------------------------------------------
 # B3LYP/6-311++G(d,p) empiricaldispersion=gd3bj scf=xqc pop=npa geom=c
 heck
 ----------------------------------------------------------------------

 ---------------------------------------
 CID_82907468_JID_10453_Energie_neutraal
 ---------------------------------------
 Structure from the checkpoint file:  "JID_10453.chk"
 Charge =  0 Multiplicity = 1

 SCF Done:  E(RB3LYP) =  -1296.44172954     A.U. after   16 cycles
 Normal termination of Gaussian 16 at Sun Dec 13 13:51:09 2020.

 ----------------------------------------------------------------------
 # B3LYP/6-311++G(d,p) empiricaldispersion=gd3bj scf=xqc pop=npa geom=c
 heck
 ----------------------------------------------------------------------

 -------------------------------------
 CID_82907468_JID_10453_Energie_kation
 -------------------------------------
 Structure from the checkpoint file:  "JID_10453.chk"
 Charge =  1 Multiplicity = 2

 SCF Done:  E(UB3LYP) =  -1296.17133034     A.U. after   24 cycles
 Normal termination of Gaussian 16 at Sun Dec 13 14:14:21 2020.
 Gaussian 16:  ES64L-G16RevA.03 25-Dec-2016

 ----------------------------------------------------------------------
 # B3LYP/6-311++G(d,p) empiricaldispersion=gd3bj scf=xqc pop=npa geom=c
 heck
 ----------------------------------------------------------------------

 ------------------------------------
 CID_82907468_JID_10453_Energie_anion
 ------------------------------------
 Structure from the checkpoint file:  "JID_10453.chk"
 Charge = -1 Multiplicity = 2

                         Standard orientation:
 ---------------------------------------------------------------------
 Center     Atomic      Atomic             Coordinates (Angstroms)
 Number     Number       Type             X           Y           Z
 ---------------------------------------------------------------------
      1          6           0       -5.971134   -1.586319   -0.725940
      2          6           0       -5.154601   -1.090858    0.464206
      3          8           0       -4.162535   -0.147734    0.078812
      4          6           0       -2.937209   -0.717750   -0.391803
      5          6           0       -2.004607   -1.048078    0.782461
      6          6           0       -1.538844    0.233176    1.498205
      7          7           0       -0.991888    1.271337    0.616566
      8          6           0       -1.909358    1.576348   -0.502337
      9          6           0       -2.285227    0.324189   -1.302038
     10          6           0        0.385120    1.215709    0.283640
     11          6           0        1.031410    2.452068   -0.016813
     12          6           0        2.393832    2.467654   -0.340161
     13          6           0        3.147127    1.297830   -0.332362
     14          6           0        2.520216    0.103551    0.008150
     15          6           0        1.155555    0.057276    0.310314
     16         16           0        3.455675   -1.400932    0.060653
     17          8           0        4.871927   -1.059306   -0.125996
     18          8           0        3.015588   -2.218059    1.196745
     19          7           0        2.871663   -2.236552   -1.308354
     20          7           0        0.280225    3.619219    0.008148
     21          1           0       -6.438562   -0.741004   -1.240905
     22          1           0       -6.759167   -2.272294   -0.393820
     23          1           0       -5.343540   -2.120435   -1.447827
     24          1           0       -5.802592   -0.568331    1.176176
     25          1           0       -4.699320   -1.937598    0.999513
     26          1           0       -3.149111   -1.631482   -0.965451
     27          1           0       -2.517634   -1.695153    1.504392
     28          1           0       -1.154220   -1.621060    0.396896
     29          1           0       -2.408228    0.671993    2.002155
     30          1           0       -0.793161    0.004022    2.264617
     31          1           0       -1.441535    2.323349   -1.146031
     32          1           0       -2.818684    2.017177   -0.079110
     33          1           0       -1.384454   -0.106080   -1.757662
     34          1           0       -2.979120    0.588367   -2.107913
     35          1           0        2.871269    3.417752   -0.566216
     36          1           0        4.207292    1.308795   -0.556609
     37          1           0        0.713011   -0.893305    0.574781
     38          1           0        3.440940   -2.000780   -2.120617
     39          1           0        2.950289   -3.233669   -1.109142
     40          1           0        0.817252    4.467274    0.141188
     41          1           0       -0.515046    3.551351    0.636989
 ---------------------------------------------------------------------

 SCF Done:  E(UB3LYP) =  -1296.43505172     A.U. after   33 cycles
 SCF Done:  E(UB3LYP) =  -1296.43505172     a.u. after    1 cycles

 The electronic state is 2-A.
 Alpha  occ. eigenvalues --  -88.96884 -19.03824 -19.02341 -19.02230 -14.24845
 Alpha  occ. eigenvalues --  -14.23156 -14.22815 -10.13849 -10.13583 -10.12509
 Alpha  occ. eigenvalues --  -10.11992 -10.11122 -10.10729 -10.10347 -10.09286
 Alpha  occ. eigenvalues --  -10.08910 -10.08405 -10.08305 -10.08224 -10.08093
 Alpha  occ. eigenvalues --   -8.03069  -5.99367  -5.99316  -5.99138  -1.02457
 Alpha  occ. eigenvalues --   -0.95215  -0.91561  -0.86433  -0.82378  -0.81594
 Alpha  occ. eigenvalues --   -0.76184  -0.71678  -0.67527  -0.66793  -0.66442
 Alpha  occ. eigenvalues --   -0.65103  -0.57739  -0.57057  -0.55697  -0.53821
 Alpha  occ. eigenvalues --   -0.52101  -0.49775  -0.47178  -0.44513  -0.43855
 Alpha  occ. eigenvalues --   -0.42956  -0.42457  -0.42081  -0.41074  -0.39646
 Alpha  occ. eigenvalues --   -0.38789  -0.37783  -0.36687  -0.36251  -0.35727
 Alpha  occ. eigenvalues --   -0.35072  -0.34272  -0.33376  -0.32664  -0.31937
 Alpha  occ. eigenvalues --   -0.30764  -0.30652  -0.29690  -0.29321  -0.28883
 Alpha  occ. eigenvalues --   -0.27727  -0.26765  -0.26465  -0.25710  -0.25081
 Alpha  occ. eigenvalues --   -0.24150  -0.23337  -0.22953  -0.22587  -0.21633
 Alpha  occ. eigenvalues --   -0.19758  -0.18550  -0.17615  -0.14169  -0.11437
 Alpha  occ. eigenvalues --    0.03531
 Alpha virt. eigenvalues --    0.04880   0.05336   0.06062   0.06907   0.07375
 Alpha virt. eigenvalues --    0.07454   0.07756   0.08415   0.09266   0.09375
 Alpha virt. eigenvalues --    0.09756   0.10292   0.10363   0.10938   0.11474

  Beta  occ. eigenvalues --  -88.96874 -19.03819 -19.02325 -19.02220 -14.24787
  Beta  occ. eigenvalues --  -14.23159 -14.22755 -10.13842 -10.13567 -10.12413
  Beta  occ. eigenvalues --  -10.12017 -10.11114 -10.10725 -10.10314 -10.09276
  Beta  occ. eigenvalues --  -10.08843 -10.08399 -10.08295 -10.08221 -10.08063
  Beta  occ. eigenvalues --   -8.03059  -5.99346  -5.99306  -5.99132  -1.02421
  Beta  occ. eigenvalues --   -0.95206  -0.91537  -0.86404  -0.82300  -0.81483
  Beta  occ. eigenvalues --   -0.76106  -0.71661  -0.67511  -0.66750  -0.66333
  Beta  occ. eigenvalues --   -0.65047  -0.57655  -0.56969  -0.55669  -0.53782
  Beta  occ. eigenvalues --   -0.52019  -0.49716  -0.47133  -0.44469  -0.43783
  Beta  occ. eigenvalues --   -0.42896  -0.42397  -0.42007  -0.41034  -0.39603
  Beta  occ. eigenvalues --   -0.38773  -0.37752  -0.36663  -0.36214  -0.35703
  Beta  occ. eigenvalues --   -0.35024  -0.34229  -0.33342  -0.32636  -0.31865
  Beta  occ. eigenvalues --   -0.30723  -0.30613  -0.29627  -0.29219  -0.28852
  Beta  occ. eigenvalues --   -0.27694  -0.26705  -0.26439  -0.25687  -0.25023
  Beta  occ. eigenvalues --   -0.24076  -0.23215  -0.22929  -0.22527  -0.21590
  Beta  occ. eigenvalues --   -0.19672  -0.18467  -0.17593  -0.13994  -0.11265
  Beta virt. eigenvalues --    0.05410   0.05999   0.06313   0.06578   0.07109
  Beta virt. eigenvalues --    0.07594   0.07703   0.07914   0.08776   0.09347
  Beta virt. eigenvalues --    0.09612   0.09897   0.10325   0.10702   0.11038

 Mulliken charges and spin densities:
               1          2
     1  C    0.499712  -0.916411
     2  C   -0.030474  -0.062753
     3  O   -0.019838   0.009106
     4  C   -0.661522   0.185121
     5  C    0.274556  -0.292561
     6  C    0.150177  -0.430411
     7  N    0.359038  -0.045808
     8  C   -0.460906   0.143582
     9  C   -0.063032  -0.394671
    10  C   -1.824936   1.102660
    11  C    0.077803   0.015926
    12  C    0.647885  -0.676234
    13  C   -0.166478  -0.085380
    14  C    0.703752  -0.529771
    15  C   -0.282781  -0.012239
    16  S    0.859506  -0.764278
    17  O   -0.161766   0.002622
    18  O   -0.280969   0.018299
    19  N   -0.289800  -0.054041
    20  N   -0.384081   0.037443
    21  H    0.053843   0.088670
    22  H   -0.277052   0.412928
    23  H   -0.165922   0.296557
    24  H   -0.146458   0.296221
    25  H   -0.054598   0.149541
    26  H    0.032180   0.161742
    27  H    0.117724   0.059235
    28  H   -0.036604   0.191514
    29  H    0.086664   0.114539
    30  H    0.090099   0.112659
    31  H    0.215735  -0.026354
    32  H    0.073556   0.120999
    33  H    0.110312   0.034901
    34  H    0.139870   0.052865
    35  H   -0.278334   0.435075
    36  H    0.180643   0.034640
    37  H    0.130859  -0.109384
    38  H    0.031109   0.243728
    39  H    0.018571   0.266186
    40  H   -0.202017   0.471713
    41  H   -0.066025   0.341822
 Sum of Mulliken charges =  -1.00000   1.00000

 Dipole moment (field-independent basis, Debye):
    X=             -0.7778    Y=             -0.1946    Z=             -1.3486  Tot=              1.5690
 Quadrupole moment (field-independent basis, Debye-Ang):
   XX=           -235.0420   YY=           -191.7904   ZZ=           -154.7696
   XY=             -4.9383   XZ=             -6.2393   YZ=             -2.2604

 Summary of Natural Population Analysis:

                                       Natural Population
                Natural  -----------------------------------------------
    Atom  No    Charge         Core      Valence    Rydberg      Total
 -----------------------------------------------------------------------
      C    1   -0.29772      0.99967     2.29372    0.00434     3.29772
      C    2   -0.00931      0.99959     1.99722    0.01250     3.00931
      O    3   -0.31355      0.99988     3.30322    0.01045     4.31355
      C    4    0.06716      0.99954     1.91948    0.01382     2.93284
      C    5   -0.21145      0.99960     2.20355    0.00830     3.21145
      C    6   -0.08602      0.99961     2.07626    0.01014     3.08602
      N    7   -0.27683      0.99969     2.76415    0.01299     3.77683
      C    8   -0.08851      0.99959     2.07850    0.01042     3.08851
      C    9   -0.20500      0.99960     2.19757    0.00783     3.20500
      C   10    0.06499      0.99943     1.92346    0.01212     2.93501
      C   11    0.10660      0.99947     1.88226    0.01167     2.89340
      C   12   -0.12631      0.99953     2.11683    0.00995     3.12631
      C   13   -0.09152      0.99951     2.08243    0.00958     3.09152
      C   14   -0.15526      0.99937     2.14170    0.01419     3.15526
      C   15   -0.09049      0.99946     2.08266    0.00837     3.09049
      S   16    1.09413      4.99924     1.80565    0.10098     6.90587
      O   17   -0.46804      0.99991     3.46273    0.00540     4.46804
      O   18   -0.46726      0.99991     3.46164    0.00571     4.46726
      N   19   -0.51116      0.99979     3.00066    0.01072     4.01116
      N   20   -0.39320      0.99971     2.88315    0.01033     3.89320
      H   21    0.09907      0.00000     0.39960    0.00133     0.40093
      H   22    0.10047      0.00000     0.39805    0.00148     0.39953
      H   23    0.09756      0.00000     0.40115    0.00129     0.40244
      H   24    0.08761      0.00000     0.41123    0.00117     0.41239
      H   25    0.07852      0.00000     0.42001    0.00148     0.42148
      H   26    0.08610      0.00000     0.41182    0.00208     0.41390
      H   27    0.10136      0.00000     0.39750    0.00113     0.39864
      H   28    0.10006      0.00000     0.39865    0.00129     0.39994
      H   29    0.09881      0.00000     0.39983    0.00136     0.40119
      H   30    0.10278      0.00000     0.39630    0.00091     0.39722
      H   31    0.10677      0.00000     0.39189    0.00134     0.39323
      H   32    0.09872      0.00000     0.39988    0.00139     0.40128
      H   33    0.10270      0.00000     0.39624    0.00106     0.39730
      H   34    0.10375      0.00000     0.39518    0.00107     0.39625
      H   35    0.10215      0.00000     0.39690    0.00095     0.39785
      H   36    0.11423      0.00000     0.38477    0.00100     0.38577
      H   37    0.11099      0.00000     0.38739    0.00162     0.38901
      H   38    0.19048      0.00000     0.30742    0.00209     0.30952
      H   39    0.19362      0.00000     0.30348    0.00290     0.30638
      H   40    0.18962      0.00000     0.30550    0.00489     0.31038
      H   41    0.19338      0.00000     0.30412    0.00251     0.30662
 =======================================================================
   * Total *   -0.00000     23.99208    55.68376    0.32416    80.00000

 Normal termination of Gaussian 16 at Sun Dec 13 14:46:28 2020.
