 Gaussian 16, Revision A.03,

 -----------------------------------------------------------
 # opt freq B3LYP/6-31G(d) empiricaldispersion=gd3bj scf=xqc
 -----------------------------------------------------------

 ------------------------------
 CID_83481699_JID_3316_neutraal
 ------------------------------
 Symbolic Z-matrix:
 Charge =  0 Multiplicity = 1

 SCF Done:  E(RB3LYP) =  -537.145862034     A.U. after   14 cycles
 SCF Done:  E(RB3LYP) =  -537.150272886     A.U. after   12 cycles
 SCF Done:  E(RB3LYP) =  -537.150601851     A.U. after   11 cycles
 SCF Done:  E(RB3LYP) =  -537.150661629     A.U. after   11 cycles
 SCF Done:  E(RB3LYP) =  -537.150707858     A.U. after   11 cycles
 SCF Done:  E(RB3LYP) =  -537.150721874     A.U. after    9 cycles
 SCF Done:  E(RB3LYP) =  -537.150733903     A.U. after   10 cycles
 SCF Done:  E(RB3LYP) =  -537.150738394     A.U. after    9 cycles
 SCF Done:  E(RB3LYP) =  -537.150743689     A.U. after   10 cycles
 SCF Done:  E(RB3LYP) =  -537.150745052     A.U. after    8 cycles
 SCF Done:  E(RB3LYP) =  -537.150746272     A.U. after    8 cycles
 SCF Done:  E(RB3LYP) =  -537.150746856     A.U. after    7 cycles
 SCF Done:  E(RB3LYP) =  -537.150748798     A.U. after    9 cycles
 SCF Done:  E(RB3LYP) =  -537.150749726     A.U. after    9 cycles
 SCF Done:  E(RB3LYP) =  -537.150749954     A.U. after    8 cycles
 Optimization completed.
    -- Stationary point found.
 Normal termination of Gaussian 16 at Wed Dec  9 22:54:21 2020.

 --------------------------------------------------------------------
 #N Geom=AllCheck Guess=TCheck SCRF=Check GenChk RB3LYP/6-31G(d) Freq
 --------------------------------------------------------------------

 Structure from the checkpoint file:  "JID_3316.chk"
 ------------------------------
 CID_83481699_JID_3316_neutraal
 ------------------------------
 Charge =  0 Multiplicity = 1

 SCF Done:  E(RB3LYP) =  -537.150749954     A.U. after    1 cycles

  Exact polarizability: 186.087   5.342 134.534  -5.865   3.453  66.197
 Approx polarizability: 274.422   7.253 221.661 -12.950   7.375 100.681

                      1                      2                      3
                      A                      A                      A
 Frequencies --     64.0539                68.5153                81.9934
 Red. masses --      2.1171                 2.2489                 1.8886
 Frc consts  --      0.0051                 0.0062                 0.0075
 IR Inten    --      0.3129                 3.4631                 1.4101

                      4                      5                      6
                      A                      A                      A
 Frequencies --    141.9490               151.4055               168.3768
 Red. masses --      3.1287                 2.2721                 1.1000
 Frc consts  --      0.0371                 0.0307                 0.0184
 IR Inten    --      1.9021                 1.2829                 0.7194

                      7                      8                      9
                      A                      A                      A
 Frequencies --    211.3378               226.0386               260.7809
 Red. masses --      2.4592                 1.5544                 2.4554
 Frc consts  --      0.0647                 0.0468                 0.0984
 IR Inten    --      6.0357                23.2856                23.3321

                     10                     11                     12
                      A                      A                      A
 Frequencies --    319.1141               335.8028               353.6277
 Red. masses --      3.8102                 2.3048                 3.1823
 Frc consts  --      0.2286                 0.1531                 0.2345
 IR Inten    --      0.6332                 6.5486                 0.3331

                     13                     14                     15
                      A                      A                      A
 Frequencies --    410.4937               454.0175               464.4988
 Red. masses --      3.7115                 3.3887                 4.2000
 Frc consts  --      0.3685                 0.4115                 0.5339
 IR Inten    --      1.6290                 2.7946                 2.0900

                     16                     17                     18
                      A                      A                      A
 Frequencies --    521.6018               583.4371               598.7189
 Red. masses --      4.0605                 3.1657                 4.1971
 Frc consts  --      0.6509                 0.6349                 0.8864
 IR Inten    --      5.1499                 0.7635                 2.2112

                     19                     20                     21
                      A                      A                      A
 Frequencies --    652.9475               696.4583               725.1425
 Red. masses --      4.4060                 2.7375                 1.6699
 Frc consts  --      1.1068                 0.7823                 0.5173
 IR Inten    --      8.8653                20.4918                20.5325

                     22                     23                     24
                      A                      A                      A
 Frequencies --    752.3929               778.4783               816.8288
 Red. masses --      4.7194                 3.2859                 4.8676
 Frc consts  --      1.5741                 1.1733                 1.9135
 IR Inten    --      2.0631                 4.1813                 5.3405

                     25                     26                     27
                      A                      A                      A
 Frequencies --    832.7019               850.6431               854.0764
 Red. masses --      1.2931                 1.6207                 2.3419
 Frc consts  --      0.5283                 0.6910                 1.0065
 IR Inten    --      2.0598                30.3449                 1.0637

                     28                     29                     30
                      A                      A                      A
 Frequencies --    873.9487               902.5993              1013.4085
 Red. masses --      1.3299                 1.4619                 2.6541
 Frc consts  --      0.5984                 0.7017                 1.6060
 IR Inten    --    133.6057                 2.5604                15.3805

                     31                     32                     33
                      A                      A                      A
 Frequencies --   1016.3502              1045.4974              1059.1681
 Red. masses --      2.0565                 1.5194                 1.7354
 Frc consts  --      1.2516                 0.9785                 1.1471
 IR Inten    --     13.8117                 4.0050                 3.0695

                     34                     35                     36
                      A                      A                      A
 Frequencies --   1073.1756              1102.4221              1113.1327
 Red. masses --      1.4829                 2.4785                 1.1809
 Frc consts  --      1.0063                 1.7748                 0.8621
 IR Inten    --      4.0126                 7.4954                15.0289

                     37                     38                     39
                      A                      A                      A
 Frequencies --   1159.6542              1161.4275              1198.4444
 Red. masses --      2.0201                 1.2898                 1.3461
 Frc consts  --      1.6006                 1.0251                 1.1391
 IR Inten    --      4.5793                 0.1591                 2.8585

                     40                     41                     42
                      A                      A                      A
 Frequencies --   1214.9148              1266.6604              1284.5453
 Red. masses --      2.3812                 2.1558                 1.4034
 Frc consts  --      2.0708                 2.0378                 1.3643
 IR Inten    --      3.2021                 9.0421                 7.0408

                     43                     44                     45
                      A                      A                      A
 Frequencies --   1297.7238              1329.1784              1381.4337
 Red. masses --      1.5657                 1.7260                 5.0598
 Frc consts  --      1.5536                 1.7966                 5.6891
 IR Inten    --     14.7959                10.8849                19.5233

                     46                     47                     48
                      A                      A                      A
 Frequencies --   1396.7793              1428.5217              1439.7274
 Red. masses --      5.0731                 4.1333                 1.3978
 Frc consts  --      5.8315                 4.9696                 1.7071
 IR Inten    --     31.5793                 4.5637                32.5640

                     49                     50                     51
                      A                      A                      A
 Frequencies --   1448.2554              1476.6731              1506.8431
 Red. masses --      1.3063                 1.3676                 2.0318
 Frc consts  --      1.6143                 1.7571                 2.7181
 IR Inten    --     24.2065                11.0793                19.9844

                     52                     53                     54
                      A                      A                      A
 Frequencies --   1508.6271              1516.5586              1525.0355
 Red. masses --      1.0427                 1.0537                 1.6888
 Frc consts  --      1.3982                 1.4278                 2.3141
 IR Inten    --      7.2402                 5.5378                21.9010

                     55                     56                     57
                      A                      A                      A
 Frequencies --   1539.4640              1549.0599              1558.6717
 Red. masses --      2.1011                 1.1768                 1.0931
 Frc consts  --      2.9339                 1.6637                 1.5646
 IR Inten    --     36.5650                 9.6439                 0.1816

                     58                     59                     60
                      A                      A                      A
 Frequencies --   1571.5131              1617.6885              1682.9228
 Red. masses --      4.1410                 6.6616                 2.2860
 Frc consts  --      6.0254                10.2711                 3.8147
 IR Inten    --     18.4457                 0.4234                25.9440

                     61                     62                     63
                      A                      A                      A
 Frequencies --   1689.2187              2984.7842              3038.1569
 Red. masses --      1.5927                 1.0724                 1.0388
 Frc consts  --      2.6776                 5.6288                 5.6495
 IR Inten    --     13.7171                74.0679                53.1998

                     64                     65                     66
                      A                      A                      A
 Frequencies --   3042.7652              3066.2090              3085.8020
 Red. masses --      1.0356                 1.0894                 1.0995
 Frc consts  --      5.6491                 6.0346                 6.1683
 IR Inten    --     66.8544                37.9981                23.5636

                     67                     68                     69
                      A                      A                      A
 Frequencies --   3094.5516              3122.1492              3152.5836
 Red. masses --      1.1056                 1.1001                 1.1003
 Frc consts  --      6.2379                 6.3180                 6.4432
 IR Inten    --     27.7761                21.2063                10.9267

                     70                     71                     72
                      A                      A                      A
 Frequencies --   3184.5849              3187.8630              3254.5347
 Red. masses --      1.0900                 1.0904                 1.0892
 Frc consts  --      6.5130                 6.5286                 6.7973
 IR Inten    --     26.0246                 6.2224                 0.9855

                     73                     74                     75
                      A                      A                      A
 Frequencies --   3273.6934              3450.4583              3542.6100
 Red. masses --      1.1036                 1.0494                 1.0924
 Frc consts  --      6.9688                 7.3615                 8.0778
 IR Inten    --      8.2324                 8.2800                 4.8197

 - Thermochemistry -
 -------------------
 Temperature   298.150 Kelvin.  Pressure   1.00000 Atm.
 Atom     1 has atomic number  6 and mass  12.00000

 Molecular mass:   174.11570 amu.
 Principal axes and moments of inertia in atomic units:
                           1         2         3
     Eigenvalues --  1102.223353402.381574310.08406
           X            0.99999  -0.00346  -0.00278
           Y            0.00347   0.99998   0.00610
           Z            0.00276  -0.00611   0.99998
 This molecule is an asymmetric top.
 Rotational symmetry number  1.
 Warning -- assumption of classical behavior for rotation
           may cause significant error
 Rotational temperatures (Kelvin)      0.07858     0.02546     0.02010
 Rotational constants (GHZ):           1.63736     0.53043     0.41873
 Zero-point vibrational energy     608931.7 (Joules/Mol)
                                  145.53816 (Kcal/Mol)
 Warning -- explicit consideration of  18 degrees of freedom as
           vibrations may cause significant error
 Vibrational temperatures:     92.16    98.58   117.97   204.23   217.84
          (Kelvin)            242.26   304.07   325.22   375.21   459.13
                              483.15   508.79   590.61   653.23   668.31
                              750.47   839.44   861.42   939.45  1002.05
                             1043.32  1082.53  1120.06  1175.23  1198.07
                             1223.89  1228.83  1257.42  1298.64  1458.07
                             1462.30  1504.24  1523.91  1544.06  1586.14
                             1601.55  1668.48  1671.04  1724.29  1747.99
                             1822.44  1848.17  1867.14  1912.39  1987.58
                             2009.65  2055.32  2071.45  2083.72  2124.60
                             2168.01  2170.58  2181.99  2194.19  2214.95
                             2228.75  2242.58  2261.06  2327.49  2421.35
                             2430.41  4294.44  4371.23  4377.86  4411.59
                             4439.78  4452.37  4492.08  4535.86  4581.91
                             4586.62  4682.55  4710.11  4964.44  5097.03

 Zero-point correction=                           0.231930 (Hartree/Particle)
 Thermal correction to Energy=                    0.244381
 Thermal correction to Enthalpy=                  0.245325
 Thermal correction to Gibbs Free Energy=         0.193290
 Sum of electronic and zero-point Energies=           -536.918820
 Sum of electronic and thermal Energies=              -536.906369
 Sum of electronic and thermal Enthalpies=            -536.905425
 Sum of electronic and thermal Free Energies=         -536.957460

                     E (Thermal)             CV                S
                      KCal/Mol        Cal/Mol-Kelvin    Cal/Mol-Kelvin
 Total                  153.351             47.447            109.517
 Electronic               0.000              0.000              0.000
 Translational            0.889              2.981             41.371
 Rotational               0.889              2.981             31.159
 Vibrational            151.574             41.486             36.987
 Vibration     1          0.597              1.971              4.328
 Vibration     2          0.598              1.969              4.196
 Vibration     3          0.600              1.961              3.843
 Vibration     4          0.615              1.911              2.777
 Vibration     5          0.619              1.901              2.654
 Vibration     6          0.625              1.881              2.454
 Vibration     7          0.643              1.824              2.032
 Vibration     8          0.650              1.801              1.910
 Vibration     9          0.669              1.744              1.657
 Vibration    10          0.705              1.637              1.315
 Vibration    11          0.717              1.604              1.232
 Vibration    12          0.730              1.568              1.150
 Vibration    13          0.775              1.447              0.925
 Vibration    14          0.812              1.352              0.784
 Vibration    15          0.822              1.329              0.753
 Vibration    16          0.877              1.202              0.606
 Vibration    17          0.940              1.067              0.479
 Vibration    18          0.957              1.035              0.452

                           ! Non-Optimized Parameters !
 Normal termination of Gaussian 16 at Wed Dec  9 23:01:04 2020.

 ----------------------------------------------------------------------
 # B3LYP/6-311++G(d,p) empiricaldispersion=gd3bj scf=xqc pop=npa geom=c
 heck
 ----------------------------------------------------------------------

 --------------------------------------
 CID_83481699_JID_3316_Energie_neutraal
 --------------------------------------
 Structure from the checkpoint file:  "JID_3316.chk"
 Charge =  0 Multiplicity = 1

 SCF Done:  E(RB3LYP) =  -537.297771636     A.U. after   14 cycles
 Normal termination of Gaussian 16 at Wed Dec  9 23:03:32 2020.

 ----------------------------------------------------------------------
 # B3LYP/6-311++G(d,p) empiricaldispersion=gd3bj scf=xqc pop=npa geom=c
 heck
 ----------------------------------------------------------------------

 ------------------------------------
 CID_83481699_JID_3316_Energie_kation
 ------------------------------------
 Structure from the checkpoint file:  "JID_3316.chk"
 Charge =  1 Multiplicity = 2

 SCF Done:  E(UB3LYP) =  -537.030853157     A.U. after   26 cycles
 Normal termination of Gaussian 16 at Wed Dec  9 23:09:26 2020.
 Gaussian 16:  ES64L-G16RevA.03 25-Dec-2016

 ----------------------------------------------------------------------
 # B3LYP/6-311++G(d,p) empiricaldispersion=gd3bj scf=xqc pop=npa geom=c
 heck
 ----------------------------------------------------------------------

 -----------------------------------
 CID_83481699_JID_3316_Energie_anion
 -----------------------------------
 Structure from the checkpoint file:  "JID_3316.chk"
 Charge = -1 Multiplicity = 2

                         Standard orientation:
 ---------------------------------------------------------------------
 Center     Atomic      Atomic             Coordinates (Angstroms)
 Number     Number       Type             X           Y           Z
 ---------------------------------------------------------------------
      1          6           0        2.080529    2.174206   -0.202929
      2          6           0        1.096400    1.025870   -0.172458
      3          6           0       -0.262242    1.301760   -0.032432
      4          6           0       -1.167125    0.237737   -0.017869
      5          6           0       -0.744786   -1.113961   -0.136733
      6          6           0       -1.929372   -1.924980   -0.079201
      7          6           0       -2.990114   -1.070108    0.067366
      8          7           0       -2.542994    0.242212    0.105045
      9          6           0       -3.363022    1.423167    0.253000
     10          6           0        0.626313   -1.370459   -0.274763
     11          6           0        1.539852   -0.321342   -0.298998
     12          6           0        3.015251   -0.636636   -0.399717
     13          7           0        3.590197   -0.856396    0.942384
     14          1           0        2.900947    2.036557    0.511646
     15          1           0        1.583944    3.117984    0.042069
     16          1           0        2.540640    2.290905   -1.192796
     17          1           0       -0.602856    2.329482    0.062108
     18          1           0       -1.983338   -3.003016   -0.137400
     19          1           0       -4.048316   -1.277470    0.150184
     20          1           0       -3.248313    2.091302   -0.608934
     21          1           0       -4.410572    1.123169    0.324150
     22          1           0       -3.095171    1.976545    1.161091
     23          1           0        0.988026   -2.392289   -0.356211
     24          1           0        3.149565   -1.564256   -0.968583
     25          1           0        3.526099    0.155840   -0.970621
     26          1           0        4.608168   -0.870446    0.879294
     27          1           0        3.350654   -0.066539    1.540406
 ---------------------------------------------------------------------

 SCF Done:  E(UB3LYP) =  -537.284739822     A.U. after   33 cycles
 SCF Done:  E(UB3LYP) =  -537.284739822     a.u. after    1 cycles

 The electronic state is 2-A.
 Alpha  occ. eigenvalues --  -14.26051 -14.19483 -10.10730 -10.10447 -10.09968
 Alpha  occ. eigenvalues --  -10.09542 -10.07951 -10.07044 -10.07007 -10.06959
 Alpha  occ. eigenvalues --  -10.06939 -10.06703 -10.06348  -0.88872  -0.78712
 Alpha  occ. eigenvalues --   -0.74692  -0.70563  -0.65573  -0.65196  -0.60090
 Alpha  occ. eigenvalues --   -0.57797  -0.55653  -0.50430  -0.47762  -0.45885
 Alpha  occ. eigenvalues --   -0.42562  -0.39745  -0.37838  -0.36598  -0.36300
 Alpha  occ. eigenvalues --   -0.34412  -0.33437  -0.33363  -0.32583  -0.31748
 Alpha  occ. eigenvalues --   -0.30173  -0.28974  -0.28732  -0.28274  -0.27879
 Alpha  occ. eigenvalues --   -0.24564  -0.23476  -0.21997  -0.17706  -0.14666
 Alpha  occ. eigenvalues --   -0.12116  -0.10681   0.04243
 Alpha virt. eigenvalues --    0.05662   0.07134   0.07447   0.08236   0.08673
 Alpha virt. eigenvalues --    0.08919   0.10150   0.10604   0.10775   0.11272
 Alpha virt. eigenvalues --    0.11466   0.12209   0.13197   0.13469   0.13870

  Beta  occ. eigenvalues --  -14.26049 -14.19449 -10.10665 -10.10433 -10.09962
  Beta  occ. eigenvalues --  -10.09529 -10.07949 -10.07041 -10.07008 -10.06946
  Beta  occ. eigenvalues --  -10.06931 -10.06670 -10.06345  -0.88860  -0.78660
  Beta  occ. eigenvalues --   -0.74669  -0.70539  -0.65539  -0.65169  -0.60025
  Beta  occ. eigenvalues --   -0.57752  -0.55602  -0.50393  -0.47740  -0.45843
  Beta  occ. eigenvalues --   -0.42514  -0.39708  -0.37802  -0.36558  -0.36254
  Beta  occ. eigenvalues --   -0.34375  -0.33403  -0.33323  -0.32554  -0.31711
  Beta  occ. eigenvalues --   -0.30125  -0.28946  -0.28698  -0.28241  -0.27851
  Beta  occ. eigenvalues --   -0.24542  -0.23456  -0.21969  -0.17682  -0.14630
  Beta  occ. eigenvalues --   -0.12097  -0.10653
  Beta virt. eigenvalues --    0.06464   0.07127   0.07490   0.07776   0.08647
  Beta virt. eigenvalues --    0.09015   0.09363   0.10676   0.11185   0.11286
  Beta virt. eigenvalues --    0.11576   0.11827   0.12467   0.13415   0.13586

 Mulliken charges and spin densities:
               1          2
     1  C    1.187667  -1.759278
     2  C   -1.002342   1.029995
     3  C   -0.390111   0.041634
     4  C    0.751703  -1.101245
     5  C    0.426369  -0.097964
     6  C    0.283661  -0.436981
     7  C   -0.198706   0.229345
     8  N   -0.205477   0.334580
     9  C    1.386990  -1.698587
    10  C   -0.428042   0.083657
    11  C   -0.324233   0.715560
    12  C    0.386730  -1.147294
    13  N   -0.318308   0.012754
    14  H   -0.293308   0.445466
    15  H   -0.415323   0.571963
    16  H    0.076242   0.093826
    17  H    0.039358   0.102289
    18  H    0.114766   0.019644
    19  H   -0.443776   0.616363
    20  H   -0.417405   0.591144
    21  H   -0.811821   0.966298
    22  H   -0.444366   0.622603
    23  H    0.088369   0.032385
    24  H    0.064842   0.087079
    25  H   -0.169192   0.288696
    26  H   -0.130784   0.348763
    27  H    0.186495   0.007303
 Sum of Mulliken charges =  -1.00000   1.00000

 Dipole moment (field-independent basis, Debye):
    X=              2.6980    Y=             -4.2491    Z=             -1.7219  Tot=              5.3197
 Quadrupole moment (field-independent basis, Debye-Ang):
   XX=           -172.2998   YY=           -119.0733   ZZ=           -106.8416
   XY=             11.0351   XZ=             -2.0074   YZ=              0.8637

 Summary of Natural Population Analysis:

                                       Natural Population
                Natural  -----------------------------------------------
    Atom  No    Charge         Core      Valence    Rydberg      Total
 -----------------------------------------------------------------------
      C    1   -0.29466      0.99964     2.28906    0.00596     3.29466
      C    2   -0.01536      0.99950     2.00600    0.00986     3.01536
      C    3   -0.11657      0.99948     2.10832    0.00877     3.11657
      C    4    0.08789      0.99947     1.90138    0.01126     2.91211
      C    5   -0.04726      0.99950     2.03952    0.00825     3.04726
      C    6   -0.14819      0.99953     2.13923    0.00943     3.14819
      C    7    0.00648      0.99955     1.98192    0.01205     2.99352
      N    8   -0.20848      0.99962     2.69841    0.01044     3.70848
      C    9   -0.17282      0.99964     2.16479    0.00839     3.17282
      C   10   -0.08100      0.99948     2.07376    0.00775     3.08100
      C   11   -0.03469      0.99948     2.02464    0.01057     3.03469
      C   12   -0.09595      0.99960     2.08426    0.01210     3.09595
      N   13   -0.41918      0.99977     2.90901    0.01039     3.91918
      H   14    0.10175      0.00000     0.39658    0.00167     0.39825
      H   15    0.10372      0.00000     0.39520    0.00108     0.39628
      H   16    0.10246      0.00000     0.39642    0.00112     0.39754
      H   17    0.10460      0.00000     0.39427    0.00113     0.39540
      H   18    0.10368      0.00000     0.39564    0.00068     0.39632
      H   19    0.10089      0.00000     0.39809    0.00102     0.39911
      H   20    0.09928      0.00000     0.39877    0.00195     0.40072
      H   21    0.10537      0.00000     0.39108    0.00355     0.39463
      H   22    0.09987      0.00000     0.39798    0.00215     0.40013
      H   23    0.09805      0.00000     0.40080    0.00115     0.40195
      H   24    0.08978      0.00000     0.40897    0.00125     0.41022
      H   25    0.08451      0.00000     0.41375    0.00174     0.41549
      H   26    0.17250      0.00000     0.32515    0.00235     0.32750
      H   27    0.17334      0.00000     0.32477    0.00189     0.32666
 =======================================================================
   * Total *   -0.00000     12.99427    33.85778    0.14795    47.00000

 Normal termination of Gaussian 16 at Wed Dec  9 23:16:48 2020.
