 Gaussian 16, Revision A.03,

 -----------------------------------------------------------
 # opt freq B3LYP/6-31G(d) empiricaldispersion=gd3bj scf=xqc
 -----------------------------------------------------------

 -------------------------------
 CID_130923996_JID_2342_neutraal
 -------------------------------
 Symbolic Z-matrix:
 Charge =  0 Multiplicity = 1

 SCF Done:  E(RB3LYP) =  -558.443718894     A.U. after   14 cycles
 SCF Done:  E(RB3LYP) =  -558.447687032     A.U. after   11 cycles
 SCF Done:  E(RB3LYP) =  -558.448056035     A.U. after   10 cycles
 SCF Done:  E(RB3LYP) =  -558.448145552     A.U. after   11 cycles
 SCF Done:  E(RB3LYP) =  -558.448197656     A.U. after   10 cycles
 SCF Done:  E(RB3LYP) =  -558.448223002     A.U. after    9 cycles
 SCF Done:  E(RB3LYP) =  -558.448237544     A.U. after    9 cycles
 SCF Done:  E(RB3LYP) =  -558.448241384     A.U. after    8 cycles
 SCF Done:  E(RB3LYP) =  -558.448243791     A.U. after    8 cycles
 SCF Done:  E(RB3LYP) =  -558.448246268     A.U. after    8 cycles
 SCF Done:  E(RB3LYP) =  -558.448247372     A.U. after    8 cycles
 SCF Done:  E(RB3LYP) =  -558.448247449     A.U. after    7 cycles
 Optimization completed.
    -- Stationary point found.
 Normal termination of Gaussian 16 at Wed Dec  9 17:09:59 2020.

 --------------------------------------------------------------------
 #N Geom=AllCheck Guess=TCheck SCRF=Check GenChk RB3LYP/6-31G(d) Freq
 --------------------------------------------------------------------

 Structure from the checkpoint file:  "JID_2342.chk"
 -------------------------------
 CID_130923996_JID_2342_neutraal
 -------------------------------
 Charge =  0 Multiplicity = 1

 SCF Done:  E(RB3LYP) =  -558.448247449     A.U. after    1 cycles

  Exact polarizability: 114.840   0.949  99.715   6.571   4.715  93.405
 Approx polarizability: 147.529   2.082 140.017  17.991   6.443 144.895

                      1                      2                      3
                      A                      A                      A
 Frequencies --     42.8193                64.4459                91.0879
 Red. masses --      3.7026                 4.5362                 2.3879
 Frc consts  --      0.0040                 0.0111                 0.0117
 IR Inten    --      0.8484                 1.3177                 0.0492

                      4                      5                      6
                      A                      A                      A
 Frequencies --    101.1913               139.4289               184.1373
 Red. masses --      2.1691                 3.3254                 2.6161
 Frc consts  --      0.0131                 0.0381                 0.0523
 IR Inten    --      0.1633                 1.3229                 0.2822

                      7                      8                      9
                      A                      A                      A
 Frequencies --    222.7306               234.5573               240.3227
 Red. masses --      1.6829                 2.4754                 1.1513
 Frc consts  --      0.0492                 0.0802                 0.0392
 IR Inten    --      2.2500                 3.8590                 0.0948

                     10                     11                     12
                      A                      A                      A
 Frequencies --    290.7091               336.4599               361.3354
 Red. masses --      2.0293                 1.9564                 2.9302
 Frc consts  --      0.1010                 0.1305                 0.2254
 IR Inten    --      3.0261                 4.8350                 2.1038

                     13                     14                     15
                      A                      A                      A
 Frequencies --    371.4854               446.3609               476.8275
 Red. masses --      3.4987                 4.0229                 1.9359
 Frc consts  --      0.2845                 0.4722                 0.2593
 IR Inten    --      7.1304                16.2157                16.4030

                     16                     17                     18
                      A                      A                      A
 Frequencies --    485.0533               519.3881               541.4290
 Red. masses --      3.3044                 2.3595                 3.6730
 Frc consts  --      0.4581                 0.3750                 0.6344
 IR Inten    --     10.1325                 7.3035                 0.9947

                     19                     20                     21
                      A                      A                      A
 Frequencies --    584.5166               639.9333               736.1424
 Red. masses --      3.3643                 1.9596                 2.6319
 Frc consts  --      0.6772                 0.4728                 0.8403
 IR Inten    --      3.6338                89.5127                 3.7332

                     22                     23                     24
                      A                      A                      A
 Frequencies --    775.2592               791.2371               835.4641
 Red. masses --      1.4803                 1.6920                 2.1006
 Frc consts  --      0.5242                 0.6241                 0.8639
 IR Inten    --      5.9329                 4.2176                 3.9230

                     25                     26                     27
                      A                      A                      A
 Frequencies --    880.3628               911.9871               931.4072
 Red. masses --      2.4596                 2.3249                 1.9251
 Frc consts  --      1.1232                 1.1393                 0.9840
 IR Inten    --      8.0811                 3.2325                10.6121

                     28                     29                     30
                      A                      A                      A
 Frequencies --    945.8903               996.9438              1035.9777
 Red. masses --      2.5041                 2.4115                 1.7638
 Frc consts  --      1.3200                 1.4121                 1.1154
 IR Inten    --     18.2370                17.2045                 1.3420

                     31                     32                     33
                      A                      A                      A
 Frequencies --   1037.1728              1042.9113              1069.8308
 Red. masses --      1.5548                 1.8505                 1.8633
 Frc consts  --      0.9854                 1.1859                 1.2565
 IR Inten    --      3.3296                 2.8800                 1.7215

                     34                     35                     36
                      A                      A                      A
 Frequencies --   1082.2490              1113.7708              1136.4561
 Red. masses --      2.2097                 2.0674                 3.4202
 Frc consts  --      1.5249                 1.5110                 2.6026
 IR Inten    --      7.7518                18.5060                58.7477

                     37                     38                     39
                      A                      A                      A
 Frequencies --   1155.5573              1182.7904              1191.8849
 Red. masses --      2.2563                 2.0515                 2.3469
 Frc consts  --      1.7751                 1.6910                 1.9643
 IR Inten    --     22.4239                 5.5005                10.2634

                     40                     41                     42
                      A                      A                      A
 Frequencies --   1277.5945              1281.4087              1294.6263
 Red. masses --      1.1663                 1.1961                 1.4020
 Frc consts  --      1.1216                 1.1571                 1.3845
 IR Inten    --      7.1078                 5.6691                 8.9302

                     43                     44                     45
                      A                      A                      A
 Frequencies --   1306.8620              1330.7503              1354.5553
 Red. masses --      1.3381                 1.1461                 1.5828
 Frc consts  --      1.3465                 1.1958                 1.7111
 IR Inten    --      4.3556                 4.7459                57.2789

                     46                     47                     48
                      A                      A                      A
 Frequencies --   1363.9117              1379.1745              1388.1189
 Red. masses --      1.4762                 1.3886                 1.4266
 Frc consts  --      1.6179                 1.5562                 1.6196
 IR Inten    --     48.2003                31.0428                 4.2676

                     49                     50                     51
                      A                      A                      A
 Frequencies --   1405.1335              1412.3481              1421.7006
 Red. masses --      1.4800                 1.3414                 1.4693
 Frc consts  --      1.7216                 1.5765                 1.7498
 IR Inten    --     17.3838                 4.9370                 2.7591

                     52                     53                     54
                      A                      A                      A
 Frequencies --   1431.7815              1442.7149              1445.9679
 Red. masses --      1.4394                 1.2406                 1.2739
 Frc consts  --      1.7386                 1.5214                 1.5693
 IR Inten    --      3.1495                 1.7519                 8.6036

                     55                     56                     57
                      A                      A                      A
 Frequencies --   1495.6930              1508.1550              1515.1993
 Red. masses --      1.8053                 1.1538                 1.0618
 Frc consts  --      2.3795                 1.5463                 1.4362
 IR Inten    --     34.0535                 1.3598                 1.0571

                     58                     59                     60
                      A                      A                      A
 Frequencies --   1522.5098              1529.3692              1536.0241
 Red. masses --      1.0681                 1.0565                 1.0455
 Frc consts  --      1.4588                 1.4559                 1.4533
 IR Inten    --      5.5462                 4.9800                 1.0600

                     61                     62                     63
                      A                      A                      A
 Frequencies --   1540.2834              1545.0452              1546.9374
 Red. masses --      1.0467                 1.1157                 1.0948
 Frc consts  --      1.4631                 1.5691                 1.5436
 IR Inten    --      3.0124                20.2338                 3.6461

                     64                     65                     66
                      A                      A                      A
 Frequencies --   1806.7074              3018.4293              3030.5408
 Red. masses --      8.7661                 1.0723                 1.0732
 Frc consts  --     16.8591                 5.7560                 5.8071
 IR Inten    --    368.3591                18.8611                14.1986

                     67                     68                     69
                      A                      A                      A
 Frequencies --   3032.6361              3038.8091              3050.2152
 Red. masses --      1.0730                 1.0675                 1.0376
 Frc consts  --      5.8144                 5.8080                 5.6875
 IR Inten    --     39.4231                29.5795                23.2145

                     70                     71                     72
                      A                      A                      A
 Frequencies --   3053.8340              3066.4123              3073.9424
 Red. masses --      1.0366                 1.0698                 1.0940
 Frc consts  --      5.6956                 5.9265                 6.0907
 IR Inten    --     16.9264                31.1555                23.0996

                     73                     74                     75
                      A                      A                      A
 Frequencies --   3088.7352              3099.3384              3113.7965
 Red. masses --      1.0869                 1.0986                 1.1012
 Frc consts  --      6.1094                 6.2175                 6.2907
 IR Inten    --     48.5078                 8.5926                41.4096

                     76                     77                     78
                      A                      A                      A
 Frequencies --   3115.7440              3118.3871              3124.2934
 Red. masses --      1.0934                 1.1002                 1.1021
 Frc consts  --      6.2539                 6.3036                 6.3381
 IR Inten    --     10.3625                58.6848                58.3193

                     79                     80                     81
                      A                      A                      A
 Frequencies --   3128.4787              3129.1909              3594.1368
 Red. masses --      1.1016                 1.0921                 1.0765
 Frc consts  --      6.3527                 6.3005                 8.1928
 IR Inten    --     40.1811                11.6831                21.2064

 - Thermochemistry -
 -------------------
 Temperature   298.150 Kelvin.  Pressure   1.00000 Atm.
 Atom     1 has atomic number  6 and mass  12.00000

 Molecular mass:   171.12593 amu.
 Principal axes and moments of inertia in atomic units:
                           1         2         3
     Eigenvalues --  1233.830163003.767763416.27034
           X            0.99988   0.00602  -0.01461
           Y           -0.00562   0.99961   0.02733
           Z            0.01477  -0.02725   0.99952
 This molecule is an asymmetric top.
 Rotational symmetry number  1.
 Warning -- assumption of classical behavior for rotation
           may cause significant error
 Rotational temperatures (Kelvin)      0.07020     0.02884     0.02535
 Rotational constants (GHZ):           1.46271     0.60083     0.52828
 Zero-point vibrational energy     682990.0 (Joules/Mol)
                                  163.23852 (Kcal/Mol)
 Warning -- explicit consideration of  19 degrees of freedom as
           vibrations may cause significant error
 Vibrational temperatures:     61.61    92.72   131.06   145.59   200.61
          (Kelvin)            264.93   320.46   337.48   345.77   418.27
                              484.09   519.88   534.48   642.21   686.05
                              697.88   747.28   779.00   840.99   920.72
                             1059.14  1115.43  1138.41  1202.05  1266.65
                             1312.15  1340.09  1360.93  1434.38  1490.54
                             1492.26  1500.52  1539.25  1557.11  1602.47
                             1635.11  1662.59  1701.77  1714.86  1838.17
                             1843.66  1862.68  1880.28  1914.65  1948.90
                             1962.36  1984.32  1997.19  2021.67  2032.05
                             2045.51  2060.01  2075.74  2080.43  2151.97
                             2169.90  2180.03  2190.55  2200.42  2210.00
                             2216.12  2222.98  2225.70  2599.45  4342.85
                             4360.27  4363.29  4372.17  4388.58  4393.79
                             4411.88  4422.72  4444.00  4459.26  4480.06
                             4482.86  4486.66  4495.16  4501.18  4502.21
                             5171.16

 Zero-point correction=                           0.260137 (Hartree/Particle)
 Thermal correction to Energy=                    0.272841
 Thermal correction to Enthalpy=                  0.273785
 Thermal correction to Gibbs Free Energy=         0.220989
 Sum of electronic and zero-point Energies=           -558.188110
 Sum of electronic and thermal Energies=              -558.175407
 Sum of electronic and thermal Enthalpies=            -558.174462
 Sum of electronic and thermal Free Energies=         -558.227258

                     E (Thermal)             CV                S
                      KCal/Mol        Cal/Mol-Kelvin    Cal/Mol-Kelvin
 Total                  171.210             47.907            111.118
 Electronic               0.000              0.000              0.000
 Translational            0.889              2.981             41.319
 Rotational               0.889              2.981             30.916
 Vibrational            169.433             41.945             38.883
 Vibration     1          0.595              1.980              5.124
 Vibration     2          0.597              1.971              4.316
 Vibration     3          0.602              1.956              3.637
 Vibration     4          0.604              1.948              3.431
 Vibration     5          0.615              1.914              2.812
 Vibration     6          0.631              1.861              2.286
 Vibration     7          0.648              1.806              1.937
 Vibration     8          0.654              1.788              1.844
 Vibration     9          0.657              1.779              1.800
 Vibration    10          0.687              1.691              1.470
 Vibration    11          0.717              1.603              1.229
 Vibration    12          0.736              1.552              1.116
 Vibration    13          0.743              1.531              1.074
 Vibration    14          0.806              1.369              0.807
 Vibration    15          0.833              1.301              0.719
 Vibration    16          0.841              1.283              0.697
 Vibration    17          0.874              1.207              0.611
 Vibration    18          0.897              1.158              0.562
 Vibration    19          0.941              1.065              0.477

 Optimization completed.
    -- Stationary point found.
 Normal termination of Gaussian 16 at Wed Dec  9 17:17:15 2020.

 ----------------------------------------------------------------------
 # B3LYP/6-311++G(d,p) empiricaldispersion=gd3bj scf=xqc pop=npa geom=c
 heck
 ----------------------------------------------------------------------

 ---------------------------------------
 CID_130923996_JID_2342_Energie_neutraal
 ---------------------------------------
 Structure from the checkpoint file:  "JID_2342.chk"
 Charge =  0 Multiplicity = 1

 SCF Done:  E(RB3LYP) =  -558.613803501     A.U. after   14 cycles
 Normal termination of Gaussian 16 at Wed Dec  9 17:20:13 2020.

 ----------------------------------------------------------------------
 # B3LYP/6-311++G(d,p) empiricaldispersion=gd3bj scf=xqc pop=npa geom=c
 heck
 ----------------------------------------------------------------------

 -------------------------------------
 CID_130923996_JID_2342_Energie_kation
 -------------------------------------
 Structure from the checkpoint file:  "JID_2342.chk"
 Charge =  1 Multiplicity = 2

 SCF Done:  E(UB3LYP) =  -558.285461131     A.U. after   27 cycles
 Normal termination of Gaussian 16 at Wed Dec  9 17:27:37 2020.
 Gaussian 16:  ES64L-G16RevA.03 25-Dec-2016

 ----------------------------------------------------------------------
 # B3LYP/6-311++G(d,p) empiricaldispersion=gd3bj scf=xqc pop=npa geom=c
 heck
 ----------------------------------------------------------------------

 ------------------------------------
 CID_130923996_JID_2342_Energie_anion
 ------------------------------------
 Structure from the checkpoint file:  "JID_2342.chk"
 Charge = -1 Multiplicity = 2

                         Standard orientation:
 ---------------------------------------------------------------------
 Center     Atomic      Atomic             Coordinates (Angstroms)
 Number     Number       Type             X           Y           Z
 ---------------------------------------------------------------------
      1          6           0        2.889039    1.733770   -0.822982
      2          6           0        1.875137    1.302024    0.240545
      3          6           0        0.937643    0.161335   -0.205632
      4          6           0        1.696527   -1.067397   -0.751553
      5          6           0        2.657403   -1.734178    0.238004
      6          6           0       -0.007207   -0.249688    0.944946
      7          6           0       -0.966650    0.840149    1.429093
      8          7           0       -1.973458    1.092821    0.404983
      9          6           0       -2.459661    0.138588   -0.438959
     10          8           0       -3.391502    0.331933   -1.207709
     11          6           0       -1.719286   -1.197296   -0.430500
     12          8           0       -0.798048   -1.401506    0.632226
     13          1           0        3.618873    0.946498   -1.036333
     14          1           0        3.444487    2.617839   -0.491692
     15          1           0        2.387613    1.987644   -1.764700
     16          1           0        2.407599    1.007790    1.155488
     17          1           0        1.270663    2.176078    0.510138
     18          1           0        0.325145    0.555770   -1.028128
     19          1           0        0.965167   -1.810856   -1.083372
     20          1           0        2.250361   -0.763136   -1.647035
     21          1           0        2.125869   -2.128289    1.110631
     22          1           0        3.170907   -2.576679   -0.237574
     23          1           0        3.426749   -1.040513    0.595707
     24          1           0        0.598616   -0.563893    1.800842
     25          1           0       -1.434508    0.498393    2.362665
     26          1           0       -0.438164    1.772497    1.643875
     27          1           0       -2.508714    1.952168    0.428436
     28          1           0       -2.465694   -1.991797   -0.355296
     29          1           0       -1.232030   -1.296512   -1.412436
 ---------------------------------------------------------------------

 SCF Done:  E(UB3LYP) =  -558.603041339     A.U. after   31 cycles

 The electronic state is 2-A.
 Alpha  occ. eigenvalues --  -19.03630 -18.99286 -14.24146 -10.17760 -10.13357
 Alpha  occ. eigenvalues --  -10.12941 -10.10965 -10.07689 -10.06763 -10.06591
 Alpha  occ. eigenvalues --  -10.06027 -10.05963  -0.95911  -0.93670  -0.82793
 Alpha  occ. eigenvalues --   -0.72459  -0.66890  -0.64978  -0.61150  -0.59027
 Alpha  occ. eigenvalues --   -0.54305  -0.52406  -0.47651  -0.45444  -0.41845
 Alpha  occ. eigenvalues --   -0.40098  -0.38528  -0.37099  -0.36465  -0.35866
 Alpha  occ. eigenvalues --   -0.34309  -0.32445  -0.31358  -0.31038  -0.30869
 Alpha  occ. eigenvalues --   -0.29661  -0.28262  -0.27116  -0.26221  -0.25395
 Alpha  occ. eigenvalues --   -0.24601  -0.22545  -0.22241  -0.21422  -0.18567
 Alpha  occ. eigenvalues --   -0.16046  -0.15222   0.04324
 Alpha virt. eigenvalues --    0.06647   0.07343   0.07696   0.08928   0.09452
 Alpha virt. eigenvalues --    0.09652   0.10317   0.10696   0.10864   0.12002
 Alpha virt. eigenvalues --    0.12093   0.13015   0.13237   0.13834   0.14094

  Beta  occ. eigenvalues --  -19.03626 -18.99280 -14.24119 -10.17759 -10.13348
  Beta  occ. eigenvalues --  -10.12932 -10.10927 -10.07685 -10.06753 -10.06559
  Beta  occ. eigenvalues --  -10.05997 -10.05933  -0.95897  -0.93658  -0.82746
  Beta  occ. eigenvalues --   -0.72429  -0.66853  -0.64934  -0.61106  -0.58970
  Beta  occ. eigenvalues --   -0.54258  -0.52326  -0.47590  -0.45388  -0.41805
  Beta  occ. eigenvalues --   -0.40064  -0.38475  -0.37053  -0.36436  -0.35838
  Beta  occ. eigenvalues --   -0.34276  -0.32417  -0.31317  -0.31007  -0.30836
  Beta  occ. eigenvalues --   -0.29623  -0.28222  -0.27055  -0.26189  -0.25364
  Beta  occ. eigenvalues --   -0.24575  -0.22517  -0.22202  -0.21393  -0.18553
  Beta  occ. eigenvalues --   -0.16014  -0.15206
  Beta virt. eigenvalues --    0.06631   0.07769   0.08024   0.08124   0.09458
  Beta virt. eigenvalues --    0.09772   0.10175   0.10819   0.11098   0.11162
  Beta virt. eigenvalues --    0.12372   0.12629   0.13379   0.13542   0.14135

 Mulliken charges and spin densities:
               1          2
     1  C    1.006504  -1.680275
     2  C   -0.730263   0.417532
     3  C    1.370040  -0.741415
     4  C   -0.943584   0.562765
     5  C    0.594413  -1.170143
     6  C   -1.875813   1.624097
     7  C    2.505066  -3.158807
     8  N   -0.442899   0.244496
     9  C   -0.180074   0.271876
    10  O   -0.370628   0.015121
    11  C    0.301565  -0.526308
    12  O   -0.066417   0.011787
    13  H   -0.033824   0.177994
    14  H   -0.378995   0.526361
    15  H   -0.115958   0.257798
    16  H   -0.214363   0.364485
    17  H   -0.013007   0.151445
    18  H    0.228076  -0.020603
    19  H    0.167391  -0.057117
    20  H   -0.083839   0.249869
    21  H   -0.242276   0.411418
    22  H   -0.207543   0.342978
    23  H   -0.042878   0.194807
    24  H    0.051720   0.158048
    25  H   -0.308015   0.512466
    26  H   -0.996407   1.167628
    27  H   -0.136519   0.468439
    28  H    0.135607   0.072648
    29  H    0.022919   0.150610
 Sum of Mulliken charges =  -1.00000   1.00000

 Dipole moment (field-independent basis, Debye):
    X=             -0.5275    Y=             -4.5908    Z=             -2.3111  Tot=              5.1667
 Quadrupole moment (field-independent basis, Debye-Ang):
   XX=           -140.0168   YY=           -123.8852   ZZ=           -112.5560
   XY=              3.4481   XZ=             -3.8192   YZ=             -4.1316

 Summary of Natural Population Analysis:

                                       Natural Population
                Natural  -----------------------------------------------
    Atom  No    Charge         Core      Valence    Rydberg      Total
 -----------------------------------------------------------------------
      C    1   -0.28460      0.99966     2.27939    0.00554     3.28460
      C    2   -0.19188      0.99962     2.18303    0.00924     3.19188
      C    3   -0.12230      0.99956     2.11178    0.01096     3.12230
      C    4   -0.19211      0.99962     2.18301    0.00948     3.19211
      C    5   -0.28962      0.99966     2.28465    0.00531     3.28962
      C    6    0.06478      0.99952     1.91935    0.01635     2.93522
      C    7   -0.09461      0.99958     2.08293    0.01209     3.09461
      N    8   -0.31548      0.99967     2.80464    0.01117     3.81548
      C    9    0.32831      0.99967     1.64894    0.02307     2.67169
      O   10   -0.32641      0.99988     3.32056    0.00597     4.32641
      C   11   -0.05398      0.99953     2.04275    0.01170     3.05398
      O   12   -0.30140      0.99989     3.29259    0.00892     4.30140
      H   13    0.09570      0.00000     0.40331    0.00099     0.40430
      H   14    0.10206      0.00000     0.39694    0.00100     0.39794
      H   15    0.09566      0.00000     0.40337    0.00096     0.40434
      H   16    0.09584      0.00000     0.40252    0.00164     0.40416
      H   17    0.10198      0.00000     0.39594    0.00209     0.39802
      H   18    0.09823      0.00000     0.39926    0.00251     0.40177
      H   19    0.09979      0.00000     0.39895    0.00126     0.40021
      H   20    0.09669      0.00000     0.40232    0.00099     0.40331
      H   21    0.09839      0.00000     0.40051    0.00110     0.40161
      H   22    0.09863      0.00000     0.40048    0.00089     0.40137
      H   23    0.09760      0.00000     0.40138    0.00102     0.40240
      H   24    0.09921      0.00000     0.39877    0.00202     0.40079
      H   25    0.09537      0.00000     0.40273    0.00190     0.40463
      H   26    0.10889      0.00000     0.38672    0.00439     0.39111
      H   27    0.20053      0.00000     0.29550    0.00397     0.29947
      H   28    0.10260      0.00000     0.39632    0.00107     0.39740
      H   29    0.09210      0.00000     0.40652    0.00138     0.40790
 =======================================================================
   * Total *   -0.00000     11.99587    34.84515    0.15898    47.00000

 Normal termination of Gaussian 16 at Wed Dec  9 17:35:47 2020.
