 Gaussian 16, Revision A.03,

 -----------------------------------------------------------
 # opt freq B3LYP/6-31G(d) empiricaldispersion=gd3bj scf=xqc
 -----------------------------------------------------------

 ------------------------------
 CID_18520736_JID_1200_neutraal
 ------------------------------
 Symbolic Z-matrix:
 Charge =  0 Multiplicity = 1

 SCF Done:  E(RB3LYP) =  -517.902731235     A.U. after   15 cycles
 SCF Done:  E(RB3LYP) =  -517.907954907     A.U. after   13 cycles
 SCF Done:  E(RB3LYP) =  -517.908467981     A.U. after   12 cycles
 SCF Done:  E(RB3LYP) =  -517.908986609     A.U. after   12 cycles
 SCF Done:  E(RB3LYP) =  -517.909043789     A.U. after   11 cycles
 SCF Done:  E(RB3LYP) =  -517.909106005     A.U. after   10 cycles
 SCF Done:  E(RB3LYP) =  -517.909120989     A.U. after   10 cycles
 SCF Done:  E(RB3LYP) =  -517.909130394     A.U. after    9 cycles
 SCF Done:  E(RB3LYP) =  -517.909131539     A.U. after    8 cycles
 SCF Done:  E(RB3LYP) =  -517.909131694     A.U. after    8 cycles
 Optimization completed.
    -- Stationary point found.
 Normal termination of Gaussian 16 at Tue Dec  8 19:15:39 2020.

 --------------------------------------------------------------------
 #N Geom=AllCheck Guess=TCheck SCRF=Check GenChk RB3LYP/6-31G(d) Freq
 --------------------------------------------------------------------

 Structure from the checkpoint file:  "JID_1200.chk"
 ------------------------------
 CID_18520736_JID_1200_neutraal
 ------------------------------
 Charge =  0 Multiplicity = 1

 SCF Done:  E(RB3LYP) =  -517.909131694     A.U. after    1 cycles

  Exact polarizability: 109.023   6.920  85.136   9.904   0.268  79.900
 Approx polarizability: 151.999  23.299 129.913  23.236   5.868 123.469

                      1                      2                      3
                      A                      A                      A
 Frequencies --     36.7577                76.7735               141.1792
 Red. masses --      3.1604                 6.4908                 3.3744
 Frc consts  --      0.0025                 0.0225                 0.0396
 IR Inten    --      0.8734                 2.9553                 3.6835

                      4                      5                      6
                      A                      A                      A
 Frequencies --    209.2947               238.5843               258.8392
 Red. masses --      3.6960                 1.2802                 2.1766
 Frc consts  --      0.0954                 0.0429                 0.0859
 IR Inten    --      0.6060                 1.2275                 5.0854

                      7                      8                      9
                      A                      A                      A
 Frequencies --    277.0305               295.9994               305.1811
 Red. masses --      1.7088                 1.3867                 1.2963
 Frc consts  --      0.0773                 0.0716                 0.0711
 IR Inten    --      0.3820                 1.5987                 1.5726

                     10                     11                     12
                      A                      A                      A
 Frequencies --    338.6109               383.7257               402.6299
 Red. masses --      2.5420                 2.4506                 2.4818
 Frc consts  --      0.1717                 0.2126                 0.2370
 IR Inten    --      0.1975                 5.9538                 1.2755

                     13                     14                     15
                      A                      A                      A
 Frequencies --    447.4410               466.8373               524.2369
 Red. masses --      2.3508                 2.5431                 2.8582
 Frc consts  --      0.2773                 0.3265                 0.4628
 IR Inten    --      3.7323                11.6545                 7.4901

                     16                     17                     18
                      A                      A                      A
 Frequencies --    632.8210               664.9381               694.2558
 Red. masses --      4.9953                 2.2083                 4.4041
 Frc consts  --      1.1786                 0.5753                 1.2507
 IR Inten    --     11.1211                38.5062                79.1822

                     19                     20                     21
                      A                      A                      A
 Frequencies --    726.4046               739.3938               807.7874
 Red. masses --      3.4604                 2.7020                 5.2345
 Frc consts  --      1.0758                 0.8703                 2.0124
 IR Inten    --      2.9333                30.7645                13.5352

                     22                     23                     24
                      A                      A                      A
 Frequencies --    834.9323               879.1662               913.1111
 Red. masses --      2.7677                 2.3980                 5.0936
 Frc consts  --      1.1368                 1.0920                 2.5022
 IR Inten    --     50.7670                 6.4078                66.9143

                     25                     26                     27
                      A                      A                      A
 Frequencies --    930.9557               931.5889               954.2060
 Red. masses --      2.2720                 1.7214                 1.8733
 Frc consts  --      1.1601                 0.8802                 1.0050
 IR Inten    --      8.2554                 0.5845                 9.4514

                     28                     29                     30
                      A                      A                      A
 Frequencies --    973.7897               981.5641              1014.3428
 Red. masses --      1.2118                 1.3727                 2.3447
 Frc consts  --      0.6770                 0.7792                 1.4213
 IR Inten    --      0.6241                13.6515                53.7336

                     31                     32                     33
                      A                      A                      A
 Frequencies --   1062.2385              1072.4470              1100.6793
 Red. masses --      1.4163                 1.4288                 1.2639
 Frc consts  --      0.9415                 0.9683                 0.9022
 IR Inten    --      6.2505                 2.7682                39.7822

                     34                     35                     36
                      A                      A                      A
 Frequencies --   1173.3197              1222.0223              1251.5886
 Red. masses --      2.1175                 2.3689                 2.2063
 Frc consts  --      1.7175                 2.0842                 2.0363
 IR Inten    --     80.6456                12.7199                 7.2869

                     37                     38                     39
                      A                      A                      A
 Frequencies --   1268.2434              1270.4302              1351.4039
 Red. masses --      2.8128                 2.8708                 1.7946
 Frc consts  --      2.6656                 2.7300                 1.9310
 IR Inten    --     89.4612                18.5312                47.8934

                     40                     41                     42
                      A                      A                      A
 Frequencies --   1367.2743              1407.5461              1425.6637
 Red. masses --      1.6417                 1.5321                 1.2913
 Frc consts  --      1.8083                 1.7884                 1.5463
 IR Inten    --      8.6838                46.7150                11.9388

                     43                     44                     45
                      A                      A                      A
 Frequencies --   1428.7274              1455.7964              1506.5940
 Red. masses --      1.2424                 1.2292                 1.0501
 Frc consts  --      1.4942                 1.5348                 1.4043
 IR Inten    --      6.6661                 9.9609                 0.7160

                     46                     47                     48
                      A                      A                      A
 Frequencies --   1513.2233              1520.9811              1529.8977
 Red. masses --      1.0480                 1.0467                 1.0893
 Frc consts  --      1.4139                 1.4267                 1.5022
 IR Inten    --      0.9700                 1.6873                 2.2665

                     49                     50                     51
                      A                      A                      A
 Frequencies --   1532.8747              1550.2866              1565.5114
 Red. masses --      1.0586                 1.0647                 1.2151
 Frc consts  --      1.4655                 1.5077                 1.7546
 IR Inten    --      1.3269                14.5444                 5.2797

                     52                     53                     54
                      A                      A                      A
 Frequencies --   1683.5245              1868.1727              3044.7708
 Red. masses --      6.7514                12.4960                 1.0382
 Frc consts  --     11.2741                25.6953                 5.6706
 IR Inten    --      2.7676               401.7220                23.6399

                     55                     56                     57
                      A                      A                      A
 Frequencies --   3048.5175              3055.6708              3062.2497
 Red. masses --      1.0839                 1.0378                 1.0383
 Frc consts  --      5.9347                 5.7091                 5.7365
 IR Inten    --     27.0508                21.3634                12.0373

                     58                     59                     60
                      A                      A                      A
 Frequencies --   3112.1079              3123.5617              3126.0764
 Red. masses --      1.0983                 1.1003                 1.1013
 Frc consts  --      6.2675                 6.3250                 6.3407
 IR Inten    --     21.3196                 9.4519                25.9677

                     61                     62                     63
                      A                      A                      A
 Frequencies --   3137.6574              3141.5157              3150.8492
 Red. masses --      1.1023                 1.1017                 1.1011
 Frc consts  --      6.3936                 6.4062                 6.4407
 IR Inten    --     44.2897                26.0461                30.1610

                     64                     65                     66
                      A                      A                      A
 Frequencies --   3247.0331              3272.9678              3531.1480
 Red. masses --      1.0893                 1.1058                 1.0744
 Frc consts  --      6.7668                 6.9793                 7.8931
 IR Inten    --      1.3808                 1.1325                 1.3743

 - Thermochemistry -
 -------------------
 Temperature   298.150 Kelvin.  Pressure   1.00000 Atm.
 Atom     1 has atomic number  6 and mass  12.00000

 Molecular mass:   155.09463 amu.
 Principal axes and moments of inertia in atomic units:
                           1         2         3
     Eigenvalues --   855.388032404.111152560.13713
           X            0.99973  -0.02314  -0.00317
           Y            0.02300   0.99900  -0.03821
           Z            0.00405   0.03813   0.99926
 This molecule is an asymmetric top.
 Rotational symmetry number  1.
 Warning -- assumption of classical behavior for rotation
           may cause significant error
 Rotational temperatures (Kelvin)      0.10126     0.03603     0.03383
 Rotational constants (GHZ):           2.10985     0.75069     0.70494
 Zero-point vibrational energy     539904.3 (Joules/Mol)
                                  129.04023 (Kcal/Mol)
 Warning -- explicit consideration of  15 degrees of freedom as
           vibrations may cause significant error
 Vibrational temperatures:     52.89   110.46   203.13   301.13   343.27
          (Kelvin)            372.41   398.59   425.88   439.09   487.19
                              552.10   579.29   643.77   671.67   754.26
                              910.49   956.70   998.88  1045.13  1063.82
                             1162.23  1201.28  1264.92  1313.76  1339.44
                             1340.35  1372.89  1401.07  1412.25  1459.41
                             1528.32  1543.01  1583.63  1688.15  1758.22
                             1800.76  1824.72  1827.87  1944.37  1967.20
                             2025.14  2051.21  2055.62  2094.57  2167.65
                             2177.19  2188.35  2201.18  2205.46  2230.52
                             2252.42  2422.22  2687.88  4380.75  4386.14
                             4396.43  4405.89  4477.63  4494.11  4497.73
                             4514.39  4519.94  4533.37  4671.76  4709.07
                             5080.53

 Zero-point correction=                           0.205639 (Hartree/Particle)
 Thermal correction to Energy=                    0.216641
 Thermal correction to Enthalpy=                  0.217586
 Thermal correction to Gibbs Free Energy=         0.169121
 Sum of electronic and zero-point Energies=           -517.703493
 Sum of electronic and thermal Energies=              -517.692490
 Sum of electronic and thermal Enthalpies=            -517.691546
 Sum of electronic and thermal Free Energies=         -517.740011

                     E (Thermal)             CV                S
                      KCal/Mol        Cal/Mol-Kelvin    Cal/Mol-Kelvin
 Total                  135.945             42.656            102.003
 Electronic               0.000              0.000              0.000
 Translational            0.889              2.981             41.026
 Rotational               0.889              2.981             30.044
 Vibrational            134.167             36.694             30.932
 Vibration     1          0.594              1.982              5.427
 Vibration     2          0.599              1.965              3.972
 Vibration     3          0.615              1.912              2.788
 Vibration     4          0.642              1.827              2.050
 Vibration     5          0.657              1.782              1.813
 Vibration     6          0.668              1.748              1.670
 Vibration     7          0.678              1.716              1.552
 Vibration     8          0.690              1.681              1.439
 Vibration     9          0.696              1.664              1.388
 Vibration    10          0.719              1.598              1.219
 Vibration    11          0.753              1.505              1.024
 Vibration    12          0.768              1.464              0.953
 Vibration    13          0.807              1.367              0.804
 Vibration    14          0.824              1.324              0.746
 Vibration    15          0.879              1.196              0.600

 Optimization completed.
    -- Stationary point found.
 Normal termination of Gaussian 16 at Tue Dec  8 19:21:04 2020.

 ----------------------------------------------------------------------
 # B3LYP/6-311++G(d,p) empiricaldispersion=gd3bj scf=xqc pop=npa geom=c
 heck
 ----------------------------------------------------------------------

 --------------------------------------
 CID_18520736_JID_1200_Energie_neutraal
 --------------------------------------
 Structure from the checkpoint file:  "JID_1200.chk"
 Charge =  0 Multiplicity = 1

 SCF Done:  E(RB3LYP) =  -518.062473241     A.U. after   14 cycles
 Normal termination of Gaussian 16 at Tue Dec  8 19:23:22 2020.

 ----------------------------------------------------------------------
 # B3LYP/6-311++G(d,p) empiricaldispersion=gd3bj scf=xqc pop=npa geom=c
 heck
 ----------------------------------------------------------------------

 ------------------------------------
 CID_18520736_JID_1200_Energie_kation
 ------------------------------------
 Structure from the checkpoint file:  "JID_1200.chk"
 Charge =  1 Multiplicity = 2

 SCF Done:  E(UB3LYP) =  -517.729286644     A.U. after   22 cycles
 Normal termination of Gaussian 16 at Tue Dec  8 19:28:27 2020.
 Gaussian 16:  ES64L-G16RevA.03 25-Dec-2016

 ----------------------------------------------------------------------
 # B3LYP/6-311++G(d,p) empiricaldispersion=gd3bj scf=xqc pop=npa geom=c
 heck
 ----------------------------------------------------------------------

 -----------------------------------
 CID_18520736_JID_1200_Energie_anion
 -----------------------------------
 Structure from the checkpoint file:  "JID_1200.chk"
 Charge = -1 Multiplicity = 2

                         Standard orientation:
 ---------------------------------------------------------------------
 Center     Atomic      Atomic             Coordinates (Angstroms)
 Number     Number       Type             X           Y           Z
 ---------------------------------------------------------------------
      1          6           0        1.838694    0.988886   -1.162538
      2          6           0        1.695664   -0.148237   -0.138720
      3          6           0        1.066790   -1.384182   -0.809984
      4          6           0        3.092219   -0.514657    0.388803
      5          7           0        0.953018    0.334859    1.055104
      6          6           0       -0.446610    0.579186    1.067283
      7          6           0       -0.976502    1.552543    0.045362
      8          6           0       -2.015755    1.017347   -0.594956
      9          6           0       -2.232303   -0.365228   -0.091653
     10          8           0       -3.061314   -1.174260   -0.428019
     11          8           0       -1.292641   -0.609474    0.873196
     12          1           0        2.518729    0.682481   -1.964835
     13          1           0        2.245421    1.886142   -0.685002
     14          1           0        0.881240    1.241990   -1.625320
     15          1           0        1.743720   -1.776021   -1.578223
     16          1           0        0.878508   -2.175902   -0.078643
     17          1           0        0.117419   -1.145004   -1.294776
     18          1           0        3.553144    0.342490    0.890780
     19          1           0        3.036528   -1.346051    1.103135
     20          1           0        3.741766   -0.827901   -0.434070
     21          1           0        1.193260   -0.237475    1.859186
     22          1           0       -0.693114    0.932395    2.076962
     23          1           0       -0.551233    2.541486   -0.072725
     24          1           0       -2.638063    1.453278   -1.365209
 ---------------------------------------------------------------------

 SCF Done:  E(UB3LYP) =  -518.062105703     A.U. after   30 cycles

 The electronic state is 2-A.
 Alpha  occ. eigenvalues --  -19.00566 -18.94633 -14.18169 -10.13325 -10.12480
 Alpha  occ. eigenvalues --  -10.09735 -10.04806 -10.04034 -10.03749 -10.03105
 Alpha  occ. eigenvalues --  -10.02657  -0.94689  -0.87158  -0.79188  -0.67730
 Alpha  occ. eigenvalues --   -0.65562  -0.57891  -0.57082  -0.55079  -0.46166
 Alpha  occ. eigenvalues --   -0.43637  -0.42444  -0.38428  -0.37395  -0.34433
 Alpha  occ. eigenvalues --   -0.32942  -0.31330  -0.30800  -0.28928  -0.28251
 Alpha  occ. eigenvalues --   -0.27260  -0.27058  -0.25729  -0.25154  -0.23782
 Alpha  occ. eigenvalues --   -0.22397  -0.21769  -0.21439  -0.16455  -0.14310
 Alpha  occ. eigenvalues --   -0.13440  -0.11481   0.04947
 Alpha virt. eigenvalues --    0.07499   0.08778   0.09236   0.10216   0.10790
 Alpha virt. eigenvalues --    0.11243   0.11802   0.12140   0.13501   0.14045
 Alpha virt. eigenvalues --    0.15258   0.15424   0.16100   0.16928   0.17512

  Beta  occ. eigenvalues --  -19.00539 -18.94401 -14.18102 -10.13195 -10.12512
  Beta  occ. eigenvalues --  -10.09736 -10.04772 -10.04001 -10.03740 -10.02713
  Beta  occ. eigenvalues --  -10.02516  -0.94512  -0.86834  -0.79089  -0.67597
  Beta  occ. eigenvalues --   -0.65013  -0.57809  -0.57046  -0.54804  -0.45641
  Beta  occ. eigenvalues --   -0.43453  -0.42180  -0.38188  -0.37272  -0.34303
  Beta  occ. eigenvalues --   -0.32850  -0.31220  -0.30548  -0.28583  -0.27970
  Beta  occ. eigenvalues --   -0.27131  -0.26873  -0.25553  -0.25068  -0.23620
  Beta  occ. eigenvalues --   -0.22140  -0.21698  -0.21308  -0.15757  -0.13261
  Beta  occ. eigenvalues --   -0.12589  -0.11311
  Beta virt. eigenvalues --    0.07623   0.09266   0.09348   0.10298   0.10524
  Beta virt. eigenvalues --    0.11227   0.11575   0.12010   0.12269   0.13577
  Beta virt. eigenvalues --    0.14314   0.15249   0.15650   0.16039   0.16925

 Mulliken charges and spin densities:
               1          2
     1  C    0.012800  -0.630305
     2  C   -0.961539   1.045448
     3  C   -0.119879  -0.393845
     4  C    0.817663  -1.257702
     5  N    0.084772  -0.003182
     6  C    0.082587  -0.601687
     7  C   -0.151438   0.413959
     8  C   -0.098073   0.111368
     9  C   -0.086793   0.076120
    10  O   -0.387251   0.073031
    11  O   -0.065208   0.019704
    12  H   -0.083893   0.207842
    13  H    0.053051   0.095619
    14  H    0.103424   0.051690
    15  H    0.057930   0.070594
    16  H    0.149925   0.014703
    17  H    0.156127   0.025081
    18  H   -0.166217   0.317117
    19  H   -0.243207   0.382840
    20  H   -0.121521   0.250806
    21  H   -0.067148   0.313663
    22  H   -0.191520   0.395843
    23  H    0.104797   0.009531
    24  H    0.120612   0.011761
 Sum of Mulliken charges =  -1.00000   1.00000

 Dipole moment (field-independent basis, Debye):
    X=              1.6198    Y=              2.1721    Z=             -1.4806  Tot=              3.0877
 Quadrupole moment (field-independent basis, Debye-Ang):
   XX=           -120.1229   YY=            -86.7692   ZZ=            -89.3208
   XY=             -7.4891   XZ=             -2.0168   YZ=             -1.1967

 Summary of Natural Population Analysis:

                                       Natural Population
                Natural  -----------------------------------------------
    Atom  No    Charge         Core      Valence    Rydberg      Total
 -----------------------------------------------------------------------
      C    1   -0.28963      0.99961     2.28278    0.00724     3.28963
      C    2    0.05513      0.99959     1.93296    0.01232     2.94487
      C    3   -0.29329      0.99962     2.28654    0.00713     3.29329
      C    4   -0.28560      0.99962     2.27886    0.00712     3.28560
      N    5   -0.34174      0.99969     2.82826    0.01379     3.84174
      C    6    0.13159      0.99956     1.84999    0.01886     2.86841
      C    7   -0.01705      0.99952     2.00769    0.00983     3.01705
      C    8   -0.14547      0.99946     2.13720    0.00881     3.14547
      C    9    0.39927      0.99967     1.57446    0.02659     2.60073
      O   10   -0.29387      0.99986     3.28773    0.00627     4.29387
      O   11   -0.29791      0.99987     3.29052    0.00752     4.29791
      H   12    0.09667      0.00000     0.40250    0.00083     0.40333
      H   13    0.10026      0.00000     0.39876    0.00099     0.39974
      H   14    0.10762      0.00000     0.39151    0.00087     0.39238
      H   15    0.09338      0.00000     0.40591    0.00072     0.40662
      H   16    0.10338      0.00000     0.39540    0.00122     0.39662
      H   17    0.10654      0.00000     0.39235    0.00111     0.39346
      H   18    0.10209      0.00000     0.39673    0.00118     0.39791
      H   19    0.09778      0.00000     0.40109    0.00113     0.40222
      H   20    0.09977      0.00000     0.39915    0.00109     0.40023
      H   21    0.18077      0.00000     0.31561    0.00362     0.31923
      H   22    0.09800      0.00000     0.39993    0.00207     0.40200
      H   23    0.09406      0.00000     0.40509    0.00085     0.40594
      H   24    0.09825      0.00000     0.40077    0.00098     0.40175
 =======================================================================
   * Total *   -0.00000     10.99608    30.86178    0.14214    42.00000

 Normal termination of Gaussian 16 at Tue Dec  8 19:35:15 2020.
