 Gaussian 16, Revision A.03,

 -----------------------------------------------------------
 # opt freq B3LYP/6-31G(d) empiricaldispersion=gd3bj scf=xqc
 -----------------------------------------------------------

 -------------------------------
 CID_120718628_JID_8738_neutraal
 -------------------------------
 Symbolic Z-matrix:
 Charge =  0 Multiplicity = 1

 SCF Done:  E(RB3LYP) =  -1184.01432429     A.U. after   13 cycles
 SCF Done:  E(RB3LYP) =  -1184.02133038     A.U. after   12 cycles
 SCF Done:  E(RB3LYP) =  -1184.02218094     A.U. after   11 cycles
 SCF Done:  E(RB3LYP) =  -1184.02244423     A.U. after   11 cycles
 SCF Done:  E(RB3LYP) =  -1184.02251656     A.U. after   11 cycles
 SCF Done:  E(RB3LYP) =  -1184.02255541     A.U. after   11 cycles
 SCF Done:  E(RB3LYP) =  -1184.02257593     A.U. after   11 cycles
 SCF Done:  E(RB3LYP) =  -1184.02258049     A.U. after   10 cycles
 SCF Done:  E(RB3LYP) =  -1184.02260334     A.U. after    9 cycles
 SCF Done:  E(RB3LYP) =  -1184.02265305     A.U. after   11 cycles
 SCF Done:  E(RB3LYP) =  -1184.02597336     A.U. after   10 cycles
 SCF Done:  E(RB3LYP) =  -1184.02598235     A.U. after    8 cycles
 SCF Done:  E(RB3LYP) =  -1184.02598938     A.U. after    9 cycles
 SCF Done:  E(RB3LYP) =  -1184.02599133     A.U. after    9 cycles
 SCF Done:  E(RB3LYP) =  -1184.02599160     A.U. after    8 cycles
 SCF Done:  E(RB3LYP) =  -1184.02599179     A.U. after    7 cycles
 Optimization completed.
    -- Stationary point found.
 Normal termination of Gaussian 16 at Fri Dec 11 21:48:56 2020.

 --------------------------------------------------------------------
 #N Geom=AllCheck Guess=TCheck SCRF=Check GenChk RB3LYP/6-31G(d) Freq
 --------------------------------------------------------------------

 Structure from the checkpoint file:  "JID_8738.chk"
 -------------------------------
 CID_120718628_JID_8738_neutraal
 -------------------------------
 Charge =  0 Multiplicity = 1

 SCF Done:  E(RB3LYP) =  -1184.02599179     A.U. after    1 cycles

  Exact polarizability: 191.665   0.196 144.102   1.665   0.624 141.185
 Approx polarizability: 223.014  -1.037 227.918  -0.809   3.559 229.457

                      1                      2                      3
                      A                      A                      A
 Frequencies --     30.5602                33.1521                59.6792
 Red. masses --      4.6780                 4.4688                 3.4832
 Frc consts  --      0.0026                 0.0029                 0.0073
 IR Inten    --      0.7662                 0.8105                 0.8612

                      4                      5                      6
                      A                      A                      A
 Frequencies --     77.5105                89.1794               115.5263
 Red. masses --      1.9297                 3.1989                 3.5736
 Frc consts  --      0.0068                 0.0150                 0.0281
 IR Inten    --      0.3158                 1.6387                 2.4206

                      7                      8                      9
                      A                      A                      A
 Frequencies --    133.8080               170.6185               177.0092
 Red. masses --      3.6260                 4.0758                 2.5906
 Frc consts  --      0.0383                 0.0699                 0.0478
 IR Inten    --      1.8263                 2.7231                 0.0248

                     10                     11                     12
                      A                      A                      A
 Frequencies --    236.5327               248.9593               259.1868
 Red. masses --      2.1998                 4.0462                 4.7227
 Frc consts  --      0.0725                 0.1478                 0.1869
 IR Inten    --      2.0379                 1.7384                 4.7392

                     13                     14                     15
                      A                      A                      A
 Frequencies --    290.2948               312.7012               334.3943
 Red. masses --      2.5140                 2.9903                 2.3441
 Frc consts  --      0.1248                 0.1723                 0.1544
 IR Inten    --      2.3202                 9.5749                 3.2257

                     16                     17                     18
                      A                      A                      A
 Frequencies --    351.8486               388.0476               406.9690
 Red. masses --      2.8943                 2.2963                 3.6019
 Frc consts  --      0.2111                 0.2037                 0.3515
 IR Inten    --      1.1991                 4.5071                 3.7878

                     19                     20                     21
                      A                      A                      A
 Frequencies --    419.2562               446.2028               482.7143
 Red. masses --      1.9037                 4.3507                 2.9976
 Frc consts  --      0.1972                 0.5104                 0.4115
 IR Inten    --      6.6377                 2.4293                 1.3825

                     22                     23                     24
                      A                      A                      A
 Frequencies --    493.1670               514.9373               570.2704
 Red. masses --      3.9749                 4.8814                 3.4517
 Frc consts  --      0.5696                 0.7626                 0.6614
 IR Inten    --      1.1364                22.7370                16.8559

                     25                     26                     27
                      A                      A                      A
 Frequencies --    592.9027               618.5355               627.3228
 Red. masses --      3.9824                 1.9131                 4.2028
 Frc consts  --      0.8248                 0.4312                 0.9745
 IR Inten    --     36.9671                 6.1319                26.8978

                     28                     29                     30
                      A                      A                      A
 Frequencies --    656.8949               709.6267               728.5957
 Red. masses --      3.5573                 2.2330                 2.3645
 Frc consts  --      0.9044                 0.6625                 0.7395
 IR Inten    --     46.1819                77.2455                12.0772

                     31                     32                     33
                      A                      A                      A
 Frequencies --    787.1665               806.7898               817.7268
 Red. masses --      3.1094                 2.0939                 1.6023
 Frc consts  --      1.1352                 0.8030                 0.6313
 IR Inten    --     30.7280               148.4447                 4.6041

                     34                     35                     36
                      A                      A                      A
 Frequencies --    829.8511               860.2807               869.1189
 Red. masses --      1.8120                 1.8465                 1.7853
 Frc consts  --      0.7352                 0.8051                 0.7945
 IR Inten    --     12.6494                 6.6104                 9.1810

                     37                     38                     39
                      A                      A                      A
 Frequencies --    887.9356               902.6124               908.6668
 Red. masses --      1.8071                 3.1057                 2.3673
 Frc consts  --      0.8394                 1.4908                 1.1516
 IR Inten    --     12.1682                 0.5383                19.1626

                     40                     41                     42
                      A                      A                      A
 Frequencies --    941.7790               948.6947               960.8856
 Red. masses --      2.5681                 2.5277                 1.9846
 Frc consts  --      1.3420                 1.3404                 1.0796
 IR Inten    --     88.3375               102.5825                 9.5819

                     43                     44                     45
                      A                      A                      A
 Frequencies --    977.1780               979.2820               994.5570
 Red. masses --      2.1441                 2.0213                 2.3453
 Frc consts  --      1.2062                 1.1421                 1.3668
 IR Inten    --     40.0301                28.6859                17.1520

                     46                     47                     48
                      A                      A                      A
 Frequencies --   1004.8909              1016.7527              1026.6675
 Red. masses --      2.0243                 1.8797                 2.1993
 Frc consts  --      1.2044                 1.1449                 1.3658
 IR Inten    --     23.5414                 2.6368                13.2888

                     49                     50                     51
                      A                      A                      A
 Frequencies --   1048.5621              1062.2739              1064.6349
 Red. masses --      1.7752                 2.0956                 1.9621
 Frc consts  --      1.1499                 1.3933                 1.3103
 IR Inten    --     10.9946                21.7785                98.4821

                     52                     53                     54
                      A                      A                      A
 Frequencies --   1100.3604              1110.1457              1119.3341
 Red. masses --      3.2157                 3.4560                 8.0488
 Frc consts  --      2.2940                 2.5095                 5.9416
 IR Inten    --     20.4991                37.9562               107.9995

                     55                     56                     57
                      A                      A                      A
 Frequencies --   1135.7710              1148.1096              1168.1900
 Red. masses --      2.5030                 2.5332                 4.0642
 Frc consts  --      1.9024                 1.9674                 3.2678
 IR Inten    --     17.9625                11.2247                22.0367

                     58                     59                     60
                      A                      A                      A
 Frequencies --   1187.1428              1196.2693              1221.3371
 Red. masses --      1.6201                 1.3828                 2.5185
 Frc consts  --      1.3452                 1.1659                 2.2134
 IR Inten    --     12.4578                 2.2249                 5.1896

                     61                     62                     63
                      A                      A                      A
 Frequencies --   1229.2100              1242.7710              1245.6227
 Red. masses --      1.3253                 1.2996                 1.2105
 Frc consts  --      1.1798                 1.1826                 1.1066
 IR Inten    --      2.4747                 3.8869                 6.3277

                     64                     65                     66
                      A                      A                      A
 Frequencies --   1261.6469              1265.8157              1273.7940
 Red. masses --      1.2758                 1.3533                 1.2125
 Frc consts  --      1.1965                 1.2776                 1.1591
 IR Inten    --      7.5457                13.4335                16.0715

                     67                     68                     69
                      A                      A                      A
 Frequencies --   1297.6922              1305.5287              1307.9556
 Red. masses --      5.0169                 1.4703                 1.5489
 Frc consts  --      4.9777                 1.4765                 1.5612
 IR Inten    --    146.4423                15.4229                16.9337

                     70                     71                     72
                      A                      A                      A
 Frequencies --   1333.7639              1339.0595              1343.0924
 Red. masses --      1.3212                 1.3483                 1.4421
 Frc consts  --      1.3848                 1.4244                 1.5327
 IR Inten    --      4.2366                 2.3091                13.7507

                     73                     74                     75
                      A                      A                      A
 Frequencies --   1351.2556              1357.1805              1370.2050
 Red. masses --      1.2228                 1.3556                 1.2912
 Frc consts  --      1.3154                 1.4712                 1.4282
 IR Inten    --      4.1659                 0.2024                 0.4004

                     76                     77                     78
                      A                      A                      A
 Frequencies --   1371.6030              1383.0597              1384.7266
 Red. masses --      1.3588                 1.2718                 1.3526
 Frc consts  --      1.5061                 1.4334                 1.5281
 IR Inten    --      1.1709                 3.8304                11.9621

                     79                     80                     81
                      A                      A                      A
 Frequencies --   1391.7854              1401.8953              1412.4652
 Red. masses --      1.4222                 1.5407                 1.3877
 Frc consts  --      1.6232                 1.7840                 1.6312
 IR Inten    --      1.0148                 1.5106                 4.2992

                     82                     83                     84
                      A                      A                      A
 Frequencies --   1423.2894              1495.6542              1510.7181
 Red. masses --      1.3646                 1.1031                 1.0834
 Frc consts  --      1.6287                 1.4538                 1.4568
 IR Inten    --      7.5049                 7.5115                 5.1624

                     85                     86                     87
                      A                      A                      A
 Frequencies --   1514.3959              1514.8071              1516.9588
 Red. masses --      1.0780                 1.1420                 1.0967
 Frc consts  --      1.4567                 1.5440                 1.4869
 IR Inten    --      0.3778                 3.0550                 7.0861

                     88                     89                     90
                      A                      A                      A
 Frequencies --   1522.1910              1526.5294              1528.4861
 Red. masses --      1.1076                 1.0829                 1.0965
 Frc consts  --      1.5120                 1.4868                 1.5093
 IR Inten    --      1.0069                 2.7699                 7.0825

                     91                     92                     93
                      A                      A                      A
 Frequencies --   1528.7571              1538.0514              1546.8506
 Red. masses --      1.0832                 1.0882                 1.1000
 Frc consts  --      1.4916                 1.5167                 1.5508
 IR Inten    --      3.7179                 1.5707                 3.0335

                     94                     95                     96
                      A                      A                      A
 Frequencies --   1558.8110              3016.0331              3034.4141
 Red. masses --      1.0876                 1.0616                 1.0691
 Frc consts  --      1.5570                 5.6897                 5.7997
 IR Inten    --      9.4360                22.4408                21.9970

                     97                     98                     99
                      A                      A                      A
 Frequencies --   3037.0668              3042.6650              3048.8159
 Red. masses --      1.0688                 1.0642                 1.0697
 Frc consts  --      5.8085                 5.8048                 5.8583
 IR Inten    --      7.0398                42.5045                37.6992

                    100                    101                    102
                      A                      A                      A
 Frequencies --   3057.1886              3063.3339              3066.0705
 Red. masses --      1.0814                 1.0846                 1.0722
 Frc consts  --      5.9552                 5.9964                 5.9384
 IR Inten    --      5.6402                83.0366                19.1140

                    103                    104                    105
                      A                      A                      A
 Frequencies --   3071.1380              3074.1977              3080.9888
 Red. masses --      1.0716                 1.0637                 1.0606
 Frc consts  --      5.9551                 5.9229                 5.9316
 IR Inten    --     37.1517                10.0069                29.3729

                    106                    107                    108
                      A                      A                      A
 Frequencies --   3090.1012              3090.2881              3092.8807
 Red. masses --      1.0696                 1.0957                 1.0980
 Frc consts  --      6.0175                 6.1650                 6.1882
 IR Inten    --     61.6363                31.6987                39.8690

                    109                    110                    111
                      A                      A                      A
 Frequencies --   3097.4947              3122.5408              3122.9014
 Red. masses --      1.0956                 1.0988                 1.1038
 Frc consts  --      6.1930                 6.3122                 6.3423
 IR Inten    --     32.9502                30.1843                 7.3582

                    112                    113                    114
                      A                      A                      A
 Frequencies --   3131.7234              3137.7569              3141.9317
 Red. masses --      1.1014                 1.0961                 1.1030
 Frc consts  --      6.3642                 6.3585                 6.4152
 IR Inten    --     25.7645                 6.6298                26.0850

                    115                    116                    117
                      A                      A                      A
 Frequencies --   3163.1601              3172.5067              3464.2193
 Red. masses --      1.0979                 1.0961                 1.0735
 Frc consts  --      6.4723                 6.4998                 7.5902
 IR Inten    --     12.1830                 3.0673                 2.4838

 - Thermochemistry -
 -------------------
 Temperature   298.150 Kelvin.  Pressure   1.00000 Atm.
 Atom     1 has atomic number  6 and mass  12.00000

 Molecular mass:   273.15110 amu.
 Principal axes and moments of inertia in atomic units:
                           1         2         3
     Eigenvalues --  1669.650439135.223919263.39727
           X            0.99999  -0.00170   0.00365
           Y            0.00152   0.99882   0.04853
           Z           -0.00373  -0.04852   0.99882
 This molecule is an asymmetric top.
 Rotational symmetry number  1.
 Warning -- assumption of classical behavior for rotation
           may cause significant error
 Rotational temperatures (Kelvin)      0.05188     0.00948     0.00935
 Rotational constants (GHZ):           1.08091     0.19756     0.19482
 Zero-point vibrational energy     955065.1 (Joules/Mol)
                                  228.26604 (Kcal/Mol)
 Warning -- explicit consideration of  26 degrees of freedom as
           vibrations may cause significant error
 Vibrational temperatures:     43.97    47.70    85.87   111.52   128.31
          (Kelvin)            166.22   192.52   245.48   254.68   340.32
                              358.20   372.91   417.67   449.91   481.12
                              506.23   558.31   585.54   603.22   641.99
                              694.52   709.56   740.88   820.49   853.05
                              889.93   902.58   945.13  1020.99  1048.29
                             1132.56  1160.79  1176.53  1193.97  1237.75
                             1250.47  1277.54  1298.66  1307.37  1355.01
                             1364.96  1382.50  1405.94  1408.97  1430.95
                             1445.81  1462.88  1477.15  1508.65  1528.38
                             1531.77  1583.17  1597.25  1610.47  1634.12
                             1651.87  1680.76  1708.03  1721.16  1757.23
                             1768.56  1788.07  1792.17  1815.23  1821.23
                             1832.71  1867.09  1878.36  1881.86  1918.99
                             1926.61  1932.41  1944.16  1952.68  1971.42
                             1973.43  1989.91  1992.31  2002.47  2017.01
                             2032.22  2047.80  2151.91  2173.59  2178.88
                             2179.47  2182.57  2190.09  2196.34  2199.15
                             2199.54  2212.91  2225.57  2242.78  4339.40
                             4365.85  4369.66  4377.72  4386.57  4398.61
                             4407.45  4411.39  4418.68  4423.08  4432.86
                             4445.97  4446.24  4449.97  4456.60  4492.64
                             4493.16  4505.85  4514.53  4520.54  4551.08
                             4564.53  4984.24

 Zero-point correction=                           0.363765 (Hartree/Particle)
 Thermal correction to Energy=                    0.380650
 Thermal correction to Enthalpy=                  0.381594
 Thermal correction to Gibbs Free Energy=         0.318396
 Sum of electronic and zero-point Energies=          -1183.662227
 Sum of electronic and thermal Energies=             -1183.645342
 Sum of electronic and thermal Enthalpies=           -1183.644398
 Sum of electronic and thermal Free Energies=        -1183.707595

                     E (Thermal)             CV                S
                      KCal/Mol        Cal/Mol-Kelvin    Cal/Mol-Kelvin
 Total                  238.861             66.991            133.010
 Electronic               0.000              0.000              0.000
 Translational            0.889              2.981             42.713
 Rotational               0.889              2.981             33.313
 Vibrational            237.084             61.030             56.984
 Vibration     1          0.594              1.984              5.793
 Vibration     2          0.594              1.983              5.631
 Vibration     3          0.597              1.974              4.468
 Vibration     4          0.599              1.964              3.953
 Vibration     5          0.602              1.957              3.678
 Vibration     6          0.608              1.937              3.174
 Vibration     7          0.613              1.920              2.891
 Vibration     8          0.626              1.879              2.429
 Vibration     9          0.628              1.871              2.360
 Vibration    10          0.655              1.785              1.829
 Vibration    11          0.662              1.764              1.738
 Vibration    12          0.668              1.747              1.667
 Vibration    13          0.686              1.692              1.472
 Vibration    14          0.701              1.649              1.348
 Vibration    15          0.716              1.607              1.239
 Vibration    16          0.728              1.571              1.158
 Vibration    17          0.756              1.496              1.008
 Vibration    18          0.772              1.455              0.937
 Vibration    19          0.782              1.428              0.894
 Vibration    20          0.805              1.369              0.807
 Vibration    21          0.839              1.288              0.703
 Vibration    22          0.849              1.265              0.675
 Vibration    23          0.870              1.217              0.622
 Vibration    24          0.926              1.096              0.504
 Vibration    25          0.950              1.047              0.462
 Vibration    26          0.978              0.993              0.419

 Optimization completed.
    -- Stationary point found.
 Normal termination of Gaussian 16 at Fri Dec 11 22:08:05 2020.

 ----------------------------------------------------------------------
 # B3LYP/6-311++G(d,p) empiricaldispersion=gd3bj scf=xqc pop=npa geom=c
 heck
 ----------------------------------------------------------------------

 ---------------------------------------
 CID_120718628_JID_8738_Energie_neutraal
 ---------------------------------------
 Structure from the checkpoint file:  "JID_8738.chk"
 Charge =  0 Multiplicity = 1

 SCF Done:  E(RB3LYP) =  -1184.27128757     A.U. after   15 cycles
 Normal termination of Gaussian 16 at Fri Dec 11 22:16:42 2020.

 ----------------------------------------------------------------------
 # B3LYP/6-311++G(d,p) empiricaldispersion=gd3bj scf=xqc pop=npa geom=c
 heck
 ----------------------------------------------------------------------

 -------------------------------------
 CID_120718628_JID_8738_Energie_kation
 -------------------------------------
 Structure from the checkpoint file:  "JID_8738.chk"
 Charge =  1 Multiplicity = 2

 SCF Done:  E(UB3LYP) =  -1183.97710778     A.U. after   24 cycles
 Normal termination of Gaussian 16 at Fri Dec 11 22:35:21 2020.
 Gaussian 16:  ES64L-G16RevA.03 25-Dec-2016

 ----------------------------------------------------------------------
 # B3LYP/6-311++G(d,p) empiricaldispersion=gd3bj scf=xqc pop=npa geom=c
 heck
 ----------------------------------------------------------------------

 ------------------------------------
 CID_120718628_JID_8738_Energie_anion
 ------------------------------------
 Structure from the checkpoint file:  "JID_8738.chk"
 Charge = -1 Multiplicity = 2

                         Standard orientation:
 ---------------------------------------------------------------------
 Center     Atomic      Atomic             Coordinates (Angstroms)
 Number     Number       Type             X           Y           Z
 ---------------------------------------------------------------------
      1          6           0       -4.627584   -0.587046   -0.396321
      2          6           0       -4.492817    0.896688    0.042246
      3          6           0       -3.116071    1.351008   -0.503205
      4          7           0       -2.368101    0.116448   -0.841564
      5          6           0       -3.405944   -0.835338   -1.302957
      6         16           0       -1.417746   -0.474268    0.430057
      7          8           0       -2.033722   -0.303956    1.753102
      8          8           0       -0.986920   -1.816792    0.016705
      9          7           0       -0.195231    0.657305    0.354174
     10          6           0        0.587622    0.845422    1.605703
     11          6           0        1.988238    1.196251    1.093732
     12          6           0        2.122157    0.413452   -0.234734
     13          6           0        0.710455    0.597730   -0.818407
     14          6           0        3.204589    0.984251   -1.163418
     15          6           0        4.619924    0.691137   -0.637804
     16          7           0        4.879127   -0.726970   -0.379072
     17          6           0        3.857849   -1.313092    0.494520
     18          6           0        2.416453   -1.083271    0.015133
     19          1           0       -4.578661   -1.244112    0.476386
     20          1           0       -5.567800   -0.791217   -0.917006
     21          1           0       -4.515534    0.977653    1.130830
     22          1           0       -5.295916    1.521301   -0.360223
     23          1           0       -3.224323    1.912452   -1.437478
     24          1           0       -2.538481    1.960460    0.192025
     25          1           0       -3.018210   -1.853440   -1.280119
     26          1           0       -3.624564   -0.571998   -2.344127
     27          1           0        0.602299   -0.067916    2.209045
     28          1           0        0.137495    1.635105    2.211516
     29          1           0        2.058304    2.271813    0.890187
     30          1           0        2.756536    0.950308    1.830902
     31          1           0        0.632707    1.543258   -1.369284
     32          1           0        0.422792   -0.213626   -1.489720
     33          1           0        3.096169    0.531208   -2.160151
     34          1           0        3.060023    2.066256   -1.289405
     35          1           0        5.372202    1.057683   -1.345178
     36          1           0        4.782285    1.234427    0.303164
     37          1           0        4.872017   -1.226889   -1.268467
     38          1           0        4.057246   -2.386277    0.587337
     39          1           0        3.997256   -0.884564    1.496237
     40          1           0        2.267983   -1.625263   -0.929133
     41          1           0        1.697477   -1.512976    0.721602
 ---------------------------------------------------------------------

 SCF Done:  E(UB3LYP) =  -1184.26050444     A.U. after   30 cycles

 The electronic state is 2-A.
 Alpha  occ. eigenvalues --  -88.98129 -19.02514 -19.02506 -14.25417 -14.25213
 Alpha  occ. eigenvalues --  -14.20842 -10.12010 -10.11542 -10.11330 -10.11173
 Alpha  occ. eigenvalues --  -10.10430 -10.10172 -10.09852 -10.08621 -10.08314
 Alpha  occ. eigenvalues --  -10.08087 -10.07591 -10.07495  -8.04128  -6.00379
 Alpha  occ. eigenvalues --   -6.00366  -6.00305  -1.03454  -0.91606  -0.86346
 Alpha  occ. eigenvalues --   -0.85389  -0.82361  -0.73186  -0.69228  -0.66555
 Alpha  occ. eigenvalues --   -0.66210  -0.64701  -0.61963  -0.58223  -0.54091
 Alpha  occ. eigenvalues --   -0.52630  -0.52579  -0.50040  -0.47409  -0.46025
 Alpha  occ. eigenvalues --   -0.44924  -0.42766  -0.40613  -0.40128  -0.39743
 Alpha  occ. eigenvalues --   -0.37441  -0.36425  -0.36161  -0.35903  -0.35701
 Alpha  occ. eigenvalues --   -0.35323  -0.33094  -0.32458  -0.31764  -0.31068
 Alpha  occ. eigenvalues --   -0.30603  -0.30031  -0.29292  -0.28109  -0.26836
 Alpha  occ. eigenvalues --   -0.26766  -0.26595  -0.26142  -0.26013  -0.25181
 Alpha  occ. eigenvalues --   -0.24571  -0.24346  -0.23594  -0.22827  -0.22118
 Alpha  occ. eigenvalues --   -0.21145  -0.17463  -0.16004  -0.13681   0.03902
 Alpha virt. eigenvalues --    0.05451   0.06437   0.07028   0.07575   0.07981
 Alpha virt. eigenvalues --    0.08224   0.09073   0.09303   0.09580   0.10078
 Alpha virt. eigenvalues --    0.10414   0.11007   0.11432   0.12039   0.12221

  Beta  occ. eigenvalues --  -88.98128 -19.02510 -19.02504 -14.25417 -14.25214
  Beta  occ. eigenvalues --  -14.20828 -10.11997 -10.11522 -10.11306 -10.11157
  Beta  occ. eigenvalues --  -10.10422 -10.10155 -10.09854 -10.08599 -10.08303
  Beta  occ. eigenvalues --  -10.08072 -10.07568 -10.07484  -8.04127  -6.00378
  Beta  occ. eigenvalues --   -6.00365  -6.00303  -1.03449  -0.91601  -0.86338
  Beta  occ. eigenvalues --   -0.85379  -0.82332  -0.73169  -0.69203  -0.66525
  Beta  occ. eigenvalues --   -0.66184  -0.64662  -0.61935  -0.58190  -0.54049
  Beta  occ. eigenvalues --   -0.52584  -0.52538  -0.50001  -0.47376  -0.45986
  Beta  occ. eigenvalues --   -0.44902  -0.42748  -0.40584  -0.40101  -0.39700
  Beta  occ. eigenvalues --   -0.37420  -0.36401  -0.36124  -0.35877  -0.35675
  Beta  occ. eigenvalues --   -0.35295  -0.33075  -0.32438  -0.31741  -0.31040
  Beta  occ. eigenvalues --   -0.30579  -0.30006  -0.29262  -0.28075  -0.26812
  Beta  occ. eigenvalues --   -0.26732  -0.26572  -0.26120  -0.25980  -0.25165
  Beta  occ. eigenvalues --   -0.24560  -0.24326  -0.23575  -0.22806  -0.22095
  Beta  occ. eigenvalues --   -0.21134  -0.17444  -0.15993  -0.13653
  Beta virt. eigenvalues --    0.05977   0.06474   0.07022   0.07460   0.08032
  Beta virt. eigenvalues --    0.08285   0.08497   0.09508   0.09614   0.09884
  Beta virt. eigenvalues --    0.10242   0.10667   0.11143   0.11560   0.12359

 Mulliken charges and spin densities:
               1          2
     1  C   -0.482190   0.173787
     2  C    0.346622  -0.774102
     3  C   -0.102279  -0.150894
     4  N   -0.143844   0.179497
     5  C    0.255589  -0.547522
     6  S    0.721614  -0.737580
     7  O   -0.133085   0.020777
     8  O   -0.136683   0.010161
     9  N   -0.181566   0.110088
    10  C    0.447649  -0.790697
    11  C   -0.065401  -0.413886
    12  C    0.003714   0.899515
    13  C   -0.663335  -0.007803
    14  C    0.127656  -0.354954
    15  C    0.145899  -0.822415
    16  N   -0.199523   0.173810
    17  C    0.400979  -1.210339
    18  C   -0.539417   0.127257
    19  H    0.190097  -0.019069
    20  H   -0.222222   0.393135
    21  H    0.096242   0.068864
    22  H   -0.198268   0.349623
    23  H   -0.453638   0.653186
    24  H    0.143885   0.078810
    25  H    0.165696   0.048261
    26  H   -0.201815   0.379415
    27  H    0.140060   0.072022
    28  H   -0.011679   0.209085
    29  H   -0.295468   0.499338
    30  H    0.134136  -0.001499
    31  H   -0.327762   0.558142
    32  H    0.219573   0.034157
    33  H   -0.125350   0.296508
    34  H   -0.133077   0.278020
    35  H   -0.441528   0.653039
    36  H    0.064540   0.088327
    37  H    0.048474   0.170968
    38  H    0.136276   0.047815
    39  H    0.029090   0.126637
    40  H   -0.070445   0.274105
    41  H    0.310788  -0.143591
 Sum of Mulliken charges =  -1.00000   1.00000

 Dipole moment (field-independent basis, Debye):
    X=             -0.2875    Y=             -2.7883    Z=              3.8140  Tot=              4.7333
 Quadrupole moment (field-independent basis, Debye-Ang):
   XX=           -223.0190   YY=           -161.2723   ZZ=           -159.9811
   XY=              1.0383   XZ=             -0.6890   YZ=              6.6029

 Summary of Natural Population Analysis:

                                       Natural Population
                Natural  -----------------------------------------------
    Atom  No    Charge         Core      Valence    Rydberg      Total
 -----------------------------------------------------------------------
      C    1   -0.20295      0.99964     2.19556    0.00775     3.20295
      C    2   -0.20228      0.99964     2.19492    0.00772     3.20228
      C    3   -0.09255      0.99962     2.08098    0.01195     3.09255
      N    4   -0.35971      0.99975     2.84452    0.01544     3.85971
      C    5   -0.09383      0.99962     2.08272    0.01150     3.09383
      S    6    1.17442      4.99919     1.72350    0.10289     6.82558
      O    7   -0.46516      0.99990     3.46027    0.00499     4.46516
      O    8   -0.46384      0.99990     3.45889    0.00505     4.46384
      N    9   -0.37584      0.99973     2.86243    0.01368     3.87584
      C   10   -0.08214      0.99962     2.07141    0.01111     3.08214
      C   11   -0.19709      0.99958     2.18771    0.00980     3.19709
      C   12   -0.04519      0.99955     2.03095    0.01470     3.04519
      C   13   -0.07957      0.99955     2.06631    0.01372     3.07957
      C   14   -0.19778      0.99958     2.18711    0.01109     3.19778
      C   15   -0.08816      0.99962     2.07631    0.01222     3.08816
      N   16   -0.33663      0.99976     2.82460    0.01227     3.83663
      C   17   -0.08776      0.99962     2.07774    0.01039     3.08776
      C   18   -0.20085      0.99958     2.19268    0.00859     3.20085
      H   19    0.10124      0.00000     0.39769    0.00107     0.39876
      H   20    0.10205      0.00000     0.39680    0.00115     0.39795
      H   21    0.10426      0.00000     0.39471    0.00103     0.39574
      H   22    0.10141      0.00000     0.39722    0.00137     0.39859
      H   23    0.10116      0.00000     0.39680    0.00204     0.39884
      H   24    0.11003      0.00000     0.38849    0.00148     0.38997
      H   25    0.11275      0.00000     0.38622    0.00103     0.38725
      H   26    0.09969      0.00000     0.39890    0.00141     0.40031
      H   27    0.09638      0.00000     0.40244    0.00119     0.40362
      H   28    0.10237      0.00000     0.39672    0.00090     0.39763
      H   29    0.10413      0.00000     0.39451    0.00136     0.39587
      H   30    0.10525      0.00000     0.39370    0.00105     0.39475
      H   31    0.09990      0.00000     0.39841    0.00169     0.40010
      H   32    0.11054      0.00000     0.38757    0.00189     0.38946
      H   33    0.09824      0.00000     0.40000    0.00176     0.40176
      H   34    0.10385      0.00000     0.39439    0.00176     0.39615
      H   35    0.09748      0.00000     0.40141    0.00110     0.40252
      H   36    0.08816      0.00000     0.41054    0.00129     0.41184
      H   37    0.16890      0.00000     0.32881    0.00229     0.33110
      H   38    0.09514      0.00000     0.40397    0.00089     0.40486
      H   39    0.08715      0.00000     0.41156    0.00129     0.41285
      H   40    0.09949      0.00000     0.39920    0.00131     0.40051
      H   41    0.10733      0.00000     0.39143    0.00124     0.39267
 =======================================================================
   * Total *    0.00000     21.99345    51.69012    0.31643    74.00000

 Normal termination of Gaussian 16 at Fri Dec 11 22:57:51 2020.
