 Gaussian 16, Revision A.03,

 -----------------------------------------------------------
 # opt freq B3LYP/6-31G(d) empiricaldispersion=gd3bj scf=xqc
 -----------------------------------------------------------

 ------------------------------
 CID_81004268_JID_5935_neutraal
 ------------------------------
 Symbolic Z-matrix:
 Charge =  0 Multiplicity = 1

 SCF Done:  E(RB3LYP) =  -1032.88688556     A.U. after   15 cycles
 SCF Done:  E(RB3LYP) =  -1032.89041482     A.U. after   13 cycles
 SCF Done:  E(RB3LYP) =  -1032.89078778     A.U. after   13 cycles
 SCF Done:  E(RB3LYP) =  -1032.89138010     A.U. after   12 cycles
 SCF Done:  E(RB3LYP) =  -1032.89169598     A.U. after   12 cycles
 SCF Done:  E(RB3LYP) =  -1032.89168610     A.U. after   12 cycles
 SCF Done:  E(RB3LYP) =  -1032.89180199     A.U. after   11 cycles
 SCF Done:  E(RB3LYP) =  -1032.89185561     A.U. after   10 cycles
 SCF Done:  E(RB3LYP) =  -1032.89188755     A.U. after   11 cycles
 SCF Done:  E(RB3LYP) =  -1032.89190138     A.U. after   11 cycles
 SCF Done:  E(RB3LYP) =  -1032.89299901     A.U. after   10 cycles
 SCF Done:  E(RB3LYP) =  -1032.89300355     A.U. after    9 cycles
 SCF Done:  E(RB3LYP) =  -1032.89301115     A.U. after   10 cycles
 SCF Done:  E(RB3LYP) =  -1032.89301245     A.U. after    9 cycles
 SCF Done:  E(RB3LYP) =  -1032.89301252     A.U. after    7 cycles
 Optimization completed.
    -- Stationary point found.
 Normal termination of Gaussian 16 at Thu Dec 10 18:07:01 2020.

 --------------------------------------------------------------------
 #N Geom=AllCheck Guess=TCheck SCRF=Check GenChk RB3LYP/6-31G(d) Freq
 --------------------------------------------------------------------

 Structure from the checkpoint file:  "JID_5935.chk"
 ------------------------------
 CID_81004268_JID_5935_neutraal
 ------------------------------
 Charge =  0 Multiplicity = 1

 SCF Done:  E(RB3LYP) =  -1032.89301252     A.U. after    1 cycles

  Exact polarizability: 161.829  -6.838 150.358  10.160   4.920 108.991
 Approx polarizability: 214.171  -4.373 244.470  21.289  14.325 182.377

                      1                      2                      3
                      A                      A                      A
 Frequencies --     18.9776                30.9053                66.4700
 Red. masses --      6.1840                 5.7390                 6.7819
 Frc consts  --      0.0013                 0.0032                 0.0177
 IR Inten    --      0.5976                 0.2494                 1.9374

                      4                      5                      6
                      A                      A                      A
 Frequencies --     74.4394                79.3183               111.0995
 Red. masses --      1.0220                 3.5750                 1.0709
 Frc consts  --      0.0033                 0.0133                 0.0078
 IR Inten    --      0.2300                 0.5710                 0.0549

                      7                      8                      9
                      A                      A                      A
 Frequencies --    123.8974               163.9070               175.7542
 Red. masses --      3.8670                 3.4316                 4.5602
 Frc consts  --      0.0350                 0.0543                 0.0830
 IR Inten    --      0.2621                 0.7203                 0.0828

                     10                     11                     12
                      A                      A                      A
 Frequencies --    221.2885               234.1661               244.0487
 Red. masses --      3.9326                 1.5119                 1.5066
 Frc consts  --      0.1135                 0.0488                 0.0529
 IR Inten    --      5.1730                 1.1331                 2.2232

                     13                     14                     15
                      A                      A                      A
 Frequencies --    265.6428               283.0316               299.5105
 Red. masses --      2.2407                 1.2748                 2.8297
 Frc consts  --      0.0932                 0.0602                 0.1496
 IR Inten    --      0.7916                 0.9533                 0.2268

                     16                     17                     18
                      A                      A                      A
 Frequencies --    333.4889               340.3884               347.9523
 Red. masses --      3.3071                 3.6657                 2.3136
 Frc consts  --      0.2167                 0.2502                 0.1650
 IR Inten    --      0.5276                 3.4629                 1.5401

                     19                     20                     21
                      A                      A                      A
 Frequencies --    376.6956               417.8968               446.3775
 Red. masses --      3.0631                 3.0878                 2.2194
 Frc consts  --      0.2561                 0.3177                 0.2605
 IR Inten    --      1.4137                 1.9255                 1.9595

                     22                     23                     24
                      A                      A                      A
 Frequencies --    490.6078               525.7475               531.2022
 Red. masses --      2.8929                 2.2949                 3.6206
 Frc consts  --      0.4102                 0.3737                 0.6019
 IR Inten    --      9.3672                11.9383                 8.5193

                     25                     26                     27
                      A                      A                      A
 Frequencies --    568.2239               627.6808               646.9740
 Red. masses --      4.7871                 4.4980                 4.2162
 Frc consts  --      0.9107                 1.0441                 1.0398
 IR Inten    --      4.3628                 5.6069                16.0507

                     28                     29                     30
                      A                      A                      A
 Frequencies --    654.7646               681.4506               688.6629
 Red. masses --      4.8729                 2.1851                 2.5675
 Frc consts  --      1.2309                 0.5979                 0.7174
 IR Inten    --     19.2042                40.4215                51.4398

                     31                     32                     33
                      A                      A                      A
 Frequencies --    730.6969               795.2647               881.7930
 Red. masses --      4.5579                 3.9622                 3.1802
 Frc consts  --      1.4338                 1.4764                 1.4569
 IR Inten    --     14.2003                 4.6952                 4.7361

                     34                     35                     36
                      A                      A                      A
 Frequencies --    886.5477               900.7824               930.1518
 Red. masses --      2.5933                 2.5076                 2.0001
 Frc consts  --      1.2009                 1.1988                 1.0196
 IR Inten    --      3.8636                 7.4506                 4.9762

                     37                     38                     39
                      A                      A                      A
 Frequencies --    957.8550               970.8775              1004.4444
 Red. masses --      1.7236                 1.5778                 1.7527
 Frc consts  --      0.9317                 0.8763                 1.0418
 IR Inten    --      1.9916                 2.0253                 2.3613

                     40                     41                     42
                      A                      A                      A
 Frequencies --   1023.5196              1062.9064              1068.0405
 Red. masses --      1.5721                 1.5128                 1.3816
 Frc consts  --      0.9703                 1.0070                 0.9286
 IR Inten    --      2.7580                 4.8985                 1.0310

                     43                     44                     45
                      A                      A                      A
 Frequencies --   1079.7066              1105.9990              1146.9501
 Red. masses --      1.5045                 2.2852                 2.0801
 Frc consts  --      1.0333                 1.6470                 1.6122
 IR Inten    --      0.5240                 8.1273                40.8471

                     46                     47                     48
                      A                      A                      A
 Frequencies --   1161.2331              1191.3536              1200.9920
 Red. masses --      2.4476                 1.8830                 3.6599
 Frc consts  --      1.9446                 1.5747                 3.1102
 IR Inten    --    271.7548                10.2368                 1.6099

                     49                     50                     51
                      A                      A                      A
 Frequencies --   1223.7108              1245.8274              1303.3677
 Red. masses --      2.2188                 2.3853                 1.4623
 Frc consts  --      1.9576                 2.1813                 1.4635
 IR Inten    --     31.1983                42.3336                 9.9872

                     52                     53                     54
                      A                      A                      A
 Frequencies --   1307.5429              1340.9765              1348.6972
 Red. masses --      1.5133                 2.5600                 2.5835
 Frc consts  --      1.5243                 2.7122                 2.7687
 IR Inten    --      5.5767                 3.9338                 7.4629

                     55                     56                     57
                      A                      A                      A
 Frequencies --   1381.2331              1425.1318              1432.0972
 Red. masses --      1.4886                 1.5880                 1.5093
 Frc consts  --      1.6733                 1.9003                 1.8238
 IR Inten    --      6.8314                43.7374                38.3979

                     58                     59                     60
                      A                      A                      A
 Frequencies --   1438.5079              1453.0015              1453.9800
 Red. masses --      1.3558                 1.2311                 1.2744
 Frc consts  --      1.6530                 1.5313                 1.5874
 IR Inten    --      2.3404                 1.1609                 3.4943

                     61                     62                     63
                      A                      A                      A
 Frequencies --   1482.8192              1506.3501              1507.1083
 Red. masses --      1.0858                 1.0445                 1.1003
 Frc consts  --      1.4066                 1.3964                 1.4725
 IR Inten    --     13.4179                 1.3950                 3.9129

                     64                     65                     66
                      A                      A                      A
 Frequencies --   1511.9290              1516.9312              1520.0486
 Red. masses --      1.0421                 1.1036                 1.1393
 Frc consts  --      1.4035                 1.4962                 1.5510
 IR Inten    --      9.9461                 4.4254                 3.7944

                     67                     68                     69
                      A                      A                      A
 Frequencies --   1521.0277              1524.0107              1533.8094
 Red. masses --      1.0567                 1.0538                 1.0592
 Frc consts  --      1.4404                 1.4421                 1.4681
 IR Inten    --     10.5128                 5.1201                 0.7794

                     70                     71                     72
                      A                      A                      A
 Frequencies --   1546.6030              1563.9536              1621.9861
 Red. masses --      1.1111                 5.0307                 5.0197
 Frc consts  --      1.5659                 7.2498                 7.7808
 IR Inten    --     11.7065                21.9776                27.0914

                     73                     74                     75
                      A                      A                      A
 Frequencies --   1830.7921              3044.6801              3046.8444
 Red. masses --      9.2059                 1.0375                 1.0381
 Frc consts  --     18.1800                 5.6667                 5.6779
 IR Inten    --    207.0734                12.1345                42.5885

                     76                     77                     78
                      A                      A                      A
 Frequencies --   3048.9977              3054.7390              3057.2861
 Red. masses --      1.0403                 1.0383                 1.0587
 Frc consts  --      5.6982                 5.7085                 5.8305
 IR Inten    --     39.2348                27.5657                12.0447

                     79                     80                     81
                      A                      A                      A
 Frequencies --   3070.5142              3089.7111              3095.4194
 Red. masses --      1.0669                 1.0998                 1.1018
 Frc consts  --      5.9263                 6.1856                 6.2201
 IR Inten    --     17.3711                12.0420                15.7192

                     82                     83                     84
                      A                      A                      A
 Frequencies --   3105.4547              3106.1886              3111.9573
 Red. masses --      1.1020                 1.1012                 1.1009
 Frc consts  --      6.2615                 6.2601                 6.2817
 IR Inten    --      2.2008                15.6365                63.5246

                     85                     86                     87
                      A                      A                      A
 Frequencies --   3137.3141              3140.9419              3142.3929
 Red. masses --      1.0995                 1.1002                 1.1000
 Frc consts  --      6.3763                 6.3951                 6.3995
 IR Inten    --     12.5875                15.2428                 8.1646

                     88                     89                     90
                      A                      A                      A
 Frequencies --   3148.2404              3148.9596              3682.5403
 Red. masses --      1.0966                 1.0980                 1.0639
 Frc consts  --      6.4039                 6.4146                 8.5007
 IR Inten    --      6.9673                24.7954                47.7848

 - Thermochemistry -
 -------------------
 Temperature   298.150 Kelvin.  Pressure   1.00000 Atm.
 Atom     1 has atomic number  6 and mass  12.00000

 Molecular mass:   227.09800 amu.
 Principal axes and moments of inertia in atomic units:
                           1         2         3
     Eigenvalues --  2224.495834749.108125960.43548
           X            0.99944  -0.03150   0.01122
           Y            0.03145   0.99950   0.00439
           Z           -0.01136  -0.00404   0.99993
 This molecule is an asymmetric top.
 Rotational symmetry number  1.
 Warning -- assumption of classical behavior for rotation
           may cause significant error
 Rotational temperatures (Kelvin)      0.03894     0.01824     0.01453
 Rotational constants (GHZ):           0.81130     0.38002     0.30279
 Zero-point vibrational energy     705457.7 (Joules/Mol)
                                  168.60843 (Kcal/Mol)
 Warning -- explicit consideration of  25 degrees of freedom as
           vibrations may cause significant error
 Vibrational temperatures:     27.30    44.47    95.64   107.10   114.12
          (Kelvin)            159.85   178.26   235.83   252.87   318.38
                              336.91   351.13   382.20   407.22   430.93
                              479.82   489.74   500.63   541.98   601.26
                              642.24   705.88   756.43   764.28   817.55
                              903.09   930.85   942.06   980.46   990.83
                             1051.31  1144.21  1268.70  1275.54  1296.02
                             1338.28  1378.14  1396.88  1445.17  1472.62
                             1529.29  1536.67  1553.46  1591.29  1650.21
                             1670.76  1714.09  1727.96  1760.65  1792.47
                             1875.26  1881.26  1929.37  1940.47  1987.29
                             2050.45  2060.47  2069.69  2090.55  2091.95
                             2133.45  2167.30  2168.39  2175.33  2182.53
                             2187.01  2188.42  2192.71  2206.81  2225.22
                             2250.18  2333.68  2634.10  4380.62  4383.73
                             4386.83  4395.09  4398.75  4417.79  4445.41
                             4453.62  4468.06  4469.11  4477.41  4513.90
                             4519.11  4521.20  4529.62  4530.65  5298.35

 Zero-point correction=                           0.268695 (Hartree/Particle)
 Thermal correction to Energy=                    0.285521
 Thermal correction to Enthalpy=                  0.286465
 Thermal correction to Gibbs Free Energy=         0.223031
 Sum of electronic and zero-point Energies=          -1032.624318
 Sum of electronic and thermal Energies=             -1032.607492
 Sum of electronic and thermal Enthalpies=           -1032.606548
 Sum of electronic and thermal Free Energies=        -1032.669982

                     E (Thermal)             CV                S
                      KCal/Mol        Cal/Mol-Kelvin    Cal/Mol-Kelvin
 Total                  179.167             61.737            133.508
 Electronic               0.000              0.000              0.000
 Translational            0.889              2.981             42.163
 Rotational               0.889              2.981             32.510
 Vibrational            177.389             55.775             58.835
 Vibration     1          0.593              1.986              6.738
 Vibration     2          0.594              1.984              5.770
 Vibration     3          0.598              1.970              4.255
 Vibration     4          0.599              1.966              4.032
 Vibration     5          0.600              1.963              3.908
 Vibration     6          0.607              1.940              3.250
 Vibration     7          0.610              1.929              3.039
 Vibration     8          0.623              1.887              2.504
 Vibration     9          0.628              1.872              2.373
 Vibration    10          0.648              1.809              1.949
 Vibration    11          0.654              1.789              1.847
 Vibration    12          0.659              1.773              1.773
 Vibration    13          0.671              1.736              1.624
 Vibration    14          0.682              1.705              1.515
 Vibration    15          0.692              1.675              1.420
 Vibration    16          0.715              1.609              1.243
 Vibration    17          0.720              1.595              1.210
 Vibration    18          0.726              1.579              1.175
 Vibration    19          0.747              1.520              1.052
 Vibration    20          0.781              1.431              0.899
 Vibration    21          0.806              1.369              0.807
 Vibration    22          0.846              1.271              0.682
 Vibration    23          0.881              1.193              0.597
 Vibration    24          0.886              1.181              0.585
 Vibration    25          0.924              1.100              0.508

 Optimization completed.
    -- Stationary point found.
 Normal termination of Gaussian 16 at Thu Dec 10 18:16:56 2020.

 ----------------------------------------------------------------------
 # B3LYP/6-311++G(d,p) empiricaldispersion=gd3bj scf=xqc pop=npa geom=c
 heck
 ----------------------------------------------------------------------

 --------------------------------------
 CID_81004268_JID_5935_Energie_neutraal
 --------------------------------------
 Structure from the checkpoint file:  "JID_5935.chk"
 Charge =  0 Multiplicity = 1

 SCF Done:  E(RB3LYP) =  -1033.10426138     A.U. after   16 cycles
 Normal termination of Gaussian 16 at Thu Dec 10 18:21:27 2020.

 ----------------------------------------------------------------------
 # B3LYP/6-311++G(d,p) empiricaldispersion=gd3bj scf=xqc pop=npa geom=c
 heck
 ----------------------------------------------------------------------

 ------------------------------------
 CID_81004268_JID_5935_Energie_kation
 ------------------------------------
 Structure from the checkpoint file:  "JID_5935.chk"
 Charge =  1 Multiplicity = 2

 SCF Done:  E(UB3LYP) =  -1032.80686479     A.U. after   23 cycles
 Normal termination of Gaussian 16 at Thu Dec 10 18:30:06 2020.
 Gaussian 16:  ES64L-G16RevA.03 25-Dec-2016

 ----------------------------------------------------------------------
 # B3LYP/6-311++G(d,p) empiricaldispersion=gd3bj scf=xqc pop=npa geom=c
 heck
 ----------------------------------------------------------------------

 -----------------------------------
 CID_81004268_JID_5935_Energie_anion
 -----------------------------------
 Structure from the checkpoint file:  "JID_5935.chk"
 Charge = -1 Multiplicity = 2

                         Standard orientation:
 ---------------------------------------------------------------------
 Center     Atomic      Atomic             Coordinates (Angstroms)
 Number     Number       Type             X           Y           Z
 ---------------------------------------------------------------------
      1          6           0        3.668623    1.543301    0.781176
      2          6           0        2.573934    0.717310    0.172968
      3          6           0        2.599027   -0.630867   -0.077303
      4         16           0        1.079878   -1.112904   -0.798875
      5          6           0        0.527008    0.559059   -0.705816
      6          7           0        1.403858    1.367407   -0.186236
      7          6           0       -0.848356    0.953070   -1.152157
      8          6           0       -1.875622    1.148313    0.005039
      9          6           0       -1.509241    2.403144    0.815242
     10          6           0       -3.269719    1.332759   -0.617418
     11          6           0       -1.877426   -0.047073    0.978339
     12          6           0       -2.176586   -1.406641    0.389191
     13          8           0       -2.284681   -1.696961   -0.784575
     14          8           0       -2.306969   -2.336582    1.367258
     15          6           0        3.683680   -1.634433    0.168411
     16          1           0        3.986411    2.329530    0.086702
     17          1           0        3.312381    2.041447    1.690268
     18          1           0        4.543348    0.942504    1.040922
     19          1           0       -0.767669    1.902818   -1.693095
     20          1           0       -1.235561    0.202386   -1.842813
     21          1           0       -1.558684    3.294094    0.179144
     22          1           0       -2.207766    2.544804    1.648820
     23          1           0       -0.492774    2.338057    1.213072
     24          1           0       -3.574549    0.446065   -1.179533
     25          1           0       -4.018023    1.525640    0.160928
     26          1           0       -3.272799    2.190142   -1.300304
     27          1           0       -0.905009   -0.130645    1.480250
     28          1           0       -2.605495    0.128905    1.779755
     29          1           0       -2.468721   -3.183283    0.909814
     30          1           0        4.553701   -1.155227    0.624654
     31          1           0        3.352054   -2.433263    0.842689
     32          1           0        4.015363   -2.108664   -0.763117
 ---------------------------------------------------------------------

 SCF Done:  E(UB3LYP) =  -1033.09219707     A.U. after   33 cycles
 SCF Done:  E(UB3LYP) =  -1033.09219707     a.u. after    1 cycles

 The electronic state is 2-A.
 Alpha  occ. eigenvalues --  -88.77303 -19.07336 -19.02385 -14.20826 -10.21604
 Alpha  occ. eigenvalues --  -10.13476 -10.10510 -10.10432 -10.10402 -10.09164
 Alpha  occ. eigenvalues --  -10.08466 -10.07918 -10.07205 -10.06959 -10.06460
 Alpha  occ. eigenvalues --   -7.85956  -5.82217  -5.81869  -5.81568  -1.01650
 Alpha  occ. eigenvalues --   -0.92731  -0.86201  -0.74840  -0.70916  -0.68435
 Alpha  occ. eigenvalues --   -0.64830  -0.62185  -0.61774  -0.59771  -0.55017
 Alpha  occ. eigenvalues --   -0.52304  -0.47316  -0.45146  -0.42776  -0.40783
 Alpha  occ. eigenvalues --   -0.39379  -0.39269  -0.37263  -0.35966  -0.35404
 Alpha  occ. eigenvalues --   -0.34204  -0.33777  -0.32592  -0.31687  -0.31460
 Alpha  occ. eigenvalues --   -0.30677  -0.30041  -0.29061  -0.28462  -0.28312
 Alpha  occ. eigenvalues --   -0.27906  -0.27201  -0.24998  -0.24479  -0.24402
 Alpha  occ. eigenvalues --   -0.24195  -0.23132  -0.18935  -0.17566  -0.17185
 Alpha  occ. eigenvalues --   -0.13119   0.04181
 Alpha virt. eigenvalues --    0.05974   0.06513   0.06860   0.07918   0.08332
 Alpha virt. eigenvalues --    0.08521   0.09012   0.09663   0.10033   0.10144
 Alpha virt. eigenvalues --    0.10600   0.11425   0.11824   0.12215   0.12370

  Beta  occ. eigenvalues --  -88.77297 -19.07289 -19.02374 -14.20820 -10.21603
  Beta  occ. eigenvalues --  -10.13437 -10.10509 -10.10425 -10.10390 -10.09141
  Beta  occ. eigenvalues --  -10.08463 -10.07870 -10.07173 -10.06943 -10.06446
  Beta  occ. eigenvalues --   -7.85948  -5.82209  -5.81864  -5.81561  -1.01596
  Beta  occ. eigenvalues --   -0.92682  -0.86170  -0.74821  -0.70880  -0.68394
  Beta  occ. eigenvalues --   -0.64782  -0.62149  -0.61713  -0.59743  -0.54964
  Beta  occ. eigenvalues --   -0.52223  -0.47270  -0.45097  -0.42730  -0.40751
  Beta  occ. eigenvalues --   -0.39353  -0.39241  -0.37225  -0.35938  -0.35369
  Beta  occ. eigenvalues --   -0.34160  -0.33737  -0.32554  -0.31640  -0.31421
  Beta  occ. eigenvalues --   -0.30642  -0.30004  -0.29032  -0.28398  -0.28285
  Beta  occ. eigenvalues --   -0.27875  -0.27174  -0.24959  -0.24457  -0.24380
  Beta  occ. eigenvalues --   -0.24168  -0.23098  -0.18896  -0.17522  -0.17171
  Beta  occ. eigenvalues --   -0.13027
  Beta virt. eigenvalues --    0.06236   0.06763   0.06884   0.07761   0.08398
  Beta virt. eigenvalues --    0.08538   0.08803   0.09212   0.09981   0.10255
  Beta virt. eigenvalues --    0.10405   0.10719   0.11717   0.11987   0.12349

 Mulliken charges and spin densities:
               1          2
     1  C    2.011654  -2.837887
     2  C   -2.211110   0.658184
     3  C   -0.356677   1.936652
     4  S    0.382582  -0.818512
     5  C   -0.847790   0.753218
     6  N    0.124624   0.084234
     7  C   -0.256046  -0.133631
     8  C   -0.323413   1.339091
     9  C   -0.012929  -0.678620
    10  C   -0.074242  -0.432999
    11  C    0.676900  -1.306920
    12  C   -0.205069  -0.017706
    13  O   -0.242862   0.001286
    14  O   -0.120926   0.048633
    15  C    1.653984  -1.787647
    16  H   -0.064257   0.223529
    17  H   -0.057980   0.210526
    18  H   -0.254203   0.364848
    19  H    0.127384   0.049555
    20  H    0.232490  -0.014243
    21  H    0.013245   0.123029
    22  H   -0.052968   0.185555
    23  H    0.153594   0.046363
    24  H    0.146730   0.021968
    25  H   -0.184358   0.329777
    26  H    0.065442   0.071333
    27  H    0.068777   0.185202
    28  H   -0.085830   0.310778
    29  H   -0.463305   0.749570
    30  H   -0.275693   0.440813
    31  H   -0.406867   0.579663
    32  H   -0.160879   0.314358
 Sum of Mulliken charges =  -1.00000   1.00000

 Dipole moment (field-independent basis, Debye):
    X=             -2.0366    Y=              3.8042    Z=             -3.3120  Tot=              5.4396
 Quadrupole moment (field-independent basis, Debye-Ang):
   XX=           -176.0225   YY=           -152.2637   ZZ=           -129.9539
   XY=             -3.6386   XZ=             -1.0190   YZ=              3.6837

 Summary of Natural Population Analysis:

                                       Natural Population
                Natural  -----------------------------------------------
    Atom  No    Charge         Core      Valence    Rydberg      Total
 -----------------------------------------------------------------------
      C    1   -0.29283      0.99963     2.28716    0.00604     3.29283
      C    2    0.05747      0.99941     1.92889    0.01423     2.94253
      C    3   -0.10785      0.99944     2.09599    0.01242     3.10785
      S    4    0.19471      4.99939     2.78758    0.01832     7.80529
      C    5    0.05146      0.99960     1.93059    0.01836     2.94854
      N    6   -0.25370      0.99962     2.74270    0.01137     3.75370
      C    7   -0.21791      0.99953     2.20782    0.01056     3.21791
      C    8   -0.03402      0.99958     2.02293    0.01151     3.03402
      C    9   -0.28770      0.99962     2.28035    0.00773     3.28770
      C   10   -0.28859      0.99962     2.28156    0.00741     3.28859
      C   11   -0.24878      0.99952     2.23768    0.01158     3.24878
      C   12    0.41394      0.99972     1.56068    0.02567     2.58606
      O   13   -0.31331      0.99987     3.30758    0.00586     4.31331
      O   14   -0.34209      0.99988     3.33543    0.00678     4.34209
      C   15   -0.29846      0.99961     2.29196    0.00688     3.29846
      H   16    0.10502      0.00000     0.39377    0.00122     0.39498
      H   17    0.10625      0.00000     0.39262    0.00113     0.39375
      H   18    0.10345      0.00000     0.39547    0.00108     0.39655
      H   19    0.10964      0.00000     0.38920    0.00116     0.39036
      H   20    0.11843      0.00000     0.38046    0.00111     0.38157
      H   21    0.09845      0.00000     0.40069    0.00086     0.40155
      H   22    0.09743      0.00000     0.40170    0.00087     0.40257
      H   23    0.11232      0.00000     0.38635    0.00133     0.38768
      H   24    0.10840      0.00000     0.39077    0.00083     0.39160
      H   25    0.10007      0.00000     0.39907    0.00086     0.39993
      H   26    0.09804      0.00000     0.40122    0.00075     0.40196
      H   27    0.12397      0.00000     0.37469    0.00134     0.37603
      H   28    0.11821      0.00000     0.38049    0.00129     0.38179
      H   29    0.24406      0.00000     0.24194    0.01400     0.25594
      H   30    0.10919      0.00000     0.38921    0.00160     0.39081
      H   31    0.11025      0.00000     0.38773    0.00202     0.38975
      H   32    0.10447      0.00000     0.39442    0.00111     0.39553
 =======================================================================
   * Total *   -0.00000     18.99404    41.79870    0.20726    61.00000

 Normal termination of Gaussian 16 at Thu Dec 10 18:42:34 2020.
