 Gaussian 16, Revision A.03,

 -----------------------------------------------------------
 # opt freq B3LYP/6-31G(d) empiricaldispersion=gd3bj scf=xqc
 -----------------------------------------------------------

 ------------------------------
 CID_20244863_JID_6909_neutraal
 ------------------------------
 Symbolic Z-matrix:
 Charge =  0 Multiplicity = 1

 SCF Done:  E(RB3LYP) =  -1087.01147934     A.U. after   15 cycles
 SCF Done:  E(RB3LYP) =  -1087.01875335     A.U. after   12 cycles
 SCF Done:  E(RB3LYP) =  -1087.01955605     A.U. after   12 cycles
 SCF Done:  E(RB3LYP) =  -1087.01992178     A.U. after   11 cycles
 SCF Done:  E(RB3LYP) =  -1087.01992563     A.U. after   11 cycles
 SCF Done:  E(RB3LYP) =  -1087.02006145     A.U. after   11 cycles
 SCF Done:  E(RB3LYP) =  -1087.02007178     A.U. after   11 cycles
 SCF Done:  E(RB3LYP) =  -1087.02008773     A.U. after   10 cycles
 SCF Done:  E(RB3LYP) =  -1087.02009560     A.U. after   10 cycles
 SCF Done:  E(RB3LYP) =  -1087.02009947     A.U. after    9 cycles
 SCF Done:  E(RB3LYP) =  -1087.02010169     A.U. after    9 cycles
 SCF Done:  E(RB3LYP) =  -1087.02010234     A.U. after    8 cycles
 SCF Done:  E(RB3LYP) =  -1087.02010249     A.U. after    7 cycles
 SCF Done:  E(RB3LYP) =  -1087.02010255     A.U. after    7 cycles
 Optimization completed.
    -- Stationary point found.
 Normal termination of Gaussian 16 at Thu Dec 10 23:52:47 2020.

 --------------------------------------------------------------------
 #N Geom=AllCheck Guess=TCheck SCRF=Check GenChk RB3LYP/6-31G(d) Freq
 --------------------------------------------------------------------

 Structure from the checkpoint file:  "JID_6909.chk"
 ------------------------------
 CID_20244863_JID_6909_neutraal
 ------------------------------
 Charge =  0 Multiplicity = 1

 SCF Done:  E(RB3LYP) =  -1087.02010255     A.U. after    1 cycles

  Exact polarizability: 181.728  -0.291 161.182   9.173   0.793 101.297
 Approx polarizability: 257.675  -4.913 274.412  22.203  -0.910 153.992

                      1                      2                      3
                      A                      A                      A
 Frequencies --     43.5994                61.3103                70.8601
 Red. masses --      4.4299                 4.5605                 2.4856
 Frc consts  --      0.0050                 0.0101                 0.0074
 IR Inten    --      0.0089                 0.0753                 0.2379

                      4                      5                      6
                      A                      A                      A
 Frequencies --     96.2647               150.2274               169.1004
 Red. masses --      8.3585                 7.3074                 4.2632
 Frc consts  --      0.0456                 0.0972                 0.0718
 IR Inten    --      0.6148                 1.4631                 6.5181

                      7                      8                      9
                      A                      A                      A
 Frequencies --    182.7525               227.3666               252.0390
 Red. masses --      5.2650                 1.0695                 1.3119
 Frc consts  --      0.1036                 0.0326                 0.0491
 IR Inten    --      0.7790                 0.1634                 1.9164

                     10                     11                     12
                      A                      A                      A
 Frequencies --    258.5478               268.7950               288.5730
 Red. masses --      2.0313                 2.8066                 3.6551
 Frc consts  --      0.0800                 0.1195                 0.1793
 IR Inten    --      8.9088                 4.9181                10.0682

                     13                     14                     15
                      A                      A                      A
 Frequencies --    307.0744               330.5395               353.2625
 Red. masses --      4.4931                 2.0941                 1.9622
 Frc consts  --      0.2496                 0.1348                 0.1443
 IR Inten    --      0.3947                 5.1979                64.3561

                     16                     17                     18
                      A                      A                      A
 Frequencies --    358.3714               367.8654               396.1477
 Red. masses --      1.6015                 4.3881                 6.4852
 Frc consts  --      0.1212                 0.3499                 0.5996
 IR Inten    --    114.2513                11.2432                 2.1030

                     19                     20                     21
                      A                      A                      A
 Frequencies --    410.1009               443.5204               499.1047
 Red. masses --      3.5345                 2.2444                 5.2701
 Frc consts  --      0.3502                 0.2601                 0.7735
 IR Inten    --      2.1055                 0.6359                 3.4605

                     22                     23                     24
                      A                      A                      A
 Frequencies --    525.4464               537.4105               544.8529
 Red. masses --      5.8483                 2.6545                 3.2370
 Frc consts  --      0.9513                 0.4517                 0.5662
 IR Inten    --     11.9656                 2.9107                28.7896

                     25                     26                     27
                      A                      A                      A
 Frequencies --    573.1918               608.3974               618.3592
 Red. masses --      1.5553                 4.3888                 1.9694
 Frc consts  --      0.3011                 0.9571                 0.4437
 IR Inten    --     36.9251                39.8240                97.0303

                     28                     29                     30
                      A                      A                      A
 Frequencies --    643.2708               662.5145               679.1698
 Red. masses --      1.9076                 3.2298                 4.0763
 Frc consts  --      0.4651                 0.8352                 1.1078
 IR Inten    --     60.3373                17.1091                41.7343

                     31                     32                     33
                      A                      A                      A
 Frequencies --    743.9164               777.5184               805.8479
 Red. masses --      2.5729                 8.1412                 3.1966
 Frc consts  --      0.8389                 2.8997                 1.2231
 IR Inten    --      2.4584                36.9399                17.0140

                     34                     35                     36
                      A                      A                      A
 Frequencies --    848.6059               880.7755               932.0736
 Red. masses --      2.6985                 2.5830                 1.2977
 Frc consts  --      1.1449                 1.1806                 0.6642
 IR Inten    --      0.8464                 7.0056                 0.1733

                     37                     38                     39
                      A                      A                      A
 Frequencies --    944.6079               949.2328               961.4196
 Red. masses --      2.2501                 1.4598                 2.7467
 Frc consts  --      1.1829                 0.7750                 1.4959
 IR Inten    --      3.6215                 0.2143                 1.2865

                     40                     41                     42
                      A                      A                      A
 Frequencies --   1000.4258              1032.6952              1035.1544
 Red. masses --      2.9171                 3.0661                 2.1141
 Frc consts  --      1.7202                 1.9265                 1.3347
 IR Inten    --      6.0463                12.0694                14.5349

                     43                     44                     45
                      A                      A                      A
 Frequencies --   1105.5264              1129.9949              1145.4229
 Red. masses --      2.0476                 2.4920                 2.0351
 Frc consts  --      1.4745                 1.8748                 1.5731
 IR Inten    --     11.5310               122.6949                 6.2183

                     46                     47                     48
                      A                      A                      A
 Frequencies --   1148.8455              1168.5083              1201.7525
 Red. masses --      2.0838                 4.1374                 2.0483
 Frc consts  --      1.6204                 3.3285                 1.7429
 IR Inten    --     40.4917               101.5834                59.7394

                     49                     50                     51
                      A                      A                      A
 Frequencies --   1221.4702              1235.4769              1244.1704
 Red. masses --      1.7547                 1.5034                 1.4679
 Frc consts  --      1.5425                 1.3520                 1.3387
 IR Inten    --      7.6072               131.4953                36.7311

                     52                     53                     54
                      A                      A                      A
 Frequencies --   1281.4753              1324.7667              1356.9856
 Red. masses --      1.3543                 2.2324                 1.4692
 Frc consts  --      1.3103                 2.3084                 1.5939
 IR Inten    --     14.4125                 8.1962                 9.2868

                     55                     56                     57
                      A                      A                      A
 Frequencies --   1361.4642              1362.8281              1403.8494
 Red. masses --      1.8675                 1.5060                 2.5641
 Frc consts  --      2.0395                 1.6480                 2.9773
 IR Inten    --     15.5403                 4.3866                20.7947

                     58                     59                     60
                      A                      A                      A
 Frequencies --   1408.3732              1413.3722              1423.9198
 Red. masses --      1.5121                 1.3466                 1.2718
 Frc consts  --      1.7671                 1.5849                 1.5193
 IR Inten    --     24.0024                30.0865                 9.4546

                     61                     62                     63
                      A                      A                      A
 Frequencies --   1427.6179              1446.9819              1460.5972
 Red. masses --      1.2916                 1.2427                 5.4013
 Frc consts  --      1.5509                 1.5330                 6.7891
 IR Inten    --      2.0454                18.7980                91.7986

                     64                     65                     66
                      A                      A                      A
 Frequencies --   1502.4960              1508.3151              1512.0659
 Red. masses --      1.1038                 1.0764                 1.0520
 Frc consts  --      1.4681                 1.4428                 1.4171
 IR Inten    --      8.6122                 3.2458                 1.9465

                     67                     68                     69
                      A                      A                      A
 Frequencies --   1517.0401              1521.4105              1532.0733
 Red. masses --      1.1011                 1.0606                 2.9709
 Frc consts  --      1.4931                 1.4464                 4.1087
 IR Inten    --      2.1030                 2.6464               167.1734

                     70                     71                     72
                      A                      A                      A
 Frequencies --   1536.1172              1536.5345              1639.6046
 Red. masses --      1.0649                 1.0507                 6.7028
 Frc consts  --      1.4805                 1.4615                10.6165
 IR Inten    --      4.1520                10.9266                42.1172

                     73                     74                     75
                      A                      A                      A
 Frequencies --   1653.2586              1759.6673              2996.8592
 Red. masses --      1.6278                 5.6501                 1.0733
 Frc consts  --      2.6213                10.3078                 5.6792
 IR Inten    --    312.3429               312.3148                54.6043

                     76                     77                     78
                      A                      A                      A
 Frequencies --   3030.6710              3039.9032              3047.3523
 Red. masses --      1.0678                 1.0842                 1.0394
 Frc consts  --      5.7784                 5.9030                 5.6870
 IR Inten    --     43.9327                18.5661                11.1302

                     79                     80                     81
                      A                      A                      A
 Frequencies --   3047.7588              3055.9785              3084.1021
 Red. masses --      1.0641                 1.0398                 1.0881
 Frc consts  --      5.8235                 5.7215                 6.0976
 IR Inten    --     25.2223                21.6328                31.7566

                     82                     83                     84
                      A                      A                      A
 Frequencies --   3089.7367              3095.9788              3106.7019
 Red. masses --      1.0921                 1.1017                 1.1010
 Frc consts  --      6.1427                 6.2217                 6.2608
 IR Inten    --     30.0501                35.1871                 3.9206

                     85                     86                     87
                      A                      A                      A
 Frequencies --   3116.6797              3136.7930              3152.8220
 Red. masses --      1.1003                 1.1023                 1.0985
 Frc consts  --      6.2972                 6.3903                 6.4333
 IR Inten    --     90.3175                26.1382                25.5401

                     88                     89                     90
                      A                      A                      A
 Frequencies --   3487.0530              3667.2193              3694.0203
 Red. masses --      1.0539                 1.0944                 1.0640
 Frc consts  --      7.5507                 8.6716                 8.5542
 IR Inten    --    114.1910                59.9214                72.3974

 - Thermochemistry -
 -------------------
 Temperature   298.150 Kelvin.  Pressure   1.00000 Atm.
 Atom     1 has atomic number  6 and mass  12.00000

 Molecular mass:   240.09325 amu.
 Principal axes and moments of inertia in atomic units:
                           1         2         3
     Eigenvalues --  2184.823825488.662346673.86213
           X            0.99996   0.00491  -0.00800
           Y           -0.00478   0.99987   0.01526
           Z            0.00808  -0.01522   0.99985
 This molecule is an asymmetric top.
 Rotational symmetry number  1.
 Warning -- assumption of classical behavior for rotation
           may cause significant error
 Rotational temperatures (Kelvin)      0.03964     0.01578     0.01298
 Rotational constants (GHZ):           0.82604     0.32881     0.27042
 Zero-point vibrational energy     700903.5 (Joules/Mol)
                                  167.51997 (Kcal/Mol)
 Warning -- explicit consideration of  27 degrees of freedom as
           vibrations may cause significant error
 Vibrational temperatures:     62.73    88.21   101.95   138.50   216.14
          (Kelvin)            243.30   262.94   327.13   362.63   371.99
                              386.74   415.19   441.81   475.57   508.27
                              515.62   529.28   569.97   590.04   638.13
                              718.10   756.00   773.21   783.92   824.70
                              875.35   889.68   925.52   953.21   977.17
                             1070.33  1118.68  1159.44  1220.95  1267.24
                             1341.05  1359.08  1365.73  1383.27  1439.39
                             1485.82  1489.36  1590.61  1625.81  1648.01
                             1652.93  1681.22  1729.05  1757.42  1777.58
                             1790.08  1843.76  1906.04  1952.40  1958.84
                             1960.81  2019.83  2026.33  2033.53  2048.70
                             2054.02  2081.88  2101.47  2161.76  2170.13
                             2175.53  2182.68  2188.97  2204.31  2210.13
                             2210.73  2359.03  2378.67  2531.77  4311.81
                             4360.46  4373.74  4384.46  4385.05  4396.87
                             4437.34  4445.44  4454.42  4469.85  4484.21
                             4513.15  4536.21  5017.09  5276.31  5314.87

 Zero-point correction=                           0.266960 (Hartree/Particle)
 Thermal correction to Energy=                    0.282589
 Thermal correction to Enthalpy=                  0.283533
 Thermal correction to Gibbs Free Energy=         0.224602
 Sum of electronic and zero-point Energies=          -1086.753142
 Sum of electronic and thermal Energies=             -1086.737513
 Sum of electronic and thermal Enthalpies=           -1086.736569
 Sum of electronic and thermal Free Energies=        -1086.795500

                     E (Thermal)             CV                S
                      KCal/Mol        Cal/Mol-Kelvin    Cal/Mol-Kelvin
 Total                  177.327             61.033            124.031
 Electronic               0.000              0.000              0.000
 Translational            0.889              2.981             42.329
 Rotational               0.889              2.981             32.748
 Vibrational            175.550             55.071             48.954
 Vibration     1          0.595              1.980              5.088
 Vibration     2          0.597              1.973              4.415
 Vibration     3          0.598              1.968              4.129
 Vibration     4          0.603              1.952              3.529
 Vibration     5          0.618              1.902              2.669
 Vibration     6          0.625              1.881              2.445
 Vibration     7          0.630              1.863              2.300
 Vibration     8          0.651              1.799              1.900
 Vibration     9          0.664              1.759              1.716
 Vibration    10          0.667              1.748              1.672
 Vibration    11          0.673              1.731              1.604
 Vibration    12          0.685              1.695              1.482
 Vibration    13          0.697              1.660              1.378
 Vibration    14          0.713              1.615              1.257
 Vibration    15          0.729              1.569              1.152
 Vibration    16          0.733              1.558              1.129
 Vibration    17          0.740              1.538              1.089
 Vibration    18          0.763              1.478              0.977
 Vibration    19          0.774              1.448              0.926
 Vibration    20          0.803              1.375              0.816
 Vibration    21          0.855              1.252              0.660
 Vibration    22          0.880              1.194              0.597
 Vibration    23          0.892              1.167              0.571
 Vibration    24          0.900              1.151              0.555
 Vibration    25          0.929              1.089              0.498
 Vibration    26          0.967              1.014              0.435
 Vibration    27          0.978              0.993              0.419

 Optimization completed.
    -- Stationary point found.
 Normal termination of Gaussian 16 at Fri Dec 11 00:05:03 2020.

 ----------------------------------------------------------------------
 # B3LYP/6-311++G(d,p) empiricaldispersion=gd3bj scf=xqc pop=npa geom=c
 heck
 ----------------------------------------------------------------------

 --------------------------------------
 CID_20244863_JID_6909_Energie_neutraal
 --------------------------------------
 Structure from the checkpoint file:  "JID_6909.chk"
 Charge =  0 Multiplicity = 1

 SCF Done:  E(RB3LYP) =  -1087.24949736     A.U. after   16 cycles
 Normal termination of Gaussian 16 at Fri Dec 11 00:11:25 2020.

 ----------------------------------------------------------------------
 # B3LYP/6-311++G(d,p) empiricaldispersion=gd3bj scf=xqc pop=npa geom=c
 heck
 ----------------------------------------------------------------------

 ------------------------------------
 CID_20244863_JID_6909_Energie_kation
 ------------------------------------
 Structure from the checkpoint file:  "JID_6909.chk"
 Charge =  1 Multiplicity = 2

 SCF Done:  E(UB3LYP) =  -1086.98333181     A.U. after   24 cycles
 Normal termination of Gaussian 16 at Fri Dec 11 00:25:04 2020.
 Gaussian 16:  ES64L-G16RevA.03 25-Dec-2016

 ----------------------------------------------------------------------
 # B3LYP/6-311++G(d,p) empiricaldispersion=gd3bj scf=xqc pop=npa geom=c
 heck
 ----------------------------------------------------------------------

 -----------------------------------
 CID_20244863_JID_6909_Energie_anion
 -----------------------------------
 Structure from the checkpoint file:  "JID_6909.chk"
 Charge = -1 Multiplicity = 2

                         Standard orientation:
 ---------------------------------------------------------------------
 Center     Atomic      Atomic             Coordinates (Angstroms)
 Number     Number       Type             X           Y           Z
 ---------------------------------------------------------------------
      1          6           0       -2.233370   -0.224100    1.835462
      2          6           0       -3.138528   -0.480779    0.614942
      3          6           0       -4.427989    0.344185    0.723494
      4          7           0       -2.532573   -0.272970   -0.712377
      5          6           0       -1.789660   -1.398085   -1.272094
      6          6           0       -0.399844   -1.652909   -0.652446
      7          6           0        0.325014   -0.349007   -0.436981
      8          6           0       -0.342202    0.828719   -0.558276
      9          6           0       -1.803854    0.976879   -0.899900
     10         16           0        0.708552    2.218987   -0.268594
     11          6           0        2.071821    1.169585    0.051584
     12          6           0        1.720401   -0.176676   -0.070159
     13          6           0        2.707383   -1.194561    0.224446
     14          8           0        3.875661   -0.981561    0.552683
     15          8           0        2.251662   -2.472872    0.128595
     16          7           0        3.304813    1.673634    0.318150
     17          1           0       -1.911146    0.822188    1.878735
     18          1           0       -1.336741   -0.847515    1.825155
     19          1           0       -2.786082   -0.437468    2.757938
     20          1           0       -3.425525   -1.540244    0.630257
     21          1           0       -4.213979    1.419906    0.726962
     22          1           0       -5.086592    0.132632   -0.123613
     23          1           0       -4.959265    0.114144    1.654010
     24          1           0       -2.408308   -2.298315   -1.190986
     25          1           0       -1.659611   -1.193753   -2.343819
     26          1           0       -0.485662   -2.194122    0.298531
     27          1           0        0.182318   -2.307872   -1.309461
     28          1           0       -1.915382    1.297233   -1.947735
     29          1           0       -2.267974    1.760408   -0.291444
     30          1           0        3.018730   -3.029491    0.357832
     31          1           0        3.381291    2.600767    0.710146
     32          1           0        3.977798    0.969013    0.613931
 ---------------------------------------------------------------------

 SCF Done:  E(UB3LYP) =  -1087.23765487     A.U. after   33 cycles
 SCF Done:  E(UB3LYP) =  -1087.23765488     a.u. after    1 cycles

 The electronic state is 2-A.
 Alpha  occ. eigenvalues --  -88.76420 -19.05413 -18.98977 -14.21830 -14.20236
 Alpha  occ. eigenvalues --  -10.18167 -10.13081 -10.10572 -10.10285 -10.09557
 Alpha  occ. eigenvalues --  -10.08342 -10.07537 -10.06757 -10.06302 -10.05948
 Alpha  occ. eigenvalues --  -10.05416  -7.85065  -5.81380  -5.81023  -5.80591
 Alpha  occ. eigenvalues --   -0.99222  -0.89739  -0.83484  -0.82687  -0.75295
 Alpha  occ. eigenvalues --   -0.68658  -0.67030  -0.63536  -0.62726  -0.58562
 Alpha  occ. eigenvalues --   -0.55343  -0.52933  -0.52230  -0.47703  -0.45714
 Alpha  occ. eigenvalues --   -0.43614  -0.40574  -0.39913  -0.38163  -0.37925
 Alpha  occ. eigenvalues --   -0.36671  -0.34943  -0.33904  -0.33456  -0.32614
 Alpha  occ. eigenvalues --   -0.31693  -0.30671  -0.30287  -0.29562  -0.29197
 Alpha  occ. eigenvalues --   -0.28281  -0.27864  -0.26714  -0.26127  -0.24988
 Alpha  occ. eigenvalues --   -0.24067  -0.23066  -0.22539  -0.21216  -0.19797
 Alpha  occ. eigenvalues --   -0.17131  -0.14434  -0.11231  -0.09203   0.04570
 Alpha virt. eigenvalues --    0.06052   0.07031   0.07219   0.07979   0.08049
 Alpha virt. eigenvalues --    0.09097   0.09841   0.10155   0.10911   0.11254
 Alpha virt. eigenvalues --    0.11465   0.12029   0.12631   0.12784   0.13095

  Beta  occ. eigenvalues --  -88.76417 -19.05369 -18.98883 -14.21732 -14.20237
  Beta  occ. eigenvalues --  -10.18041 -10.12808 -10.10561 -10.10274 -10.09549
  Beta  occ. eigenvalues --  -10.08354 -10.07530 -10.06749 -10.06339 -10.05924
  Beta  occ. eigenvalues --  -10.05397  -7.85061  -5.81383  -5.81022  -5.80579
  Beta  occ. eigenvalues --   -0.99083  -0.89589  -0.83436  -0.82469  -0.75243
  Beta  occ. eigenvalues --   -0.68618  -0.66999  -0.63424  -0.62655  -0.58517
  Beta  occ. eigenvalues --   -0.55272  -0.52670  -0.52191  -0.47653  -0.45550
  Beta  occ. eigenvalues --   -0.43536  -0.40464  -0.39868  -0.38111  -0.37830
  Beta  occ. eigenvalues --   -0.36566  -0.34847  -0.33588  -0.33378  -0.32531
  Beta  occ. eigenvalues --   -0.31666  -0.30611  -0.30220  -0.29447  -0.29141
  Beta  occ. eigenvalues --   -0.28248  -0.27515  -0.26510  -0.26026  -0.24920
  Beta  occ. eigenvalues --   -0.24031  -0.23029  -0.22503  -0.20836  -0.19548
  Beta  occ. eigenvalues --   -0.17047  -0.14321  -0.11225  -0.08815
  Beta virt. eigenvalues --    0.06532   0.07452   0.07809   0.08148   0.08435
  Beta virt. eigenvalues --    0.08705   0.09322   0.10093   0.10238   0.11145
  Beta virt. eigenvalues --    0.11356   0.11631   0.12193   0.12736   0.13035

 Mulliken charges and spin densities:
               1          2
     1  C    0.627431  -1.123788
     2  C   -1.522788   1.302775
     3  C    0.804106  -1.279147
     4  N    0.231536   0.029377
     5  C    0.134177  -0.822773
     6  C   -0.696165   0.323785
     7  C    1.894702  -1.151731
     8  C   -0.582508   0.649882
     9  C    0.993251  -1.010907
    10  S   -0.367981  -0.060445
    11  C   -2.363416   1.892318
    12  C    1.699395  -1.671851
    13  C   -0.735980   0.784563
    14  O   -0.392770   0.019789
    15  O   -0.215465   0.008061
    16  N   -0.246073  -0.030601
    17  H   -0.125310   0.269442
    18  H    0.025915   0.119700
    19  H   -0.100639   0.250045
    20  H   -0.342529   0.482320
    21  H   -0.122367   0.249193
    22  H    0.001017   0.151707
    23  H   -0.207703   0.332666
    24  H   -0.117337   0.286163
    25  H    0.169319  -0.023742
    26  H    0.247263  -0.051557
    27  H    0.059783   0.143724
    28  H    0.166025   0.023966
    29  H    0.174168  -0.032588
    30  H    0.006117   0.289158
    31  H   -0.410280   0.673839
    32  H    0.315108  -0.023345
 Sum of Mulliken charges =  -1.00000   1.00000

 Dipole moment (field-independent basis, Debye):
    X=             -0.8362    Y=             -0.9418    Z=             -3.3119  Tot=              3.5433
 Quadrupole moment (field-independent basis, Debye-Ang):
   XX=           -184.7331   YY=           -141.5869   ZZ=           -130.3293
   XY=             -9.2072   XZ=              3.5326   YZ=             -3.4744

 Summary of Natural Population Analysis:

                                       Natural Population
                Natural  -----------------------------------------------
    Atom  No    Charge         Core      Valence    Rydberg      Total
 -----------------------------------------------------------------------
      C    1   -0.29817      0.99964     2.29225    0.00627     3.29817
      C    2   -0.00446      0.99960     1.99211    0.01275     3.00446
      C    3   -0.28709      0.99964     2.28063    0.00682     3.28709
      N    4   -0.28089      0.99972     2.76726    0.01391     3.78089
      C    5   -0.07847      0.99962     2.06708    0.01176     3.07847
      C    6   -0.20572      0.99959     2.19822    0.00791     3.20572
      C    7   -0.01802      0.99939     2.00835    0.01028     3.01802
      C    8   -0.11982      0.99937     2.10927    0.01118     3.11982
      C    9   -0.09593      0.99955     2.08456    0.01182     3.09593
      S   10    0.17748      4.99940     2.80452    0.01860     7.82252
      C   11    0.10561      0.99950     1.87924    0.01565     2.89439
      C   12   -0.15768      0.99935     2.14707    0.01126     3.15768
      C   13    0.40956      0.99962     1.56853    0.02229     2.59044
      O   14   -0.34170      0.99987     3.33573    0.00609     4.34170
      O   15   -0.34889      0.99988     3.34269    0.00632     4.34889
      N   16   -0.38395      0.99967     2.87368    0.01060     3.88395
      H   17    0.09988      0.00000     0.39894    0.00118     0.40012
      H   18    0.10353      0.00000     0.39511    0.00136     0.39647
      H   19    0.09905      0.00000     0.39996    0.00098     0.40095
      H   20    0.09296      0.00000     0.40563    0.00142     0.40704
      H   21    0.09462      0.00000     0.40432    0.00106     0.40538
      H   22    0.10108      0.00000     0.39743    0.00149     0.39892
      H   23    0.09878      0.00000     0.40028    0.00094     0.40122
      H   24    0.09579      0.00000     0.40315    0.00106     0.40421
      H   25    0.09003      0.00000     0.40886    0.00111     0.40997
      H   26    0.10391      0.00000     0.39466    0.00143     0.39609
      H   27    0.10970      0.00000     0.38898    0.00132     0.39030
      H   28    0.09500      0.00000     0.40386    0.00114     0.40500
      H   29    0.10160      0.00000     0.39736    0.00103     0.39840
      H   30    0.23595      0.00000     0.26006    0.00398     0.26405
      H   31    0.19330      0.00000     0.29965    0.00705     0.30670
      H   32    0.21297      0.00000     0.28506    0.00197     0.28703
 =======================================================================
   * Total *   -0.00000     19.99341    43.79454    0.21205    64.00000

 Normal termination of Gaussian 16 at Fri Dec 11 00:44:11 2020.
