 Gaussian 16, Revision A.03,

 -----------------------------------------------------------
 # opt freq B3LYP/6-31G(d) empiricaldispersion=gd3bj scf=xqc
 -----------------------------------------------------------

 -------------------------------
 CID_116088372_JID_5552_neutraal
 -------------------------------
 Symbolic Z-matrix:
 Charge =  0 Multiplicity = 1

 SCF Done:  E(RB3LYP) =  -990.674163907     A.U. after   15 cycles
 SCF Done:  E(RB3LYP) =  -990.678237847     A.U. after   13 cycles
 SCF Done:  E(RB3LYP) =  -990.678872048     A.U. after   12 cycles
 SCF Done:  E(RB3LYP) =  -990.678881508     A.U. after   12 cycles
 SCF Done:  E(RB3LYP) =  -990.679080546     A.U. after   12 cycles
 SCF Done:  E(RB3LYP) =  -990.679672211     A.U. after   12 cycles
 SCF Done:  E(RB3LYP) =  -990.679741081     A.U. after   12 cycles
 SCF Done:  E(RB3LYP) =  -990.679807101     A.U. after   11 cycles
 SCF Done:  E(RB3LYP) =  -990.679833895     A.U. after   11 cycles
 SCF Done:  E(RB3LYP) =  -990.679842757     A.U. after   10 cycles
 SCF Done:  E(RB3LYP) =  -990.679846980     A.U. after    9 cycles
 SCF Done:  E(RB3LYP) =  -990.679847747     A.U. after    9 cycles
 SCF Done:  E(RB3LYP) =  -990.679847793     A.U. after    7 cycles
 Optimization completed.
    -- Stationary point found.
 Normal termination of Gaussian 16 at Thu Dec 10 16:29:27 2020.

 --------------------------------------------------------------------
 #N Geom=AllCheck Guess=TCheck SCRF=Check GenChk RB3LYP/6-31G(d) Freq
 --------------------------------------------------------------------

 Structure from the checkpoint file:  "JID_5552.chk"
 -------------------------------
 CID_116088372_JID_5552_neutraal
 -------------------------------
 Charge =  0 Multiplicity = 1

 SCF Done:  E(RB3LYP) =  -990.679847793     A.U. after    1 cycles

  Exact polarizability: 176.605  -2.917 135.867  23.409  11.821 125.058
 Approx polarizability: 246.472  -8.598 215.628  57.284  28.341 214.341

                      1                      2                      3
                      A                      A                      A
 Frequencies --     25.3070                29.5143                59.4483
 Red. masses --      6.8520                 3.9441                 5.8628
 Frc consts  --      0.0026                 0.0020                 0.0122
 IR Inten    --      1.2146                 1.5045                 0.3659

                      4                      5                      6
                      A                      A                      A
 Frequencies --     69.1581                96.1386               140.3426
 Red. masses --      3.1653                 3.8552                 5.8153
 Frc consts  --      0.0089                 0.0210                 0.0675
 IR Inten    --      1.4841                 4.4721                 1.9917

                      7                      8                      9
                      A                      A                      A
 Frequencies --    143.4045               157.7042               171.6281
 Red. masses --      4.4351                 1.3263                 2.9054
 Frc consts  --      0.0537                 0.0194                 0.0504
 IR Inten    --      1.4633                 0.3765                 0.1930

                     10                     11                     12
                      A                      A                      A
 Frequencies --    207.6815               247.2026               260.5335
 Red. masses --      4.6882                 3.0647                 3.2617
 Frc consts  --      0.1191                 0.1103                 0.1304
 IR Inten    --      0.2705                 3.4485                 1.8225

                     13                     14                     15
                      A                      A                      A
 Frequencies --    281.2639               297.9001               343.1760
 Red. masses --      1.8799                 1.6019                 2.1575
 Frc consts  --      0.0876                 0.0838                 0.1497
 IR Inten    --      0.2439                 0.9632                 1.3117

                     16                     17                     18
                      A                      A                      A
 Frequencies --    375.3631               394.7934               466.1992
 Red. masses --      4.3628                 1.8485                 3.9508
 Frc consts  --      0.3622                 0.1697                 0.5059
 IR Inten    --      1.9449                 0.1041                 9.5587

                     19                     20                     21
                      A                      A                      A
 Frequencies --    485.7189               505.7589               552.4023
 Red. masses --      8.6182                 4.1016                 2.6427
 Frc consts  --      1.1979                 0.6182                 0.4751
 IR Inten    --      0.7279                 2.7402                10.4262

                     22                     23                     24
                      A                      A                      A
 Frequencies --    564.4934               586.3841               674.6246
 Red. masses --      5.1960                 6.0284                 3.4151
 Frc consts  --      0.9755                 1.2213                 0.9157
 IR Inten    --      9.0558                 1.5022                12.4582

                     25                     26                     27
                      A                      A                      A
 Frequencies --    677.0867               713.9198               728.5986
 Red. masses --      3.5389                 4.1080                 3.3879
 Frc consts  --      0.9559                 1.2336                 1.0596
 IR Inten    --      7.3682                53.6357                56.8086

                     28                     29                     30
                      A                      A                      A
 Frequencies --    761.4454               779.3669               828.4523
 Red. masses --      4.4407                 3.7517                 1.6344
 Frc consts  --      1.5170                 1.3426                 0.6609
 IR Inten    --      0.7793                31.3342                12.5105

                     31                     32                     33
                      A                      A                      A
 Frequencies --    863.0706               866.6736               914.0892
 Red. masses --      1.5292                 1.9573                 1.4823
 Frc consts  --      0.6711                 0.8662                 0.7297
 IR Inten    --      8.7854                25.6936                 2.7561

                     34                     35                     36
                      A                      A                      A
 Frequencies --    920.6428               941.6336               987.7649
 Red. masses --      3.4191                 1.9077                 1.4335
 Frc consts  --      1.7074                 0.9966                 0.8241
 IR Inten    --      1.9351                 3.8439                 0.5904

                     37                     38                     39
                      A                      A                      A
 Frequencies --    991.8017               993.5916              1003.8199
 Red. masses --      1.2388                 1.4351                 1.3876
 Frc consts  --      0.7180                 0.8348                 0.8238
 IR Inten    --      4.4823                 1.1517                 8.8282

                     40                     41                     42
                      A                      A                      A
 Frequencies --   1014.0904              1075.2288              1099.7481
 Red. masses --      7.1600                 1.6547                 1.6879
 Frc consts  --      4.3383                 1.1271                 1.2027
 IR Inten    --      6.0223                22.4850                 2.0066

                     43                     44                     45
                      A                      A                      A
 Frequencies --   1140.5762              1160.8327              1173.9110
 Red. masses --      1.6149                 3.3381                 1.8302
 Frc consts  --      1.2378                 2.6503                 1.4860
 IR Inten    --      0.1376                43.3142                 4.9008

                     46                     47                     48
                      A                      A                      A
 Frequencies --   1184.6658              1236.5208              1275.2814
 Red. masses --      1.6987                 1.2498                 1.5036
 Frc consts  --      1.4047                 1.1258                 1.4408
 IR Inten    --     13.0649                 8.3128                 5.7238

                     49                     50                     51
                      A                      A                      A
 Frequencies --   1285.5786              1305.0465              1327.8110
 Red. masses --      4.5277                 2.1090                 2.1695
 Frc consts  --      4.4088                 2.1163                 2.2536
 IR Inten    --      8.4390                13.2163                 3.1226

                     52                     53                     54
                      A                      A                      A
 Frequencies --   1333.3967              1362.1969              1379.1857
 Red. masses --      1.4956                 1.2970                 1.2519
 Frc consts  --      1.5667                 1.4180                 1.4030
 IR Inten    --      7.6810                18.8414                10.8926

                     55                     56                     57
                      A                      A                      A
 Frequencies --   1393.5347              1399.8648              1435.4838
 Red. masses --      1.1730                 1.4092                 1.2907
 Frc consts  --      1.3421                 1.6270                 1.5670
 IR Inten    --      6.6811                 7.9823                10.1585

                     58                     59                     60
                      A                      A                      A
 Frequencies --   1445.4887              1491.6242              1494.5776
 Red. masses --      2.2878                 1.0844                 1.1059
 Frc consts  --      2.8164                 1.4215                 1.4555
 IR Inten    --     19.9887                 4.7530                 1.5253

                     61                     62                     63
                      A                      A                      A
 Frequencies --   1498.3319              1511.3830              1517.7561
 Red. masses --      1.0558                 1.0719                 2.1016
 Frc consts  --      1.3966                 1.4426                 2.8523
 IR Inten    --      4.7396                24.1696                12.1580

                     64                     65                     66
                      A                      A                      A
 Frequencies --   1519.0324              1532.0239              1542.0481
 Red. masses --      1.1068                 1.0831                 1.1315
 Frc consts  --      1.5048                 1.4978                 1.5853
 IR Inten    --      1.5506                24.0426                17.6245

                     67                     68                     69
                      A                      A                      A
 Frequencies --   1614.7651              1645.7984              2359.9391
 Red. masses --      6.5491                 5.2887                12.6880
 Frc consts  --     10.0612                 8.4402                41.6338
 IR Inten    --     14.8779                52.8573                 5.8230

                     70                     71                     72
                      A                      A                      A
 Frequencies --   3022.9287              3042.6239              3054.4896
 Red. masses --      1.0835                 1.0614                 1.0368
 Frc consts  --      5.8335                 5.7891                 5.6991
 IR Inten    --     17.6857                39.5708                15.4033

                     73                     74                     75
                      A                      A                      A
 Frequencies --   3067.1133              3076.7103              3088.1809
 Red. masses --      1.0309                 1.0671                 1.1033
 Frc consts  --      5.7137                 5.9513                 6.1994
 IR Inten    --     33.8856                15.8452                17.5875

                     76                     77                     78
                      A                      A                      A
 Frequencies --   3120.5721              3143.0992              3149.8715
 Red. masses --      1.1017                 1.1017                 1.1052
 Frc consts  --      6.3207                 6.4124                 6.4609
 IR Inten    --     29.2495                26.5884                 9.7330

                     79                     80                     81
                      A                      A                      A
 Frequencies --   3150.3937              3162.3398              3188.7309
 Red. masses --      1.0976                 1.1056                 1.0887
 Frc consts  --      6.4184                 6.5145                 6.5221
 IR Inten    --     11.1073                 7.0236                11.7951

                     82                     83                     84
                      A                      A                      A
 Frequencies --   3206.5117              3209.3051              3498.0067
 Red. masses --      1.0916                 1.0944                 1.0734
 Frc consts  --      6.6129                 6.6413                 7.7382
 IR Inten    --      3.0276                10.2551                 2.9650

 - Thermochemistry -
 -------------------
 Temperature   298.150 Kelvin.  Pressure   1.00000 Atm.
 Atom     1 has atomic number  6 and mass  12.00000

 Molecular mass:   221.09867 amu.
 Principal axes and moments of inertia in atomic units:
                           1         2         3
     Eigenvalues --  2082.791935910.332756465.94364
           X            0.99983   0.00343  -0.01804
           Y           -0.00341   0.99999   0.00149
           Z            0.01805  -0.00143   0.99984
 This molecule is an asymmetric top.
 Rotational symmetry number  1.
 Warning -- assumption of classical behavior for rotation
           may cause significant error
 Rotational temperatures (Kelvin)      0.04159     0.01465     0.01340
 Rotational constants (GHZ):           0.86650     0.30535     0.27911
 Zero-point vibrational energy     652232.1 (Joules/Mol)
                                  155.88722 (Kcal/Mol)
 Warning -- explicit consideration of  23 degrees of freedom as
           vibrations may cause significant error
 Vibrational temperatures:     36.41    42.46    85.53    99.50   138.32
          (Kelvin)            201.92   206.33   226.90   246.93   298.81
                              355.67   374.85   404.68   428.61   493.75
                              540.06   568.02   670.76   698.84   727.67
                              794.78   812.18   843.68   970.63   974.18
                             1027.17  1048.29  1095.55  1121.34  1191.96
                             1241.77  1246.95  1315.17  1324.60  1354.80
                             1421.17  1426.98  1429.56  1444.27  1459.05
                             1547.01  1582.29  1641.03  1670.18  1689.00
                             1704.47  1779.08  1834.85  1849.66  1877.67
                             1910.42  1918.46  1959.90  1984.34  2004.99
                             2014.09  2065.34  2079.74  2146.11  2150.36
                             2155.77  2174.54  2183.71  2185.55  2204.24
                             2218.66  2323.29  2367.94  3395.43  4349.32
                             4377.66  4394.73  4412.89  4426.70  4443.20
                             4489.81  4522.22  4531.96  4532.71  4549.90
                             4587.87  4613.46  4617.47  5032.85

 Zero-point correction=                           0.248422 (Hartree/Particle)
 Thermal correction to Energy=                    0.264005
 Thermal correction to Enthalpy=                  0.264949
 Thermal correction to Gibbs Free Energy=         0.203832
 Sum of electronic and zero-point Energies=           -990.431426
 Sum of electronic and thermal Energies=              -990.415843
 Sum of electronic and thermal Enthalpies=            -990.414899
 Sum of electronic and thermal Free Energies=         -990.476015

                     E (Thermal)             CV                S
                      KCal/Mol        Cal/Mol-Kelvin    Cal/Mol-Kelvin
 Total                  165.665             57.333            128.631
 Electronic               0.000              0.000              0.000
 Translational            0.889              2.981             42.083
 Rotational               0.889              2.981             32.743
 Vibrational            163.888             51.371             53.805
 Vibration     1          0.593              1.985              6.167
 Vibration     2          0.593              1.984              5.862
 Vibration     3          0.597              1.974              4.475
 Vibration     4          0.598              1.969              4.177
 Vibration     5          0.603              1.952              3.531
 Vibration     6          0.615              1.913              2.799
 Vibration     7          0.616              1.910              2.758
 Vibration     8          0.621              1.894              2.577
 Vibration     9          0.626              1.877              2.418
 Vibration    10          0.641              1.829              2.064
 Vibration    11          0.661              1.767              1.750
 Vibration    12          0.669              1.745              1.658
 Vibration    13          0.681              1.708              1.526
 Vibration    14          0.691              1.678              1.429
 Vibration    15          0.722              1.589              1.197
 Vibration    16          0.746              1.523              1.058
 Vibration    17          0.762              1.481              0.982
 Vibration    18          0.824              1.325              0.748
 Vibration    19          0.842              1.282              0.695
 Vibration    20          0.861              1.237              0.644
 Vibration    21          0.908              1.134              0.539
 Vibration    22          0.920              1.108              0.515
 Vibration    23          0.943              1.061              0.474

 Optimization completed.
    -- Stationary point found.
 Normal termination of Gaussian 16 at Thu Dec 10 16:39:08 2020.

 ----------------------------------------------------------------------
 # B3LYP/6-311++G(d,p) empiricaldispersion=gd3bj scf=xqc pop=npa geom=c
 heck
 ----------------------------------------------------------------------

 ---------------------------------------
 CID_116088372_JID_5552_Energie_neutraal
 ---------------------------------------
 Structure from the checkpoint file:  "JID_5552.chk"
 Charge =  0 Multiplicity = 1

 SCF Done:  E(RB3LYP) =  -990.868084325     A.U. after   16 cycles
 Normal termination of Gaussian 16 at Thu Dec 10 16:43:50 2020.

 ----------------------------------------------------------------------
 # B3LYP/6-311++G(d,p) empiricaldispersion=gd3bj scf=xqc pop=npa geom=c
 heck
 ----------------------------------------------------------------------

 -------------------------------------
 CID_116088372_JID_5552_Energie_kation
 -------------------------------------
 Structure from the checkpoint file:  "JID_5552.chk"
 Charge =  1 Multiplicity = 2

 SCF Done:  E(UB3LYP) =  -990.562232943     A.U. after   25 cycles
 Normal termination of Gaussian 16 at Thu Dec 10 16:53:05 2020.
 Gaussian 16:  ES64L-G16RevA.03 25-Dec-2016

 ----------------------------------------------------------------------
 # B3LYP/6-311++G(d,p) empiricaldispersion=gd3bj scf=xqc pop=npa geom=c
 heck
 ----------------------------------------------------------------------

 ------------------------------------
 CID_116088372_JID_5552_Energie_anion
 ------------------------------------
 Structure from the checkpoint file:  "JID_5552.chk"
 Charge = -1 Multiplicity = 2

                         Standard orientation:
 ---------------------------------------------------------------------
 Center     Atomic      Atomic             Coordinates (Angstroms)
 Number     Number       Type             X           Y           Z
 ---------------------------------------------------------------------
      1          6           0       -3.386252    1.501716    0.725081
      2          6           0       -1.874645    1.289354    0.613358
      3          6           0       -1.458886   -0.143010    1.029038
      4         16           0       -1.972803   -1.467108   -0.138823
      5          6           0       -3.548776   -2.018022    0.607159
      6          7           0       -1.458034    1.704118   -0.726012
      7          6           0       -0.053313    2.021366   -0.941064
      8          6           0        0.952901    0.882786   -0.832612
      9          6           0        2.003462    0.924274    0.084667
     10          6           0        2.882042   -0.164097    0.160556
     11          7           0        2.784235   -1.264173   -0.602779
     12          6           0        1.779516   -1.288873   -1.483301
     13          6           0        0.854907   -0.255972   -1.638013
     14          6           0        3.963268   -0.129280    1.115391
     15          7           0        4.819473   -0.063306    1.898123
     16          1           0       -3.911369    0.905409   -0.029456
     17          1           0       -3.631156    2.552349    0.549122
     18          1           0       -3.758612    1.208702    1.713157
     19          1           0       -1.375790    1.969640    1.319248
     20          1           0       -0.372473   -0.218367    1.095500
     21          1           0       -1.859953   -0.386129    2.019138
     22          1           0       -3.392573   -2.337405    1.641560
     23          1           0       -4.315531   -1.241504    0.572513
     24          1           0       -3.887489   -2.877453    0.022832
     25          1           0       -1.798785    1.030181   -1.409517
     26          1           0        0.030810    2.459198   -1.944140
     27          1           0        0.226603    2.809720   -0.232496
     28          1           0        2.140774    1.778572    0.740583
     29          1           0        1.708597   -2.184484   -2.095893
     30          1           0        0.056729   -0.352630   -2.367867
 ---------------------------------------------------------------------

 SCF Done:  E(UB3LYP) =  -990.887040241     A.U. after   27 cycles

 The electronic state is 2-A.
 Alpha  occ. eigenvalues --  -88.73985 -14.19398 -14.15859 -14.15573 -10.10968
 Alpha  occ. eigenvalues --  -10.10073 -10.09361 -10.08959 -10.07272 -10.07065
 Alpha  occ. eigenvalues --  -10.06993 -10.05567 -10.05037 -10.04935 -10.02882
 Alpha  occ. eigenvalues --   -7.82542  -5.78953  -5.78567  -5.77901  -0.81246
 Alpha  occ. eigenvalues --   -0.80531  -0.75473  -0.70715  -0.68254  -0.65359
 Alpha  occ. eigenvalues --   -0.63610  -0.60551  -0.56721  -0.53051  -0.51385
 Alpha  occ. eigenvalues --   -0.48661  -0.47167  -0.41037  -0.38452  -0.37057
 Alpha  occ. eigenvalues --   -0.35725  -0.35551  -0.34920  -0.34587  -0.32824
 Alpha  occ. eigenvalues --   -0.32236  -0.30907  -0.29112  -0.28716  -0.28232
 Alpha  occ. eigenvalues --   -0.27930  -0.26718  -0.25911  -0.24256  -0.23682
 Alpha  occ. eigenvalues --   -0.21940  -0.21054  -0.20554  -0.19103  -0.15418
 Alpha  occ. eigenvalues --   -0.13445  -0.12905  -0.12559  -0.11897   0.03489
 Alpha virt. eigenvalues --    0.05829   0.07434   0.08162   0.08820   0.09549
 Alpha virt. eigenvalues --    0.09951   0.10574   0.10623   0.11327   0.11471
 Alpha virt. eigenvalues --    0.12189   0.12874   0.13107   0.14191   0.14402

  Beta  occ. eigenvalues --  -88.73982 -14.19379 -14.15490 -14.15276 -10.10964
  Beta  occ. eigenvalues --  -10.10028 -10.09358 -10.08969 -10.07088 -10.07057
  Beta  occ. eigenvalues --  -10.06918 -10.05593 -10.04986 -10.04870 -10.02559
  Beta  occ. eigenvalues --   -7.82538  -5.78943  -5.78565  -5.77897  -0.81108
  Beta  occ. eigenvalues --   -0.79995  -0.75036  -0.70644  -0.67919  -0.65199
  Beta  occ. eigenvalues --   -0.63058  -0.60517  -0.56521  -0.52931  -0.50837
  Beta  occ. eigenvalues --   -0.48514  -0.47130  -0.40824  -0.38357  -0.36931
  Beta  occ. eigenvalues --   -0.35495  -0.35472  -0.34815  -0.34463  -0.32776
  Beta  occ. eigenvalues --   -0.32179  -0.30801  -0.29072  -0.28622  -0.27971
  Beta  occ. eigenvalues --   -0.27156  -0.26617  -0.25407  -0.24094  -0.23453
  Beta  occ. eigenvalues --   -0.21526  -0.20833  -0.19529  -0.18929  -0.14132
  Beta  occ. eigenvalues --   -0.13266  -0.12310  -0.11765  -0.11106
  Beta virt. eigenvalues --    0.05821   0.07396   0.08065   0.08647   0.09436
  Beta virt. eigenvalues --    0.09720   0.09908   0.10572   0.10837   0.11242
  Beta virt. eigenvalues --    0.11489   0.12158   0.12835   0.13037   0.14201

 Mulliken charges and spin densities:
               1          2
     1  C   -0.387436  -0.311393
     2  C   -0.331526   0.065868
     3  C   -0.145754   0.006777
     4  S   -0.090597   0.062993
     5  C   -0.353727  -0.300223
     6  N    0.129658  -0.052630
     7  C   -0.674830   0.103599
     8  C    0.987995   0.137234
     9  C   -0.411150   0.012906
    10  C    0.881010   0.249286
    11  N   -0.058771   0.175168
    12  C   -0.046744  -0.045464
    13  C   -0.309252   0.163211
    14  C   -1.518516  -0.155181
    15  N   -0.337258   0.157391
    16  H    0.125393   0.034120
    17  H    0.129226   0.021903
    18  H    0.053276   0.072478
    19  H    0.080156   0.049056
    20  H    0.241753   0.016346
    21  H    0.168016   0.029889
    22  H    0.067783   0.095329
    23  H    0.026470   0.124392
    24  H    0.022323   0.128978
    25  H    0.192225   0.011567
    26  H    0.072352   0.114792
    27  H    0.123838   0.000103
    28  H    0.155344   0.008944
    29  H    0.129755   0.008925
    30  H    0.078987   0.013634
 Sum of Mulliken charges =  -1.00000   1.00000

 Dipole moment (field-independent basis, Debye):
    X=            -10.1373    Y=              2.0750    Z=             -1.1242  Tot=             10.4083
 Quadrupole moment (field-independent basis, Debye-Ang):
   XX=           -179.7623   YY=           -117.0308   ZZ=           -117.7644
   XY=              7.2944   XZ=            -15.7570   YZ=              3.2484

 Summary of Natural Population Analysis:

                                       Natural Population
                Natural  -----------------------------------------------
    Atom  No    Charge         Core      Valence    Rydberg      Total
 -----------------------------------------------------------------------
      C    1   -0.28726      0.99964     2.28172    0.00589     3.28726
      C    2   -0.01441      0.99960     2.00337    0.01145     3.01441
      C    3   -0.25946      0.99956     2.25019    0.00971     3.25946
      S    4    0.08940      4.99965     2.89123    0.01972     7.91060
      C    5   -0.35047      0.99963     2.34484    0.00600     3.35047
      N    6   -0.34608      0.99974     2.83313    0.01320     3.84608
      C    7   -0.09101      0.99959     2.07976    0.01166     3.09101
      C    8    0.00250      0.99949     1.98886    0.00915     2.99750
      C    9   -0.11289      0.99948     2.10483    0.00858     3.11289
      C   10    0.08236      0.99944     1.90287    0.01533     2.91764
      N   11   -0.17448      0.99969     2.66376    0.01104     3.67448
      C   12    0.00938      0.99960     1.97768    0.01334     2.99062
      C   13   -0.07108      0.99950     2.06096    0.01062     3.07108
      C   14    0.14305      0.99964     1.83855    0.01876     2.85695
      N   15   -0.16322      0.99979     2.65221    0.01123     3.66322
      H   16    0.09792      0.00000     0.40083    0.00125     0.40208
      H   17    0.10153      0.00000     0.39717    0.00130     0.39847
      H   18    0.09381      0.00000     0.40518    0.00102     0.40619
      H   19    0.09086      0.00000     0.40727    0.00186     0.40914
      H   20    0.12196      0.00000     0.37671    0.00133     0.37804
      H   21    0.09863      0.00000     0.40018    0.00119     0.40137
      H   22    0.09736      0.00000     0.40086    0.00179     0.40264
      H   23    0.09713      0.00000     0.40092    0.00195     0.40287
      H   24    0.10386      0.00000     0.39496    0.00118     0.39614
      H   25    0.17727      0.00000     0.31960    0.00313     0.32273
      H   26    0.09881      0.00000     0.40005    0.00114     0.40119
      H   27    0.09039      0.00000     0.40851    0.00110     0.40961
      H   28    0.09839      0.00000     0.40069    0.00092     0.40161
      H   29    0.08269      0.00000     0.41605    0.00126     0.41731
      H   30    0.09306      0.00000     0.40516    0.00179     0.40694
 =======================================================================
   * Total *    0.00000     18.99403    39.80809    0.19788    59.00000

 Normal termination of Gaussian 16 at Thu Dec 10 17:03:47 2020.
