 Gaussian 16, Revision A.03,

 -----------------------------------------------------------
 # opt freq B3LYP/6-31G(d) empiricaldispersion=gd3bj scf=xqc
 -----------------------------------------------------------

 ------------------------------
 CID_62445650_JID_8866_neutraal
 ------------------------------
 Symbolic Z-matrix:
 Charge =  0 Multiplicity = 1

 SCF Done:  E(RB3LYP) =  -827.774514401     A.U. after   14 cycles
 SCF Done:  E(RB3LYP) =  -827.775982563     A.U. after   12 cycles
 SCF Done:  E(RB3LYP) =  -827.773937920     A.U. after   12 cycles
 SCF Done:  E(RB3LYP) =  -827.779347731     A.U. after   11 cycles
 SCF Done:  E(RB3LYP) =  -827.780365092     A.U. after   12 cycles
 SCF Done:  E(RB3LYP) =  -827.782362114     A.U. after   12 cycles
 SCF Done:  E(RB3LYP) =  -827.783989248     A.U. after   12 cycles
 SCF Done:  E(RB3LYP) =  -827.753956733     A.U. after   13 cycles
 SCF Done:  E(RB3LYP) =  -827.723958062     A.U. after   13 cycles
 SCF Done:  E(RB3LYP) =  -827.760401877     A.U. after   13 cycles
 SCF Done:  E(RB3LYP) =  -827.785870140     A.U. after    9 cycles
 SCF Done:  E(RB3LYP) =  -827.785872179     A.U. after    9 cycles
 SCF Done:  E(RB3LYP) =  -827.785872653     A.U. after    8 cycles
 SCF Done:  E(RB3LYP) =  -827.785872686     A.U. after    7 cycles
 SCF Done:  E(RB3LYP) =  -827.785872745     A.U. after    7 cycles
 Optimization completed.
    -- Stationary point found.
 Normal termination of Gaussian 16 at Fri Dec 11 22:51:04 2020.

 --------------------------------------------------------------------
 #N Geom=AllCheck Guess=TCheck SCRF=Check GenChk RB3LYP/6-31G(d) Freq
 --------------------------------------------------------------------

 Structure from the checkpoint file:  "JID_8866.chk"
 ------------------------------
 CID_62445650_JID_8866_neutraal
 ------------------------------
 Charge =  0 Multiplicity = 1

 SCF Done:  E(RB3LYP) =  -827.785872745     A.U. after    1 cycles

  Exact polarizability: 196.609   9.798 134.750   1.358 -11.924 150.651
 Approx polarizability: 268.946  15.184 181.975   5.786 -18.263 253.356

                      1                      2                      3
                      A                      A                      A
 Frequencies --     15.9905                43.0602                48.8289
 Red. masses --      3.9152                 3.5061                 3.5173
 Frc consts  --      0.0006                 0.0038                 0.0049
 IR Inten    --      0.1952                 0.4397                 1.3179

                      4                      5                      6
                      A                      A                      A
 Frequencies --     56.7768                67.0489                69.3658
 Red. masses --      4.5933                 2.7717                 3.0080
 Frc consts  --      0.0087                 0.0073                 0.0085
 IR Inten    --      0.5129                 1.0930                 2.4871

                      7                      8                      9
                      A                      A                      A
 Frequencies --     86.7645               114.5597               125.4087
 Red. masses --      4.0337                 2.2539                 3.5401
 Frc consts  --      0.0179                 0.0174                 0.0328
 IR Inten    --      0.0897                 0.2720                 1.0723

                     10                     11                     12
                      A                      A                      A
 Frequencies --    152.9700               162.6229               206.9849
 Red. masses --      3.2974                 2.0886                 4.5719
 Frc consts  --      0.0455                 0.0325                 0.1154
 IR Inten    --      3.3418                 3.6576                 4.4019

                     13                     14                     15
                      A                      A                      A
 Frequencies --    235.5932               249.6774               262.1625
 Red. masses --      2.7909                 1.8775                 1.3734
 Frc consts  --      0.0913                 0.0690                 0.0556
 IR Inten    --      1.2263                 0.4752                 1.2490

                     16                     17                     18
                      A                      A                      A
 Frequencies --    266.1096               302.9379               308.8863
 Red. masses --      1.7539                 3.2183                 3.1359
 Frc consts  --      0.0732                 0.1740                 0.1763
 IR Inten    --      3.4789                 1.4456                 1.9327

                     19                     20                     21
                      A                      A                      A
 Frequencies --    317.3346               333.1943               347.0731
 Red. masses --      3.3976                 1.8212                 2.8954
 Frc consts  --      0.2016                 0.1191                 0.2055
 IR Inten    --      0.2562                 2.4805                 3.5600

                     22                     23                     24
                      A                      A                      A
 Frequencies --    390.3629               456.2532               467.5796
 Red. masses --      2.6991                 3.2335                 2.7516
 Frc consts  --      0.2423                 0.3966                 0.3544
 IR Inten    --      5.2569                 7.8683                 3.5041

                     25                     26                     27
                      A                      A                      A
 Frequencies --    468.7211               518.6148               535.7011
 Red. masses --      4.0960                 2.6318                 2.8647
 Frc consts  --      0.5302                 0.4171                 0.4844
 IR Inten    --      0.9689                 1.6225                 5.7686

                     28                     29                     30
                      A                      A                      A
 Frequencies --    560.6012               601.6206               652.5169
 Red. masses --      2.5813                 3.9892                 4.5903
 Frc consts  --      0.4780                 0.8507                 1.1515
 IR Inten    --      6.9118                 2.0966                 0.4413

                     31                     32                     33
                      A                      A                      A
 Frequencies --    710.3827               757.8435               804.3673
 Red. masses --      2.3917                 3.9064                 1.5182
 Frc consts  --      0.7111                 1.3219                 0.5788
 IR Inten    --      9.5209                 5.1994                25.2378

                     34                     35                     36
                      A                      A                      A
 Frequencies --    807.2131               817.4292               820.5648
 Red. masses --      1.8416                 1.3517                 1.4509
 Frc consts  --      0.7070                 0.5321                 0.5756
 IR Inten    --     18.6237                75.4773                 4.0107

                     37                     38                     39
                      A                      A                      A
 Frequencies --    851.2432               877.2717               892.8778
 Red. masses --      2.2039                 2.4908                 1.3755
 Frc consts  --      0.9409                 1.1294                 0.6461
 IR Inten    --     11.0384                 7.8310                11.7030

                     40                     41                     42
                      A                      A                      A
 Frequencies --    910.1557               920.8948               941.4891
 Red. masses --      1.5478                 2.0746                 2.5536
 Frc consts  --      0.7555                 1.0366                 1.3336
 IR Inten    --      4.7850                 8.3883                19.6163

                     43                     44                     45
                      A                      A                      A
 Frequencies --    957.0610               974.8304              1001.7382
 Red. masses --      2.0428                 1.2665                 2.3354
 Frc consts  --      1.1025                 0.7091                 1.3808
 IR Inten    --     33.1887                 0.8898                 4.2816

                     46                     47                     48
                      A                      A                      A
 Frequencies --   1011.2575              1022.2292              1030.0199
 Red. masses --      1.5259                 5.8532                 2.6191
 Frc consts  --      0.9194                 3.6036                 1.6372
 IR Inten    --     13.1610                 0.7636                19.7485

                     49                     50                     51
                      A                      A                      A
 Frequencies --   1066.4447              1087.0967              1108.0037
 Red. masses --      2.6652                 3.1907                 2.1412
 Frc consts  --      1.7859                 2.2217                 1.5488
 IR Inten    --     18.2134                65.7955                11.4450

                     52                     53                     54
                      A                      A                      A
 Frequencies --   1118.6008              1120.6547              1140.9787
 Red. masses --      1.6724                 1.9271                 2.6984
 Frc consts  --      1.2329                 1.4259                 2.0697
 IR Inten    --      4.4436                 2.4525                32.2648

                     55                     56                     57
                      A                      A                      A
 Frequencies --   1147.0682              1168.5915              1176.7915
 Red. masses --      2.2199                 1.5583                 3.2736
 Frc consts  --      1.7209                 1.2538                 2.6710
 IR Inten    --     32.0638                27.0413                76.4773

                     58                     59                     60
                      A                      A                      A
 Frequencies --   1178.1346              1186.7619              1199.0207
 Red. masses --      3.0955                 1.6002                 1.6456
 Frc consts  --      2.5315                 1.3278                 1.3939
 IR Inten    --     75.8463                52.5148                16.8793

                     61                     62                     63
                      A                      A                      A
 Frequencies --   1202.5416              1217.0295              1275.3280
 Red. masses --      1.4164                 1.8179                 1.3022
 Frc consts  --      1.2068                 1.5864                 1.2479
 IR Inten    --      4.8151                23.4098                12.2284

                     64                     65                     66
                      A                      A                      A
 Frequencies --   1284.9764              1286.4989              1319.1125
 Red. masses --      1.4143                 1.8309                 1.2286
 Frc consts  --      1.3759                 1.7854                 1.2596
 IR Inten    --      5.9059                73.7876                19.8950

                     67                     68                     69
                      A                      A                      A
 Frequencies --   1320.6756              1330.8212              1343.2876
 Red. masses --      1.5610                 1.3842                 1.1390
 Frc consts  --      1.6041                 1.4444                 1.2109
 IR Inten    --     46.4312                31.6343                14.8089

                     70                     71                     72
                      A                      A                      A
 Frequencies --   1362.4943              1363.2841              1400.4178
 Red. masses --      1.3369                 2.3184                 1.4854
 Frc consts  --      1.4623                 2.5387                 1.7164
 IR Inten    --      3.4407                 1.2715                19.7110

                     73                     74                     75
                      A                      A                      A
 Frequencies --   1405.6367              1414.4829              1429.7791
 Red. masses --      1.2476                 1.2580                 1.2448
 Frc consts  --      1.4524                 1.4830                 1.4993
 IR Inten    --     25.8953                 4.8123                21.9001

                     76                     77                     78
                      A                      A                      A
 Frequencies --   1434.6009              1443.3204              1451.3488
 Red. masses --      1.3074                 1.3119                 1.4002
 Frc consts  --      1.5853                 1.6102                 1.7377
 IR Inten    --      5.7860                12.4299                 4.8586

                     79                     80                     81
                      A                      A                      A
 Frequencies --   1480.0405              1494.7716              1507.8328
 Red. masses --      1.2682                 2.3374                 1.0921
 Frc consts  --      1.6367                 3.0770                 1.4629
 IR Inten    --      9.3148                28.6749                 5.6407

                     82                     83                     84
                      A                      A                      A
 Frequencies --   1508.8525              1509.3798              1518.4653
 Red. masses --      1.1279                 1.1725                 1.1116
 Frc consts  --      1.5130                 1.5738                 1.5101
 IR Inten    --     13.9265                16.4514                 8.0868

                     85                     86                     87
                      A                      A                      A
 Frequencies --   1519.7475              1522.6920              1528.4296
 Red. masses --      1.1170                 1.0617                 1.1019
 Frc consts  --      1.5200                 1.4503                 1.5166
 IR Inten    --      4.5944                 2.2352                 2.1851

                     88                     89                     90
                      A                      A                      A
 Frequencies --   1532.8860              1536.6929              1541.2533
 Red. masses --      1.2853                 1.1186                 1.4913
 Frc consts  --      1.7794                 1.5563                 2.0872
 IR Inten    --      7.0476                23.7673                25.2895

                     91                     92                     93
                      A                      A                      A
 Frequencies --   1545.6673              1549.2035              1642.6170
 Red. masses --      1.0796                 1.0755                 5.8203
 Frc consts  --      1.5196                 1.5208                 9.2527
 IR Inten    --      5.8605                10.6850                40.2987

                     94                     95                     96
                      A                      A                      A
 Frequencies --   1669.0296              2937.6192              2954.5650
 Red. masses --      6.1663                 1.0732                 1.0610
 Frc consts  --     10.1205                 5.4566                 5.4570
 IR Inten    --     59.4797                45.4697               109.8262

                     97                     98                     99
                      A                      A                      A
 Frequencies --   2987.2256              3004.2465              3023.5866
 Red. masses --      1.0694                 1.0575                 1.0857
 Frc consts  --      5.6222                 5.6235                 5.8478
 IR Inten    --     61.4511                52.5187                37.0175

                    100                    101                    102
                      A                      A                      A
 Frequencies --   3040.1526              3049.5372              3057.0946
 Red. masses --      1.0903                 1.0428                 1.0610
 Frc consts  --      5.9372                 5.7138                 5.8424
 IR Inten    --     14.8860                14.8634               102.1545

                    103                    104                    105
                      A                      A                      A
 Frequencies --   3061.2983              3067.1893              3072.7504
 Red. masses --      1.0630                 1.0635                 1.0738
 Frc consts  --      5.8693                 5.8945                 5.9734
 IR Inten    --      6.4295                39.3289                47.6962

                    106                    107                    108
                      A                      A                      A
 Frequencies --   3099.4673              3102.5040              3104.3523
 Red. masses --      1.1049                 1.1045                 1.0963
 Frc consts  --      6.2541                 6.2640                 6.2246
 IR Inten    --     25.5948                34.9577                11.5470

                    109                    110                    111
                      A                      A                      A
 Frequencies --   3114.6883              3119.8122              3122.1145
 Red. masses --      1.1022                 1.1021                 1.1019
 Frc consts  --      6.2999                 6.3204                 6.3284
 IR Inten    --     33.1524                54.2749                30.8988

                    112                    113                    114
                      A                      A                      A
 Frequencies --   3145.8905              3186.1740              3204.9551
 Red. masses --      1.1007                 1.0870                 1.0907
 Frc consts  --      6.4179                 6.5019                 6.6006
 IR Inten    --     25.5376                13.3227                 5.6754

                    115                    116                    117
                      A                      A                      A
 Frequencies --   3207.2681              3224.0206              3500.9687
 Red. masses --      1.0926                 1.0929                 1.0737
 Frc consts  --      6.6216                 6.6932                 7.7540
 IR Inten    --     14.8812                 5.0077                 0.5861

 - Thermochemistry -
 -------------------
 Temperature   298.150 Kelvin.  Pressure   1.00000 Atm.
 Atom     1 has atomic number  6 and mass  12.00000

 Molecular mass:   253.16779 amu.
 Principal axes and moments of inertia in atomic units:
                           1         2         3
     Eigenvalues --  3774.601245322.481247349.26335
           X            0.99985   0.01114  -0.01360
           Y           -0.01142   0.99971  -0.02126
           Z            0.01336   0.02142   0.99968
 This molecule is an asymmetric top.
 Rotational symmetry number  1.
 Warning -- assumption of classical behavior for rotation
           may cause significant error
 Rotational temperatures (Kelvin)      0.02295     0.01627     0.01179
 Rotational constants (GHZ):           0.47813     0.33908     0.24557
 Zero-point vibrational energy     948118.4 (Joules/Mol)
                                  226.60573 (Kcal/Mol)
 Warning -- explicit consideration of  29 degrees of freedom as
           vibrations may cause significant error
 Vibrational temperatures:     23.01    61.95    70.25    81.69    96.47
          (Kelvin)             99.80   124.83   164.83   180.44   220.09
                              233.98   297.81   338.97   359.23   377.19
                              382.87   435.86   444.42   456.57   479.39
                              499.36   561.65   656.45   672.74   674.39
                              746.17   770.75   806.58   865.60   938.83
                             1022.08  1090.37  1157.31  1161.40  1176.10
                             1180.61  1224.75  1262.20  1284.65  1309.51
                             1324.96  1354.59  1377.00  1402.56  1441.28
                             1454.97  1470.76  1481.97  1534.38  1564.09
                             1594.17  1609.42  1612.37  1641.61  1650.38
                             1681.34  1693.14  1695.07  1707.49  1725.12
                             1730.19  1751.03  1834.91  1848.79  1850.98
                             1897.91  1900.16  1914.75  1932.69  1960.33
                             1961.46  2014.89  2022.40  2035.13  2057.13
                             2064.07  2076.62  2088.17  2129.45  2150.64
                             2169.44  2170.90  2171.66  2184.73  2186.58
                             2190.81  2199.07  2205.48  2210.96  2217.52
                             2223.87  2228.96  2363.36  2401.36  4226.58
                             4250.96  4297.95  4322.44  4350.27  4374.10
                             4387.60  4398.48  4404.53  4413.00  4421.00
                             4459.44  4463.81  4466.47  4481.34  4488.71
                             4492.03  4526.23  4584.19  4611.22  4614.54
                             4638.65  5037.11

 Zero-point correction=                           0.361119 (Hartree/Particle)
 Thermal correction to Energy=                    0.380331
 Thermal correction to Enthalpy=                  0.381275
 Thermal correction to Gibbs Free Energy=         0.311839
 Sum of electronic and zero-point Energies=           -827.424754
 Sum of electronic and thermal Energies=              -827.405542
 Sum of electronic and thermal Enthalpies=            -827.404598
 Sum of electronic and thermal Free Energies=         -827.474034

                     E (Thermal)             CV                S
                      KCal/Mol        Cal/Mol-Kelvin    Cal/Mol-Kelvin
 Total                  238.661             71.080            146.140
 Electronic               0.000              0.000              0.000
 Translational            0.889              2.981             42.487
 Rotational               0.889              2.981             33.356
 Vibrational            236.884             65.119             70.297
 Vibration     1          0.593              1.986              7.079
 Vibration     2          0.595              1.980              5.113
 Vibration     3          0.595              1.978              4.864
 Vibration     4          0.596              1.975              4.566
 Vibration     5          0.598              1.970              4.238
 Vibration     6          0.598              1.969              4.171
 Vibration     7          0.601              1.958              3.732
 Vibration     8          0.607              1.937              3.190
 Vibration     9          0.610              1.928              3.015
 Vibration    10          0.619              1.899              2.635
 Vibration    11          0.623              1.888              2.519
 Vibration    12          0.641              1.830              2.070
 Vibration    13          0.655              1.786              1.836
 Vibration    14          0.662              1.763              1.733
 Vibration    15          0.669              1.742              1.647
 Vibration    16          0.672              1.735              1.621
 Vibration    17          0.694              1.668              1.401
 Vibration    18          0.698              1.657              1.368
 Vibration    19          0.704              1.640              1.324
 Vibration    20          0.715              1.609              1.245
 Vibration    21          0.725              1.581              1.179
 Vibration    22          0.758              1.491              0.999
 Vibration    23          0.814              1.347              0.777
 Vibration    24          0.825              1.322              0.744
 Vibration    25          0.826              1.319              0.741
 Vibration    26          0.874              1.209              0.613
 Vibration    27          0.891              1.171              0.575
 Vibration    28          0.916              1.117              0.523
 Vibration    29          0.960              1.028              0.447

 Optimization completed.
    -- Stationary point found.
 Normal termination of Gaussian 16 at Fri Dec 11 23:15:00 2020.

 ----------------------------------------------------------------------
 # B3LYP/6-311++G(d,p) empiricaldispersion=gd3bj scf=xqc pop=npa geom=c
 heck
 ----------------------------------------------------------------------

 --------------------------------------
 CID_62445650_JID_8866_Energie_neutraal
 --------------------------------------
 Structure from the checkpoint file:  "JID_8866.chk"
 Charge =  0 Multiplicity = 1

 SCF Done:  E(RB3LYP) =  -828.021724750     A.U. after   15 cycles
 Normal termination of Gaussian 16 at Fri Dec 11 23:25:34 2020.

 ----------------------------------------------------------------------
 # B3LYP/6-311++G(d,p) empiricaldispersion=gd3bj scf=xqc pop=npa geom=c
 heck
 ----------------------------------------------------------------------

 ------------------------------------
 CID_62445650_JID_8866_Energie_kation
 ------------------------------------
 Structure from the checkpoint file:  "JID_8866.chk"
 Charge =  1 Multiplicity = 2

 SCF Done:  E(UB3LYP) =  -827.735631244     A.U. after   26 cycles
 Normal termination of Gaussian 16 at Fri Dec 11 23:51:24 2020.
 Gaussian 16:  ES64L-G16RevA.03 25-Dec-2016

 ----------------------------------------------------------------------
 # B3LYP/6-311++G(d,p) empiricaldispersion=gd3bj scf=xqc pop=npa geom=c
 heck
 ----------------------------------------------------------------------

 -----------------------------------
 CID_62445650_JID_8866_Energie_anion
 -----------------------------------
 Structure from the checkpoint file:  "JID_8866.chk"
 Charge = -1 Multiplicity = 2

                         Standard orientation:
 ---------------------------------------------------------------------
 Center     Atomic      Atomic             Coordinates (Angstroms)
 Number     Number       Type             X           Y           Z
 ---------------------------------------------------------------------
      1          6           0        1.124266    2.424646   -0.863163
      2          6           0       -0.027249    3.239374   -0.280618
      3          8           0       -0.288843    2.972943    1.096981
      4          6           0       -0.684866    1.654281    1.429721
      5          6           0       -2.059551    1.243122    0.921157
      6          8           0       -1.978176    0.963029   -0.470544
      7          6           0       -3.125153    0.359771   -1.036091
      8          6           0       -3.255671   -1.123837   -0.695073
      9          8           0       -2.111552   -1.853693   -1.132078
     10          6           0       -1.000231   -1.823200   -0.317021
     11          6           0       -1.053692   -2.177740    1.033012
     12          6           0        0.118008   -2.146871    1.792107
     13          6           0        1.333582   -1.785691    1.215101
     14          6           0        1.390372   -1.451457   -0.145231
     15          6           0        0.217429   -1.470774   -0.901157
     16          6           0        2.703857   -1.061055   -0.786489
     17          7           0        3.519902   -0.251745    0.112926
     18          6           0        4.760447    0.195367   -0.505287
     19          1           0        2.021731    2.531632   -0.242491
     20          1           0        1.361857    2.783140   -1.871446
     21          1           0        0.865224    1.365175   -0.939049
     22          1           0        0.219564    4.306004   -0.303802
     23          1           0       -0.931069    3.084267   -0.881246
     24          1           0        0.045790    0.904397    1.099753
     25          1           0       -0.707622    1.635155    2.524740
     26          1           0       -2.373418    0.350290    1.481249
     27          1           0       -2.792092    2.044590    1.105815
     28          1           0       -3.008445    0.464090   -2.119012
     29          1           0       -4.046294    0.886959   -0.733604
     30          1           0       -3.431008   -1.273646    0.376217
     31          1           0       -4.111196   -1.544092   -1.233583
     32          1           0       -1.992680   -2.482876    1.483960
     33          1           0        0.078428   -2.417769    2.843788
     34          1           0        2.243397   -1.748031    1.804131
     35          1           0        0.222737   -1.183566   -1.948109
     36          1           0        3.282899   -1.965147   -1.027568
     37          1           0        2.501705   -0.562082   -1.753528
     38          1           0        2.973536    0.556546    0.404487
     39          1           0        4.620549    0.744951   -1.455030
     40          1           0        5.303027    0.843023    0.190588
     41          1           0        5.393345   -0.674635   -0.717418
 ---------------------------------------------------------------------

 SCF Done:  E(UB3LYP) =  -828.008377038     A.U. after   33 cycles
 SCF Done:  E(UB3LYP) =  -828.008377038     a.u. after    1 cycles

 The electronic state is 2-A.
 Alpha  occ. eigenvalues --  -19.05233 -19.03672 -19.02871 -14.21326 -10.14068
 Alpha  occ. eigenvalues --  -10.13245 -10.12901 -10.12307 -10.12064 -10.11965
 Alpha  occ. eigenvalues --  -10.11046 -10.10081 -10.09361 -10.08747 -10.08144
 Alpha  occ. eigenvalues --  -10.07981 -10.07644 -10.06942  -0.97224  -0.95094
 Alpha  occ. eigenvalues --   -0.93450  -0.82339  -0.76543  -0.69139  -0.67750
 Alpha  occ. eigenvalues --   -0.67191  -0.64892  -0.62349  -0.60593  -0.56787
 Alpha  occ. eigenvalues --   -0.55170  -0.53084  -0.51840  -0.49076  -0.48009
 Alpha  occ. eigenvalues --   -0.44233  -0.42471  -0.41346  -0.40453  -0.40059
 Alpha  occ. eigenvalues --   -0.38997  -0.38772  -0.37051  -0.36907  -0.36139
 Alpha  occ. eigenvalues --   -0.35557  -0.34169  -0.33797  -0.33307  -0.31812
 Alpha  occ. eigenvalues --   -0.31434  -0.30727  -0.30506  -0.29632  -0.28758
 Alpha  occ. eigenvalues --   -0.28433  -0.27550  -0.27178  -0.26657  -0.25992
 Alpha  occ. eigenvalues --   -0.24557  -0.23781  -0.21395  -0.20914  -0.18108
 Alpha  occ. eigenvalues --   -0.16502  -0.16254  -0.14533  -0.13633   0.04080
 Alpha virt. eigenvalues --    0.05380   0.06471   0.06884   0.07241   0.07673
 Alpha virt. eigenvalues --    0.07725   0.08278   0.08477   0.09078   0.09375
 Alpha virt. eigenvalues --    0.09980   0.10026   0.10717   0.11251   0.11672

  Beta  occ. eigenvalues --  -19.05228 -19.03668 -19.02871 -14.21319 -10.14062
  Beta  occ. eigenvalues --  -10.13214 -10.12879 -10.12286 -10.12057 -10.11958
  Beta  occ. eigenvalues --  -10.11037 -10.10051 -10.09354 -10.08740 -10.08127
  Beta  occ. eigenvalues --  -10.07981 -10.07637 -10.06926  -0.97210  -0.95084
  Beta  occ. eigenvalues --   -0.93445  -0.82326  -0.76526  -0.69108  -0.67726
  Beta  occ. eigenvalues --   -0.67167  -0.64870  -0.62317  -0.60555  -0.56748
  Beta  occ. eigenvalues --   -0.55120  -0.53040  -0.51817  -0.49044  -0.47963
  Beta  occ. eigenvalues --   -0.44202  -0.42433  -0.41328  -0.40426  -0.40038
  Beta  occ. eigenvalues --   -0.38968  -0.38741  -0.37013  -0.36881  -0.36116
  Beta  occ. eigenvalues --   -0.35521  -0.34146  -0.33769  -0.33282  -0.31785
  Beta  occ. eigenvalues --   -0.31398  -0.30705  -0.30472  -0.29606  -0.28728
  Beta  occ. eigenvalues --   -0.28409  -0.27526  -0.27159  -0.26638  -0.25965
  Beta  occ. eigenvalues --   -0.24529  -0.23752  -0.21383  -0.20888  -0.18084
  Beta  occ. eigenvalues --   -0.16492  -0.16233  -0.14509  -0.13604
  Beta virt. eigenvalues --    0.05907   0.06679   0.06993   0.07125   0.07530
  Beta virt. eigenvalues --    0.07841   0.08045   0.08757   0.08846   0.09326
  Beta virt. eigenvalues --    0.09520   0.10376   0.10517   0.10993   0.11472

 Mulliken charges and spin densities:
               1          2
     1  C   -0.384541  -0.021349
     2  C   -0.177118  -0.247100
     3  O   -0.048874   0.003216
     4  C   -0.273146  -0.344730
     5  C    0.085471  -0.095589
     6  O   -0.019243   0.026000
     7  C    0.253693  -0.534618
     8  C    0.480411  -0.713699
     9  O   -0.050417   0.010471
    10  C   -1.336536   0.470099
    11  C    1.881568  -1.733442
    12  C   -0.235744   0.082991
    13  C   -0.548629  -0.081980
    14  C    0.457612   0.615272
    15  C   -1.118664   1.031708
    16  C    0.462067  -1.303937
    17  N   -0.211452   0.138705
    18  C    0.576186  -0.961542
    19  H    0.122723   0.063167
    20  H   -0.150178   0.272362
    21  H    0.440322  -0.220144
    22  H   -0.024557   0.182783
    23  H    0.107878   0.043361
    24  H    0.827215  -0.509892
    25  H   -0.154587   0.333019
    26  H   -0.067040   0.137406
    27  H   -0.060810   0.247992
    28  H    0.026576   0.154976
    29  H   -0.370147   0.504682
    30  H   -0.279344   0.443830
    31  H   -0.586800   0.752475
    32  H   -0.244250   0.426243
    33  H   -0.308774   0.494534
    34  H    0.131363   0.071622
    35  H    0.062392   0.114229
    36  H   -0.019922   0.188737
    37  H    0.090937   0.044332
    38  H    0.142699   0.033830
    39  H   -0.163058   0.287319
    40  H   -0.119612   0.256957
    41  H   -0.195669   0.335702
 Sum of Mulliken charges =  -1.00000   1.00000

 Dipole moment (field-independent basis, Debye):
    X=              2.4323    Y=              0.5133    Z=             -0.9816  Tot=              2.6726
 Quadrupole moment (field-independent basis, Debye-Ang):
   XX=           -205.7609   YY=           -160.5825   ZZ=           -150.1210
   XY=             -6.0182   XZ=              5.3714   YZ=              0.3164

 Summary of Natural Population Analysis:

                                       Natural Population
                Natural  -----------------------------------------------
    Atom  No    Charge         Core      Valence    Rydberg      Total
 -----------------------------------------------------------------------
      C    1   -0.30553      0.99966     2.30028    0.00560     3.30553
      C    2   -0.01012      0.99959     1.99927    0.01126     3.01012
      O    3   -0.30201      0.99989     3.29329    0.00883     4.30201
      C    4   -0.02226      0.99956     2.00931    0.01339     3.02226
      C    5   -0.02574      0.99957     2.01411    0.01206     3.02574
      O    6   -0.30573      0.99988     3.29545    0.01040     4.30573
      C    7   -0.01875      0.99958     2.00625    0.01292     3.01875
      C    8   -0.02350      0.99955     2.01105    0.01289     3.02350
      O    9   -0.28656      0.99986     3.27693    0.00977     4.28656
      C   10    0.16200      0.99936     1.82367    0.01497     2.83800
      C   11   -0.13649      0.99950     2.12710    0.00989     3.13649
      C   12   -0.09259      0.99957     2.08308    0.00994     3.09259
      C   13   -0.11490      0.99951     2.10593    0.00946     3.11490
      C   14   -0.01711      0.99951     2.00814    0.00946     3.01711
      C   15   -0.11677      0.99945     2.10822    0.00910     3.11677
      C   16   -0.09251      0.99959     2.08149    0.01142     3.09251
      N   17   -0.33699      0.99975     2.82704    0.01020     3.83699
      C   18   -0.17784      0.99967     2.16989    0.00828     3.17784
      H   19    0.09407      0.00000     0.40446    0.00147     0.40593
      H   20    0.10132      0.00000     0.39767    0.00101     0.39868
      H   21    0.10339      0.00000     0.39453    0.00208     0.39661
      H   22    0.08334      0.00000     0.41534    0.00132     0.41666
      H   23    0.08650      0.00000     0.41190    0.00160     0.41350
      H   24    0.08829      0.00000     0.40857    0.00314     0.41171
      H   25    0.09208      0.00000     0.40672    0.00120     0.40792
      H   26    0.08790      0.00000     0.40989    0.00221     0.41210
      H   27    0.08353      0.00000     0.41510    0.00137     0.41647
      H   28    0.09155      0.00000     0.40714    0.00131     0.40845
      H   29    0.08497      0.00000     0.41298    0.00205     0.41503
      H   30    0.08690      0.00000     0.41047    0.00263     0.41310
      H   31    0.09603      0.00000     0.40218    0.00179     0.40397
      H   32    0.10739      0.00000     0.39122    0.00138     0.39261
      H   33    0.10126      0.00000     0.39781    0.00092     0.39874
      H   34    0.10971      0.00000     0.38896    0.00133     0.39029
      H   35    0.10601      0.00000     0.39250    0.00149     0.39399
      H   36    0.09716      0.00000     0.40170    0.00114     0.40284
      H   37    0.08305      0.00000     0.41547    0.00148     0.41695
      H   38    0.17266      0.00000     0.32331    0.00403     0.32734
      H   39    0.07978      0.00000     0.41862    0.00161     0.42022
      H   40    0.09518      0.00000     0.40399    0.00083     0.40482
      H   41    0.09131      0.00000     0.40744    0.00125     0.40869
 =======================================================================
   * Total *    0.00000     17.99303    50.77848    0.22849    69.00000

 Normal termination of Gaussian 16 at Sat Dec 12 00:24:20 2020.
