 Gaussian 16, Revision A.03,

 -----------------------------------------------------------
 # opt freq B3LYP/6-31G(d) empiricaldispersion=gd3bj scf=xqc
 -----------------------------------------------------------

 ------------------------------
 CID_61439891_JID_8547_neutraal
 ------------------------------
 Symbolic Z-matrix:
 Charge =  0 Multiplicity = 1

 SCF Done:  E(RB3LYP) =  -840.003294809     A.U. after   15 cycles
 SCF Done:  E(RB3LYP) =  -840.011154916     A.U. after   13 cycles
 SCF Done:  E(RB3LYP) =  -840.011902562     A.U. after   13 cycles
 SCF Done:  E(RB3LYP) =  -840.013238573     A.U. after   13 cycles
 SCF Done:  E(RB3LYP) =  -840.013652655     A.U. after   13 cycles
 SCF Done:  E(RB3LYP) =  -840.014151864     A.U. after   13 cycles
 SCF Done:  E(RB3LYP) =  -840.014389706     A.U. after   12 cycles
 SCF Done:  E(RB3LYP) =  -840.014624376     A.U. after   12 cycles
 SCF Done:  E(RB3LYP) =  -840.014704661     A.U. after   11 cycles
 SCF Done:  E(RB3LYP) =  -840.014749587     A.U. after   11 cycles
 SCF Done:  E(RB3LYP) =  -840.014820461     A.U. after    7 cycles
 SCF Done:  E(RB3LYP) =  -840.014820609     A.U. after    7 cycles
 SCF Done:  E(RB3LYP) =  -840.014820697     A.U. after    7 cycles
 SCF Done:  E(RB3LYP) =  -840.014820769     A.U. after    7 cycles
 SCF Done:  E(RB3LYP) =  -840.014820802     A.U. after    6 cycles
 Optimization completed.
    -- Stationary point found.
 Normal termination of Gaussian 16 at Fri Dec 11 21:12:40 2020.

 --------------------------------------------------------------------
 #N Geom=AllCheck Guess=TCheck SCRF=Check GenChk RB3LYP/6-31G(d) Freq
 --------------------------------------------------------------------

 Structure from the checkpoint file:  "JID_8547.chk"
 ------------------------------
 CID_61439891_JID_8547_neutraal
 ------------------------------
 Charge =  0 Multiplicity = 1

 SCF Done:  E(RB3LYP) =  -840.014820802     A.U. after    1 cycles

  Exact polarizability: 207.142   7.304 138.129   4.911   1.570 124.329
 Approx polarizability: 244.839  17.452 223.098   6.942   5.121 188.860

                      1                      2                      3
                      A                      A                      A
 Frequencies --     15.3738                32.8442                43.2555
 Red. masses --      4.8159                 4.9106                 4.9886
 Frc consts  --      0.0007                 0.0031                 0.0055
 IR Inten    --      0.7954                 1.4143                 1.6162

                      4                      5                      6
                      A                      A                      A
 Frequencies --     54.9653                66.3320                68.1477
 Red. masses --      3.1982                 3.0242                 4.8797
 Frc consts  --      0.0057                 0.0078                 0.0134
 IR Inten    --      1.8183                 0.1342                 0.9817

                      7                      8                      9
                      A                      A                      A
 Frequencies --    103.8869               111.1562               133.2263
 Red. masses --      4.0372                 3.8136                 2.7372
 Frc consts  --      0.0257                 0.0278                 0.0286
 IR Inten    --      0.9378                 2.0135                 8.8799

                     10                     11                     12
                      A                      A                      A
 Frequencies --    150.0864               199.1538               207.7783
 Red. masses --      3.2604                 3.0794                 2.2798
 Frc consts  --      0.0433                 0.0720                 0.0580
 IR Inten    --      3.2530                 1.4172                21.2807

                     13                     14                     15
                      A                      A                      A
 Frequencies --    230.2761               237.2254               295.0029
 Red. masses --      1.4814                 3.8319                 2.9479
 Frc consts  --      0.0463                 0.1271                 0.1512
 IR Inten    --     54.6236                11.6416                 3.6023

                     16                     17                     18
                      A                      A                      A
 Frequencies --    326.7844               336.2432               349.9020
 Red. masses --      2.6385                 3.0571                 3.7446
 Frc consts  --      0.1660                 0.2036                 0.2701
 IR Inten    --      1.6127                 7.4630                 6.1023

                     19                     20                     21
                      A                      A                      A
 Frequencies --    367.9762               393.6121               418.4483
 Red. masses --      3.7190                 2.4497                 4.8012
 Frc consts  --      0.2967                 0.2236                 0.4953
 IR Inten    --      9.9654                 4.4528                 7.3496

                     22                     23                     24
                      A                      A                      A
 Frequencies --    445.8729               452.5624               477.6498
 Red. masses --      2.5244                 1.6856                 2.6983
 Frc consts  --      0.2957                 0.2034                 0.3627
 IR Inten    --      0.4274                 0.2047                 1.6895

                     25                     26                     27
                      A                      A                      A
 Frequencies --    512.1349               514.3916               591.0890
 Red. masses --      2.8335                 2.5433                 3.0135
 Frc consts  --      0.4379                 0.3965                 0.6203
 IR Inten    --     34.2097                 4.9449                20.5973

                     28                     29                     30
                      A                      A                      A
 Frequencies --    616.5393               659.1986               683.6981
 Red. masses --      4.2018                 1.5196                 2.0427
 Frc consts  --      0.9410                 0.3891                 0.5626
 IR Inten    --     32.5612                26.5758                54.3409

                     31                     32                     33
                      A                      A                      A
 Frequencies --    735.6681               770.8101               794.5472
 Red. masses --      6.4426                 1.7331                 1.7536
 Frc consts  --      2.0543                 0.6067                 0.6523
 IR Inten    --     28.9399                 0.4197                 8.5645

                     34                     35                     36
                      A                      A                      A
 Frequencies --    800.6274               815.6691               846.8308
 Red. masses --      4.0482                 1.7289                 1.5627
 Frc consts  --      1.5289                 0.6777                 0.6603
 IR Inten    --     10.7488                 8.2893                12.9149

                     37                     38                     39
                      A                      A                      A
 Frequencies --    847.8706               850.8074               899.7383
 Red. masses --      1.6584                 1.7851                 1.9822
 Frc consts  --      0.7024                 0.7613                 0.9454
 IR Inten    --      1.5802                16.7218                 4.9264

                     40                     41                     42
                      A                      A                      A
 Frequencies --    901.6048               911.4309               914.1344
 Red. masses --      1.8869                 1.6569                 2.4295
 Frc consts  --      0.9037                 0.8110                 1.1962
 IR Inten    --     74.3793                55.8719                 5.5005

                     43                     44                     45
                      A                      A                      A
 Frequencies --    942.0539               954.6175              1008.0165
 Red. masses --      2.3935                 2.8325                 2.6301
 Frc consts  --      1.2515                 1.5208                 1.5745
 IR Inten    --      1.0346                17.9293                10.8858

                     46                     47                     48
                      A                      A                      A
 Frequencies --   1018.5502              1038.2216              1063.4750
 Red. masses --      2.3703                 2.3679                 1.4419
 Frc consts  --      1.4488                 1.5038                 0.9608
 IR Inten    --      4.9007               120.5110                23.2318

                     49                     50                     51
                      A                      A                      A
 Frequencies --   1065.8975              1082.0075              1085.9499
 Red. masses --      1.7605                 1.8452                 1.4269
 Frc consts  --      1.1784                 1.2728                 0.9915
 IR Inten    --      4.4630                 6.8166                 8.5994

                     52                     53                     54
                      A                      A                      A
 Frequencies --   1095.0245              1096.9579              1135.2488
 Red. masses --      2.0754                 2.3322                 1.5357
 Frc consts  --      1.4662                 1.6535                 1.1661
 IR Inten    --     11.2242                25.1349                10.8390

                     55                     56                     57
                      A                      A                      A
 Frequencies --   1151.5827              1160.8678              1185.0335
 Red. masses --      1.3341                 2.8243                 2.0826
 Frc consts  --      1.0424                 2.2425                 1.7231
 IR Inten    --      6.5732                10.8055                73.8674

                     58                     59                     60
                      A                      A                      A
 Frequencies --   1201.1747              1206.4208              1211.2080
 Red. masses --      1.3983                 2.2306                 1.4058
 Frc consts  --      1.1886                 1.9128                 1.2151
 IR Inten    --      4.6400                23.0034                 0.1922

                     61                     62                     63
                      A                      A                      A
 Frequencies --   1225.2611              1245.0554              1251.2395
 Red. masses --      1.9607                 1.7571                 1.5171
 Frc consts  --      1.7343                 1.6048                 1.3994
 IR Inten    --      5.0105                 7.8813               168.7353

                     64                     65                     66
                      A                      A                      A
 Frequencies --   1263.9231              1294.0428              1309.7503
 Red. masses --      1.4287                 1.2861                 1.6830
 Frc consts  --      1.3447                 1.2689                 1.7010
 IR Inten    --     35.3932                 4.3094                49.8643

                     67                     68                     69
                      A                      A                      A
 Frequencies --   1367.6438              1369.1710              1372.8262
 Red. masses --      1.2789                 1.2578                 1.3426
 Frc consts  --      1.4094                 1.3892                 1.4908
 IR Inten    --      1.9364                 0.5464                 6.8507

                     70                     71                     72
                      A                      A                      A
 Frequencies --   1379.9106              1394.7964              1399.5884
 Red. masses --      1.5195                 1.3721                 1.4292
 Frc consts  --      1.7048                 1.5728                 1.6494
 IR Inten    --     75.1248                22.5080                26.7083

                     73                     74                     75
                      A                      A                      A
 Frequencies --   1403.0985              1418.1097              1422.1389
 Red. masses --      1.3062                 1.5007                 1.2671
 Frc consts  --      1.5151                 1.7781                 1.5099
 IR Inten    --      6.5256                11.3514                 6.3034

                     76                     77                     78
                      A                      A                      A
 Frequencies --   1426.9319              1434.9228              1440.6886
 Red. masses --      1.5634                 1.4332                 1.4017
 Frc consts  --      1.8755                 1.7387                 1.7141
 IR Inten    --     57.4158                 6.9797                 7.3314

                     79                     80                     81
                      A                      A                      A
 Frequencies --   1491.0760              1491.7796              1496.8382
 Red. masses --      1.6838                 1.2172                 1.0929
 Frc consts  --      2.2057                 1.5959                 1.4428
 IR Inten    --     77.7385                53.9193                 4.4907

                     82                     83                     84
                      A                      A                      A
 Frequencies --   1498.0183              1502.5489              1508.4903
 Red. masses --      1.1045                 1.3101                 1.1332
 Frc consts  --      1.4603                 1.7426                 1.5193
 IR Inten    --     11.0043                 7.4736                 8.7096

                     85                     86                     87
                      A                      A                      A
 Frequencies --   1515.6755              1522.1388              1529.0606
 Red. masses --      1.0970                 1.4961                 1.3976
 Frc consts  --      1.4849                 2.0423                 1.9253
 IR Inten    --      9.5784                21.9184                 3.0862

                     88                     89                     90
                      A                      A                      A
 Frequencies --   1533.2899              1536.1964              1700.2729
 Red. masses --      1.1447                 1.3432                 1.0902
 Frc consts  --      1.5856                 1.8676                 1.8569
 IR Inten    --     11.0064                 2.0254                30.9774

                     91                     92                     93
                      A                      A                      A
 Frequencies --   1725.2409              1764.1218              3006.9815
 Red. masses --     10.7595                 8.2012                 1.0686
 Frc consts  --     18.8686                15.0378                 5.6930
 IR Inten    --    518.9133               317.6985                42.3240

                     94                     95                     96
                      A                      A                      A
 Frequencies --   3014.5055              3019.2790              3042.3094
 Red. masses --      1.0643                 1.0678                 1.0601
 Frc consts  --      5.6982                 5.7353                 5.7808
 IR Inten    --     45.5282                58.3917                27.3016

                     97                     98                     99
                      A                      A                      A
 Frequencies --   3059.2596              3061.1218              3075.3004
 Red. masses --      1.0804                 1.0929                 1.0730
 Frc consts  --      5.9574                 6.0337                 5.9792
 IR Inten    --     35.1938                28.6325                12.1186

                    100                    101                    102
                      A                      A                      A
 Frequencies --   3079.6768              3096.3260              3096.5740
 Red. masses --      1.0665                 1.0957                 1.0976
 Frc consts  --      5.9596                 6.1893                 6.2009
 IR Inten    --     21.9045                63.1120                43.2783

                    103                    104                    105
                      A                      A                      A
 Frequencies --   3102.6680              3139.5635              3144.2323
 Red. masses --      1.0944                 1.0518                 1.0579
 Frc consts  --      6.2073                 6.1084                 6.1621
 IR Inten    --     51.9729                20.4946                19.2679

                    106                    107                    108
                      A                      A                      A
 Frequencies --   3156.7359              3159.8187              3163.4667
 Red. masses --      1.0994                 1.0892                 1.0987
 Frc consts  --      6.4548                 6.4075                 6.4781
 IR Inten    --     15.5913                15.6286                 4.7904

                    109                    110                    111
                      A                      A                      A
 Frequencies --   3184.1651              3214.2685              3228.9768
 Red. masses --      1.0925                 1.1185                 1.1154
 Frc consts  --      6.5260                 6.8087                 6.8519
 IR Inten    --      4.1266                 0.7480                22.7104

                    112                    113                    114
                      A                      A                      A
 Frequencies --   3475.6748              3557.4572              3583.2956
 Red. masses --      1.0508                 1.0915                 1.0753
 Frc consts  --      7.4793                 8.1389                 8.1351
 IR Inten    --      0.5806                 0.0558                32.7992

 - Thermochemistry -
 -------------------
 Temperature   298.150 Kelvin.  Pressure   1.00000 Atm.
 Atom     1 has atomic number  6 and mass  12.00000

 Molecular mass:   254.17428 amu.
 Principal axes and moments of inertia in atomic units:
                           1         2         3
     Eigenvalues --  1612.69260********************
           X            0.99998   0.00475   0.00437
           Y           -0.00446   0.99797  -0.06353
           Z           -0.00466   0.06351   0.99797
 This molecule is an asymmetric top.
 Rotational symmetry number  1.
 Warning -- assumption of classical behavior for rotation
           may cause significant error
 Rotational temperatures (Kelvin)      0.05371     0.00830     0.00817
 Rotational constants (GHZ):           1.11909     0.17295     0.17023
 Zero-point vibrational energy     925804.1 (Joules/Mol)
                                  221.27250 (Kcal/Mol)
 Warning -- explicit consideration of  28 degrees of freedom as
           vibrations may cause significant error
 Vibrational temperatures:     22.12    47.26    62.24    79.08    95.44
          (Kelvin)             98.05   149.47   159.93   191.68   215.94
                              286.54   298.95   331.32   341.31   424.44
                              470.17   483.78   503.43   529.44   566.32
                              602.05   641.51   651.14   687.23   736.85
                              740.09   850.45   887.06   948.44   983.69
                             1058.46  1109.02  1143.18  1151.92  1173.57
                             1218.40  1219.90  1224.12  1294.52  1297.21
                             1311.35  1315.24  1355.41  1373.48  1450.31
                             1465.47  1493.77  1530.10  1533.59  1556.77
                             1562.44  1575.50  1578.28  1633.37  1656.87
                             1670.23  1705.00  1728.22  1735.77  1742.66
                             1762.88  1791.36  1800.25  1818.50  1861.84
                             1884.44  1967.73  1969.93  1975.19  1985.38
                             2006.80  2013.70  2018.75  2040.34  2046.14
                             2053.04  2064.53  2072.83  2145.33  2146.34
                             2153.62  2155.31  2161.83  2170.38  2180.72
                             2190.02  2199.98  2206.06  2210.24  2446.31
                             2482.24  2538.18  4326.38  4337.20  4344.07
                             4377.20  4401.59  4404.27  4424.67  4430.97
                             4454.92  4455.28  4464.05  4517.13  4523.85
                             4541.84  4546.27  4551.52  4581.30  4624.62
                             4645.78  5000.72  5118.39  5155.56

 Zero-point correction=                           0.352620 (Hartree/Particle)
 Thermal correction to Energy=                    0.371190
 Thermal correction to Enthalpy=                  0.372134
 Thermal correction to Gibbs Free Energy=         0.303572
 Sum of electronic and zero-point Energies=           -839.662201
 Sum of electronic and thermal Energies=              -839.643631
 Sum of electronic and thermal Enthalpies=            -839.642687
 Sum of electronic and thermal Free Energies=         -839.711248

                     E (Thermal)             CV                S
                      KCal/Mol        Cal/Mol-Kelvin    Cal/Mol-Kelvin
 Total                  232.925             69.500            144.300
 Electronic               0.000              0.000              0.000
 Translational            0.889              2.981             42.499
 Rotational               0.889              2.981             33.545
 Vibrational            231.148             63.539             68.257
 Vibration     1          0.593              1.986              7.157
 Vibration     2          0.594              1.983              5.650
 Vibration     3          0.595              1.980              5.104
 Vibration     4          0.596              1.976              4.630
 Vibration     5          0.598              1.970              4.259
 Vibration     6          0.598              1.969              4.206
 Vibration     7          0.605              1.946              3.380
 Vibration     8          0.607              1.940              3.249
 Vibration     9          0.613              1.920              2.899
 Vibration    10          0.618              1.903              2.671
 Vibration    11          0.637              1.841              2.141
 Vibration    12          0.641              1.829              2.063
 Vibration    13          0.652              1.795              1.877
 Vibration    14          0.656              1.784              1.824
 Vibration    15          0.689              1.683              1.445
 Vibration    16          0.710              1.622              1.276
 Vibration    17          0.717              1.603              1.230
 Vibration    18          0.727              1.575              1.167
 Vibration    19          0.741              1.538              1.088
 Vibration    20          0.761              1.484              0.986
 Vibration    21          0.781              1.430              0.897
 Vibration    22          0.805              1.370              0.808
 Vibration    23          0.811              1.355              0.788
 Vibration    24          0.834              1.300              0.716
 Vibration    25          0.867              1.223              0.628
 Vibration    26          0.869              1.218              0.623
 Vibration    27          0.948              1.051              0.465
 Vibration    28          0.976              0.997              0.422

 Optimization completed.
    -- Stationary point found.
 Normal termination of Gaussian 16 at Fri Dec 11 21:30:16 2020.

 ----------------------------------------------------------------------
 # B3LYP/6-311++G(d,p) empiricaldispersion=gd3bj scf=xqc pop=npa geom=c
 heck
 ----------------------------------------------------------------------

 --------------------------------------
 CID_61439891_JID_8547_Energie_neutraal
 --------------------------------------
 Structure from the checkpoint file:  "JID_8547.chk"
 Charge =  0 Multiplicity = 1

 SCF Done:  E(RB3LYP) =  -840.263630881     A.U. after   14 cycles
 Normal termination of Gaussian 16 at Fri Dec 11 21:38:12 2020.

 ----------------------------------------------------------------------
 # B3LYP/6-311++G(d,p) empiricaldispersion=gd3bj scf=xqc pop=npa geom=c
 heck
 ----------------------------------------------------------------------

 ------------------------------------
 CID_61439891_JID_8547_Energie_kation
 ------------------------------------
 Structure from the checkpoint file:  "JID_8547.chk"
 Charge =  1 Multiplicity = 2

 SCF Done:  E(UB3LYP) =  -839.987559674     A.U. after   26 cycles
 Normal termination of Gaussian 16 at Fri Dec 11 21:59:36 2020.
 Gaussian 16:  ES64L-G16RevA.03 25-Dec-2016

 ----------------------------------------------------------------------
 # B3LYP/6-311++G(d,p) empiricaldispersion=gd3bj scf=xqc pop=npa geom=c
 heck
 ----------------------------------------------------------------------

 -----------------------------------
 CID_61439891_JID_8547_Energie_anion
 -----------------------------------
 Structure from the checkpoint file:  "JID_8547.chk"
 Charge = -1 Multiplicity = 2

                         Standard orientation:
 ---------------------------------------------------------------------
 Center     Atomic      Atomic             Coordinates (Angstroms)
 Number     Number       Type             X           Y           Z
 ---------------------------------------------------------------------
      1          6           0        4.421269   -0.674489    1.356951
      2          6           0        5.523368    0.209734    0.829562
      3          6           0        4.104148    0.413696    0.359631
      4          6           0        3.758192    0.065440   -1.082859
      5          7           0        2.373298   -0.213702   -1.437793
      6          6           0        1.751208   -1.391121   -0.846774
      7          6           0        1.037035   -1.120580    0.487412
      8          7           0        0.105734   -0.002740    0.323883
      9          6           0        0.720942    1.222216   -0.185639
     10          6           0        1.453283    0.911592   -1.504315
     11          6           0       -1.219400   -0.205070    0.535753
     12          8           0       -1.700671   -1.289214    0.873197
     13          6           0       -2.137575    1.024231    0.436251
     14          8           0       -1.881156    2.056354    1.051700
     15          7           0       -3.257660    0.875412   -0.315712
     16          6           0       -3.771333   -0.311988   -0.994228
     17          6           0       -4.775096   -1.079517   -0.131474
     18          7           0       -5.844562   -0.170049    0.309664
     19          1           0        4.103636   -0.545569    2.387925
     20          1           0        4.390470   -1.704934    1.010476
     21          1           0        5.960226    0.946866    1.496798
     22          1           0        6.229788   -0.225315    0.126182
     23          1           0        3.600247    1.293305    0.754794
     24          1           0        4.092636    0.885369   -1.732378
     25          1           0        4.351709   -0.815068   -1.368839
     26          1           0        1.002605   -1.776886   -1.554897
     27          1           0        2.511458   -2.167668   -0.713282
     28          1           0        1.763101   -0.858335    1.264472
     29          1           0        0.459885   -1.986308    0.813306
     30          1           0        1.419873    1.599353    0.570847
     31          1           0       -0.041411    1.984454   -0.333147
     32          1           0        1.998098    1.799820   -1.842354
     33          1           0        0.686100    0.685310   -2.260876
     34          1           0       -3.888752    1.666765   -0.256839
     35          1           0       -4.263023    0.031225   -1.910396
     36          1           0       -2.936293   -0.958361   -1.267055
     37          1           0       -5.223050   -1.867324   -0.748537
     38          1           0       -4.226150   -1.561051    0.688687
     39          1           0       -6.646935   -0.711565    0.623803
     40          1           0       -5.523514    0.341477    1.130205
 ---------------------------------------------------------------------

 SCF Done:  E(UB3LYP) =  -840.252739870     A.U. after   33 cycles
 SCF Done:  E(UB3LYP) =  -840.252739870     a.u. after    1 cycles

 The electronic state is 2-A.
 Alpha  occ. eigenvalues --  -18.98932 -18.98737 -14.24909 -14.24213 -14.21655
 Alpha  occ. eigenvalues --  -14.20201 -10.17054 -10.16827 -10.11342 -10.11232
 Alpha  occ. eigenvalues --  -10.11153 -10.11095 -10.10977 -10.10650 -10.09697
 Alpha  occ. eigenvalues --  -10.09084 -10.08673 -10.08573  -0.95284  -0.92711
 Alpha  occ. eigenvalues --   -0.86370  -0.83341  -0.82286  -0.78479  -0.77310
 Alpha  occ. eigenvalues --   -0.68377  -0.65383  -0.64223  -0.60328  -0.57176
 Alpha  occ. eigenvalues --   -0.54827  -0.52567  -0.51866  -0.50490  -0.48849
 Alpha  occ. eigenvalues --   -0.45558  -0.42734  -0.41274  -0.40802  -0.39105
 Alpha  occ. eigenvalues --   -0.38997  -0.38401  -0.38206  -0.37790  -0.36652
 Alpha  occ. eigenvalues --   -0.36366  -0.34466  -0.33244  -0.32902  -0.31349
 Alpha  occ. eigenvalues --   -0.31256  -0.29971  -0.29481  -0.28861  -0.28265
 Alpha  occ. eigenvalues --   -0.28188  -0.27302  -0.27173  -0.27083  -0.26625
 Alpha  occ. eigenvalues --   -0.26088  -0.21407  -0.20375  -0.19717  -0.17008
 Alpha  occ. eigenvalues --   -0.16402  -0.15093  -0.14075  -0.11666   0.04064
 Alpha virt. eigenvalues --    0.05157   0.06415   0.06566   0.06935   0.07609
 Alpha virt. eigenvalues --    0.08104   0.08495   0.09233   0.09662   0.10014
 Alpha virt. eigenvalues --    0.10342   0.10397   0.11261   0.11839   0.12072

  Beta  occ. eigenvalues --  -18.98832 -18.98626 -14.24895 -14.24201 -14.21656
  Beta  occ. eigenvalues --  -14.20154 -10.16940 -10.16722 -10.11342 -10.11231
  Beta  occ. eigenvalues --  -10.11143 -10.11076 -10.10965 -10.10649 -10.09686
  Beta  occ. eigenvalues --  -10.09077 -10.08653 -10.08548  -0.95075  -0.92525
  Beta  occ. eigenvalues --   -0.86323  -0.83281  -0.82238  -0.78400  -0.77292
  Beta  occ. eigenvalues --   -0.68360  -0.65317  -0.64159  -0.60211  -0.57129
  Beta  occ. eigenvalues --   -0.54671  -0.52502  -0.51796  -0.50428  -0.48802
  Beta  occ. eigenvalues --   -0.45493  -0.42622  -0.41234  -0.40749  -0.39046
  Beta  occ. eigenvalues --   -0.38951  -0.38374  -0.38107  -0.37746  -0.36569
  Beta  occ. eigenvalues --   -0.36293  -0.34341  -0.33177  -0.32681  -0.31307
  Beta  occ. eigenvalues --   -0.31161  -0.29835  -0.29385  -0.28711  -0.28229
  Beta  occ. eigenvalues --   -0.28107  -0.27263  -0.27124  -0.26997  -0.26417
  Beta  occ. eigenvalues --   -0.25983  -0.21375  -0.20345  -0.19553  -0.16810
  Beta  occ. eigenvalues --   -0.16191  -0.14982  -0.13922  -0.11603
  Beta virt. eigenvalues --    0.06029   0.06337   0.07058   0.07191   0.07594
  Beta virt. eigenvalues --    0.08084   0.08430   0.08648   0.09427   0.09863
  Beta virt. eigenvalues --    0.10169   0.10534   0.10641   0.11497   0.11920

 Mulliken charges and spin densities:
               1          2
     1  C    0.238365  -0.672387
     2  C    1.021382  -1.564667
     3  C   -1.731962   2.113970
     4  C    0.883771  -1.641865
     5  N    0.052076   0.128404
     6  C    0.222640  -0.577046
     7  C   -0.513290   0.303538
     8  N    0.150709  -0.027582
     9  C    0.029668  -0.044220
    10  C   -0.480947  -0.101895
    11  C   -0.316795   0.160237
    12  O   -0.321684   0.035634
    13  C   -0.002835   0.004338
    14  O   -0.315549   0.040201
    15  N   -0.196905  -0.008415
    16  C    0.007870   0.017756
    17  C    0.067455  -0.652815
    18  N   -0.348026  -0.046645
    19  H    0.053101   0.090896
    20  H   -0.085686   0.235152
    21  H   -0.215473   0.369473
    22  H   -0.258010   0.389465
    23  H   -0.122978   0.324907
    24  H   -0.115107   0.260694
    25  H   -0.116006   0.315754
    26  H    0.173487  -0.003873
    27  H   -0.052440   0.198161
    28  H    0.144788   0.105204
    29  H    0.182223   0.020446
    30  H    0.195022  -0.012068
    31  H    0.185096   0.046958
    32  H   -0.067432   0.214383
    33  H    0.195231  -0.016474
    34  H    0.279626   0.030572
    35  H    0.065233   0.079265
    36  H    0.226227  -0.042623
    37  H   -0.100091   0.233201
    38  H    0.108058   0.091228
    39  H   -0.267804   0.516819
    40  H    0.146992   0.085919
 Sum of Mulliken charges =  -1.00000   1.00000

 Dipole moment (field-independent basis, Debye):
    X=              1.2414    Y=             -0.1462    Z=             -2.7195  Tot=              2.9930
 Quadrupole moment (field-independent basis, Debye-Ang):
   XX=           -254.7850   YY=           -144.0828   ZZ=           -138.7937
   XY=             -3.8244   XZ=              6.6177   YZ=             -2.0216

 Summary of Natural Population Analysis:

                                       Natural Population
                Natural  -----------------------------------------------
    Atom  No    Charge         Core      Valence    Rydberg      Total
 -----------------------------------------------------------------------
      C    1   -0.20242      0.99962     2.19311    0.00969     3.20242
      C    2   -0.19639      0.99962     2.18773    0.00904     3.19639
      C    3   -0.13115      0.99958     2.12060    0.01097     3.13115
      C    4   -0.07991      0.99958     2.06671    0.01362     3.07991
      N    5   -0.27997      0.99973     2.76699    0.01325     3.77997
      C    6   -0.08742      0.99961     2.07678    0.01102     3.08742
      C    7   -0.10199      0.99961     2.09237    0.01001     3.10199
      N    8   -0.24397      0.99964     2.73473    0.00960     3.74397
      C    9   -0.09419      0.99961     2.08470    0.00988     3.09419
      C   10   -0.08762      0.99961     2.07701    0.01100     3.08762
      C   11    0.31970      0.99960     1.65748    0.02322     2.68030
      O   12   -0.32079      0.99988     3.31579    0.00513     4.32079
      C   13    0.31922      0.99964     1.65667    0.02447     2.68078
      O   14   -0.31589      0.99988     3.31037    0.00564     4.31589
      N   15   -0.31281      0.99967     2.80340    0.00974     3.81281
      C   16   -0.09088      0.99962     2.07950    0.01177     3.09088
      C   17   -0.09947      0.99963     2.08844    0.01139     3.09947
      N   18   -0.43125      0.99977     2.92042    0.01106     3.93125
      H   19    0.10366      0.00000     0.39553    0.00082     0.39634
      H   20    0.10162      0.00000     0.39727    0.00111     0.39838
      H   21    0.10370      0.00000     0.39521    0.00109     0.39630
      H   22    0.10179      0.00000     0.39691    0.00130     0.39821
      H   23    0.10216      0.00000     0.39638    0.00146     0.39784
      H   24    0.09709      0.00000     0.40169    0.00122     0.40291
      H   25    0.09409      0.00000     0.40447    0.00144     0.40591
      H   26    0.09246      0.00000     0.40644    0.00110     0.40754
      H   27    0.09901      0.00000     0.39999    0.00101     0.40099
      H   28    0.09726      0.00000     0.40130    0.00144     0.40274
      H   29    0.11609      0.00000     0.38264    0.00126     0.38391
      H   30    0.09224      0.00000     0.40626    0.00150     0.40776
      H   31    0.11476      0.00000     0.38408    0.00116     0.38524
      H   32    0.09885      0.00000     0.40016    0.00099     0.40115
      H   33    0.09081      0.00000     0.40798    0.00120     0.40919
      H   34    0.19433      0.00000     0.30331    0.00237     0.30567
      H   35    0.09289      0.00000     0.40592    0.00118     0.40711
      H   36    0.10456      0.00000     0.39446    0.00098     0.39544
      H   37    0.08922      0.00000     0.40960    0.00118     0.41078
      H   38    0.09663      0.00000     0.40173    0.00164     0.40337
      H   39    0.17969      0.00000     0.31630    0.00401     0.32031
      H   40    0.17426      0.00000     0.32369    0.00204     0.32574
 =======================================================================
   * Total *   -0.00000     17.99390    50.76411    0.24199    69.00000

 Normal termination of Gaussian 16 at Fri Dec 11 22:27:11 2020.
