 Gaussian 16, Revision A.03,

 -----------------------------------------------------------
 # opt freq B3LYP/6-31G(d) empiricaldispersion=gd3bj scf=xqc
 -----------------------------------------------------------

 ------------------------------
 CID_62498923_JID_1490_neutraal
 ------------------------------
 Symbolic Z-matrix:
 Charge =  0 Multiplicity = 1

 SCF Done:  E(RB3LYP) =  -553.715525829     A.U. after   15 cycles
 SCF Done:  E(RB3LYP) =  -553.717705269     A.U. after   13 cycles
 SCF Done:  E(RB3LYP) =  -553.717879868     A.U. after   15 cycles
 SCF Done:  E(RB3LYP) =  -553.718977414     A.U. after   11 cycles
 SCF Done:  E(RB3LYP) =  -553.719588654     A.U. after   13 cycles
 SCF Done:  E(RB3LYP) =  -553.719506883     A.U. after   12 cycles
 SCF Done:  E(RB3LYP) =  -553.719943698     A.U. after   11 cycles
 SCF Done:  E(RB3LYP) =  -553.719941074     A.U. after   12 cycles
 SCF Done:  E(RB3LYP) =  -553.719807350     A.U. after   13 cycles
 SCF Done:  E(RB3LYP) =  -553.720173318     A.U. after   12 cycles
 SCF Done:  E(RB3LYP) =  -553.722114748     A.U. after   10 cycles
 SCF Done:  E(RB3LYP) =  -553.722120977     A.U. after   11 cycles
 SCF Done:  E(RB3LYP) =  -553.722121841     A.U. after    9 cycles
 SCF Done:  E(RB3LYP) =  -553.722121991     A.U. after    8 cycles
 SCF Done:  E(RB3LYP) =  -553.722122091     A.U. after    8 cycles
 Optimization completed.
    -- Stationary point found.
 Normal termination of Gaussian 16 at Tue Dec  8 20:15:09 2020.

 --------------------------------------------------------------------
 #N Geom=AllCheck Guess=TCheck SCRF=Check GenChk RB3LYP/6-31G(d) Freq
 --------------------------------------------------------------------

 Structure from the checkpoint file:  "JID_1490.chk"
 ------------------------------
 CID_62498923_JID_1490_neutraal
 ------------------------------
 Charge =  0 Multiplicity = 1

 SCF Done:  E(RB3LYP) =  -553.722122091     A.U. after    1 cycles

  Exact polarizability: 108.515 -10.731  94.230  -8.815  -1.212  61.300
 Approx polarizability: 129.013 -14.884 154.658 -16.556  -1.640  91.358

                      1                      2                      3
                      A                      A                      A
 Frequencies --     12.0919                30.2810                50.5157
 Red. masses --      5.0661                 4.9090                 4.3489
 Frc consts  --      0.0004                 0.0027                 0.0065
 IR Inten    --      0.2086                 0.4380                 0.8997

                      4                      5                      6
                      A                      A                      A
 Frequencies --     83.6652               135.2345               138.5623
 Red. masses --      4.1882                 3.7958                 3.9204
 Frc consts  --      0.0173                 0.0409                 0.0443
 IR Inten    --      1.2498                 8.1278                 5.7711

                      7                      8                      9
                      A                      A                      A
 Frequencies --    145.9833               248.2053               263.2669
 Red. masses --      4.5841                 2.8756                 1.2838
 Frc consts  --      0.0576                 0.1044                 0.0524
 IR Inten    --      1.2009                12.5731               109.3001

                     10                     11                     12
                      A                      A                      A
 Frequencies --    268.5331               315.8713               350.7330
 Red. masses --      3.9357                 3.5213                 2.9503
 Frc consts  --      0.1672                 0.2070                 0.2138
 IR Inten    --      2.7522                 4.6213                 4.1375

                     13                     14                     15
                      A                      A                      A
 Frequencies --    368.0179               481.9873               529.6467
 Red. masses --      2.0737                 2.7707                 4.6759
 Frc consts  --      0.1655                 0.3792                 0.7728
 IR Inten    --     10.6041                 9.6291                26.9578

                     16                     17                     18
                      A                      A                      A
 Frequencies --    560.5241               619.2300               634.2109
 Red. masses --      2.2179                 1.8222                 1.2667
 Frc consts  --      0.4106                 0.4117                 0.3002
 IR Inten    --      4.0812                54.1441                47.8820

                     19                     20                     21
                      A                      A                      A
 Frequencies --    652.1969               659.9238               748.0182
 Red. masses --      2.1287                 1.3192                 6.8092
 Frc consts  --      0.5335                 0.3385                 2.2448
 IR Inten    --     59.4681                 6.6870                47.1068

                     22                     23                     24
                      A                      A                      A
 Frequencies --    755.7853               828.2065               901.9842
 Red. masses --      3.9626                 2.4652                 2.2477
 Frc consts  --      1.3336                 0.9963                 1.0774
 IR Inten    --      9.5557                 4.9548                 7.0120

                     25                     26                     27
                      A                      A                      A
 Frequencies --    935.8215               956.6542              1041.3381
 Red. masses --      2.0487                 2.1612                 2.6042
 Frc consts  --      1.0571                 1.1654                 1.6638
 IR Inten    --     24.4248                39.2314                15.7865

                     28                     29                     30
                      A                      A                      A
 Frequencies --   1103.7272              1112.8362              1126.3079
 Red. masses --      1.9909                 2.9765                 1.9389
 Frc consts  --      1.4290                 2.1718                 1.4492
 IR Inten    --     22.4473                33.3099                74.8647

                     31                     32                     33
                      A                      A                      A
 Frequencies --   1161.3654              1174.0474              1251.2463
 Red. masses --      3.2090                 4.4557                 1.1745
 Frc consts  --      2.5501                 3.6185                 1.0834
 IR Inten    --     16.3748               194.8419                45.4376

                     34                     35                     36
                      A                      A                      A
 Frequencies --   1270.0061              1278.9523              1297.9376
 Red. masses --      1.1985                 1.1195                 1.2850
 Frc consts  --      1.1389                 1.0789                 1.2755
 IR Inten    --     21.3112                12.0199                36.5285

                     37                     38                     39
                      A                      A                      A
 Frequencies --   1351.7556              1353.4335              1410.4274
 Red. masses --      1.4643                 1.3889                 1.3598
 Frc consts  --      1.5764                 1.4989                 1.5938
 IR Inten    --    179.2148                35.3565                 9.8020

                     40                     41                     42
                      A                      A                      A
 Frequencies --   1425.1085              1445.1495              1477.5992
 Red. masses --      1.4138                 1.3588                 1.5140
 Frc consts  --      1.6918                 1.6720                 1.9476
 IR Inten    --     56.5226                 3.0911                 2.6073

                     43                     44                     45
                      A                      A                      A
 Frequencies --   1496.9350              1506.5734              1516.0967
 Red. masses --      1.9619                 1.1055                 1.1012
 Frc consts  --      2.5902                 1.4784                 1.4913
 IR Inten    --     82.8395                 2.5024                 2.1456

                     46                     47                     48
                      A                      A                      A
 Frequencies --   1537.2598              1545.0219              1766.2144
 Red. masses --      1.0905                 1.0924                 8.9291
 Frc consts  --      1.5183                 1.5364                16.4114
 IR Inten    --      6.2514                 5.0896               455.9427

                     49                     50                     51
                      A                      A                      A
 Frequencies --   2225.1765              2989.2800              3014.6780
 Red. masses --      5.9627                 1.0609                 1.0690
 Frc consts  --     17.3950                 5.5852                 5.7241
 IR Inten    --     32.5863                64.7787                15.3696

                     52                     53                     54
                      A                      A                      A
 Frequencies --   3020.3121              3038.5050              3050.5712
 Red. masses --      1.0675                 1.0978                 1.0693
 Frc consts  --      5.7376                 5.9717                 5.8628
 IR Inten    --     19.3966                84.8066                40.9318

                     55                     56                     57
                      A                      A                      A
 Frequencies --   3090.7840              3099.9939              3143.2412
 Red. masses --      1.0988                 1.0981                 1.0941
 Frc consts  --      6.1845                 6.2173                 6.3687
 IR Inten    --     44.4355                36.7675                 5.9246

                     58                     59                     60
                      A                      A                      A
 Frequencies --   3492.0262              3605.4448              3756.8816
 Red. masses --      1.1602                 1.0753                 1.0665
 Frc consts  --      8.3359                 8.2358                 8.8688
 IR Inten    --     49.2139                53.8984                17.5708

 - Thermochemistry -
 -------------------
 Temperature   298.150 Kelvin.  Pressure   1.00000 Atm.
 Atom     1 has atomic number  6 and mass  12.00000

 Molecular mass:   157.07389 amu.
 Principal axes and moments of inertia in atomic units:
                           1         2         3
     Eigenvalues --   713.562504307.285364755.92970
           X            0.99991  -0.01324   0.00251
           Y            0.01326   0.99985  -0.01093
           Z           -0.00237   0.01096   0.99994
 This molecule is an asymmetric top.
 Rotational symmetry number  1.
 Warning -- assumption of classical behavior for rotation
           may cause significant error
 Rotational temperatures (Kelvin)      0.12138     0.02011     0.01821
 Rotational constants (GHZ):           2.52920     0.41900     0.37947
 Zero-point vibrational energy     471636.0 (Joules/Mol)
                                  112.72371 (Kcal/Mol)
 Warning -- explicit consideration of  17 degrees of freedom as
           vibrations may cause significant error
 Vibrational temperatures:     17.40    43.57    72.68   120.38   194.57
          (Kelvin)            199.36   210.04   357.11   378.78   386.36
                              454.47   504.63   529.50   693.47   762.04
                              806.47   890.93   912.49   938.37   949.48
                             1076.23  1087.41  1191.60  1297.75  1346.44
                             1376.41  1498.25  1588.02  1601.12  1620.51
                             1670.95  1689.19  1800.26  1827.26  1840.13
                             1867.44  1944.87  1947.29  2029.29  2050.41
                             2079.25  2125.94  2153.76  2167.62  2181.32
                             2211.77  2222.94  2541.19  3201.53  4300.91
                             4337.45  4345.56  4371.73  4389.09  4446.95
                             4460.20  4522.42  5024.25  5187.43  5405.31

 Zero-point correction=                           0.179637 (Hartree/Particle)
 Thermal correction to Energy=                    0.192206
 Thermal correction to Enthalpy=                  0.193150
 Thermal correction to Gibbs Free Energy=         0.137939
 Sum of electronic and zero-point Energies=           -553.542485
 Sum of electronic and thermal Energies=              -553.529916
 Sum of electronic and thermal Enthalpies=            -553.528972
 Sum of electronic and thermal Free Energies=         -553.584183

                     E (Thermal)             CV                S
                      KCal/Mol        Cal/Mol-Kelvin    Cal/Mol-Kelvin
 Total                  120.611             43.666            116.202
 Electronic               0.000              0.000              0.000
 Translational            0.889              2.981             41.064
 Rotational               0.889              2.981             31.059
 Vibrational            118.834             37.704             44.079
 Vibration     1          0.593              1.987              7.634
 Vibration     2          0.594              1.984              5.811
 Vibration     3          0.595              1.977              4.797
 Vibration     4          0.601              1.960              3.803
 Vibration     5          0.613              1.918              2.870
 Vibration     6          0.614              1.915              2.824
 Vibration     7          0.617              1.907              2.724
 Vibration     8          0.662              1.766              1.743
 Vibration     9          0.670              1.740              1.640
 Vibration    10          0.673              1.731              1.606
 Vibration    11          0.703              1.643              1.331
 Vibration    12          0.728              1.574              1.163
 Vibration    13          0.741              1.538              1.088
 Vibration    14          0.838              1.290              0.705
 Vibration    15          0.885              1.184              0.588
 Vibration    16          0.916              1.117              0.523
 Vibration    17          0.979              0.991              0.418

 Optimization completed.
    -- Stationary point found.
 Normal termination of Gaussian 16 at Tue Dec  8 20:18:53 2020.

 ----------------------------------------------------------------------
 # B3LYP/6-311++G(d,p) empiricaldispersion=gd3bj scf=xqc pop=npa geom=c
 heck
 ----------------------------------------------------------------------

 --------------------------------------
 CID_62498923_JID_1490_Energie_neutraal
 --------------------------------------
 Structure from the checkpoint file:  "JID_1490.chk"
 Charge =  0 Multiplicity = 1

 SCF Done:  E(RB3LYP) =  -553.905402794     A.U. after   16 cycles
 Normal termination of Gaussian 16 at Tue Dec  8 20:20:40 2020.

 ----------------------------------------------------------------------
 # B3LYP/6-311++G(d,p) empiricaldispersion=gd3bj scf=xqc pop=npa geom=c
 heck
 ----------------------------------------------------------------------

 ------------------------------------
 CID_62498923_JID_1490_Energie_kation
 ------------------------------------
 Structure from the checkpoint file:  "JID_1490.chk"
 Charge =  1 Multiplicity = 2

 SCF Done:  E(UB3LYP) =  -553.573780548     A.U. after   33 cycles
 SCF Done:  E(UB3LYP) =  -553.573781213     a.u. after    3 cycles
 Normal termination of Gaussian 16 at Tue Dec  8 20:35:59 2020.
 Gaussian 16:  ES64L-G16RevA.03 25-Dec-2016

 ----------------------------------------------------------------------
 # B3LYP/6-311++G(d,p) empiricaldispersion=gd3bj scf=xqc pop=npa geom=c
 heck
 ----------------------------------------------------------------------

 -----------------------------------
 CID_62498923_JID_1490_Energie_anion
 -----------------------------------
 Structure from the checkpoint file:  "JID_1490.chk"
 Charge = -1 Multiplicity = 2

                         Standard orientation:
 ---------------------------------------------------------------------
 Center     Atomic      Atomic             Coordinates (Angstroms)
 Number     Number       Type             X           Y           Z
 ---------------------------------------------------------------------
      1          6           0       -3.866396    1.692574    0.368490
      2          6           0       -3.255506    0.661413    0.215842
      3          6           0       -2.589203   -0.633692    0.079163
      4          8           0       -3.129093   -1.664881    0.463026
      5          7           0       -1.357332   -0.606667   -0.503670
      6          6           0       -0.570378    0.552063   -0.886190
      7          6           0        0.753467    0.582059   -0.136816
      8          8           0        1.424999   -0.634296   -0.449461
      9          6           0        2.526921   -0.952372    0.382221
     10          6           0        3.796907   -0.189289    0.042095
     11          8           0        3.654529    1.159215    0.477776
     12          1           0       -4.420815    2.593307    0.507922
     13          1           0       -0.885155   -1.502389   -0.534404
     14          1           0       -0.374456    0.527283   -1.965955
     15          1           0       -1.145727    1.454579   -0.669044
     16          1           0        1.350073    1.451913   -0.434847
     17          1           0        0.573515    0.645954    0.946890
     18          1           0        2.275381   -0.784434    1.440871
     19          1           0        2.711597   -2.022358    0.236640
     20          1           0        4.646108   -0.681817    0.544563
     21          1           0        3.962096   -0.248095   -1.044336
     22          1           0        4.430369    1.655879    0.177832
 ---------------------------------------------------------------------

 SCF Done:  E(UB3LYP) =  -553.900235626     A.U. after   32 cycles

 The electronic state is 2-A.
 Alpha  occ. eigenvalues --  -19.02865 -19.01452 -18.97017 -14.22467 -10.16596
 Alpha  occ. eigenvalues --  -10.11828 -10.11475 -10.10979 -10.10734 -10.07057
 Alpha  occ. eigenvalues --  -10.06634  -0.94317  -0.92404  -0.91288  -0.81684
 Alpha  occ. eigenvalues --   -0.67306  -0.65648  -0.62291  -0.54692  -0.53406
 Alpha  occ. eigenvalues --   -0.49736  -0.44159  -0.42301  -0.41230  -0.39840
 Alpha  occ. eigenvalues --   -0.38817  -0.36528  -0.34765  -0.32639  -0.31629
 Alpha  occ. eigenvalues --   -0.30705  -0.29695  -0.28070  -0.27537  -0.24525
 Alpha  occ. eigenvalues --   -0.22512  -0.19205  -0.18648  -0.17836  -0.16152
 Alpha  occ. eigenvalues --   -0.14929  -0.14766   0.04354
 Alpha virt. eigenvalues --    0.05827   0.07593   0.08172   0.08984   0.09752
 Alpha virt. eigenvalues --    0.10533   0.11092   0.11756   0.12341   0.12841
 Alpha virt. eigenvalues --    0.14204   0.14403   0.15242   0.15953   0.16354

  Beta  occ. eigenvalues --  -19.02862 -19.01394 -18.96845 -14.22429 -10.16437
  Beta  occ. eigenvalues --  -10.11821 -10.11466 -10.10934 -10.10736 -10.07024
  Beta  occ. eigenvalues --  -10.06482  -0.94300  -0.92097  -0.91171  -0.81549
  Beta  occ. eigenvalues --   -0.67222  -0.65400  -0.62209  -0.54404  -0.53212
  Beta  occ. eigenvalues --   -0.49663  -0.43973  -0.42152  -0.41106  -0.39782
  Beta  occ. eigenvalues --   -0.38714  -0.36446  -0.34675  -0.32522  -0.31433
  Beta  occ. eigenvalues --   -0.30470  -0.29340  -0.28012  -0.27269  -0.24455
  Beta  occ. eigenvalues --   -0.22472  -0.19097  -0.17834  -0.17753  -0.16081
  Beta  occ. eigenvalues --   -0.14729  -0.14291
  Beta virt. eigenvalues --    0.07330   0.07618   0.08026   0.08915   0.09343
  Beta virt. eigenvalues --    0.09848   0.10841   0.11396   0.12076   0.12525
  Beta virt. eigenvalues --    0.12879   0.14215   0.14570   0.15347   0.16041

 Mulliken charges and spin densities:
               1          2
     1  C   -2.358194   0.213785
     2  C    1.798404  -0.042644
     3  C    0.348544   0.104647
     4  O   -0.383227   0.056794
     5  N   -0.137905   0.023385
     6  C   -0.273540  -0.267589
     7  C   -0.076870  -0.082662
     8  O   -0.173883   0.027498
     9  C   -0.814733   0.580975
    10  C    1.780577  -2.013186
    11  O   -0.333250   0.045620
    12  H    0.109599   0.001631
    13  H    0.318547   0.014269
    14  H    0.094913   0.066303
    15  H    0.167928   0.020697
    16  H    0.168177   0.023933
    17  H    0.055566   0.066563
    18  H    0.222346  -0.070958
    19  H   -0.102197   0.245537
    20  H   -0.600786   0.739342
    21  H   -0.363600   0.516883
    22  H   -0.446415   0.729176
 Sum of Mulliken charges =  -1.00000   1.00000

 Dipole moment (field-independent basis, Debye):
    X=             -5.0463    Y=              0.2244    Z=             -0.8552  Tot=              5.1232
 Quadrupole moment (field-independent basis, Debye-Ang):
   XX=           -169.7296   YY=            -91.0053   ZZ=            -83.2379
   XY=            -21.7213   XZ=              4.1218   YZ=              0.5031

 Summary of Natural Population Analysis:

                                       Natural Population
                Natural  -----------------------------------------------
    Atom  No    Charge         Core      Valence    Rydberg      Total
 -----------------------------------------------------------------------
      C    1   -0.08041      0.99930     2.07718    0.00393     3.08041
      C    2   -0.04716      0.99931     2.03909    0.00876     3.04716
      C    3    0.32134      0.99959     1.65977    0.01931     2.67866
      O    4   -0.29846      0.99988     3.29263    0.00595     4.29846
      N    5   -0.30783      0.99968     2.79856    0.00959     3.80783
      C    6   -0.10072      0.99962     2.08973    0.01137     3.10072
      C    7   -0.01361      0.99958     2.00186    0.01218     3.01361
      O    8   -0.30919      0.99988     3.29968    0.00963     4.30919
      C    9   -0.01583      0.99958     2.00273    0.01353     3.01583
      C   10   -0.02285      0.99961     2.00998    0.01325     3.02285
      O   11   -0.37677      0.99989     3.36896    0.00792     4.37677
      H   12    0.10492      0.00000     0.39412    0.00096     0.39508
      H   13    0.19740      0.00000     0.30014    0.00246     0.30260
      H   14    0.09268      0.00000     0.40614    0.00118     0.40732
      H   15    0.10952      0.00000     0.38954    0.00094     0.39048
      H   16    0.09478      0.00000     0.40369    0.00153     0.40522
      H   17    0.08089      0.00000     0.41770    0.00141     0.41911
      H   18    0.08140      0.00000     0.41715    0.00145     0.41860
      H   19    0.09004      0.00000     0.40871    0.00125     0.40996
      H   20    0.07934      0.00000     0.41773    0.00293     0.42066
      H   21    0.08110      0.00000     0.41613    0.00277     0.41890
      H   22    0.23943      0.00000     0.23952    0.02106     0.26057
 =======================================================================
   * Total *    0.00000     10.99591    30.85074    0.15334    42.00000

 Normal termination of Gaussian 16 at Tue Dec  8 20:41:58 2020.
