 Gaussian 16, Revision A.03,

 -----------------------------------------------------------
 # opt freq B3LYP/6-31G(d) empiricaldispersion=gd3bj scf=xqc
 -----------------------------------------------------------

 ------------------------------
 CID_151546174_JID_588_neutraal
 ------------------------------
 Symbolic Z-matrix:
 Charge =  0 Multiplicity = 1

 SCF Done:  E(RB3LYP) =  -643.196872345     A.U. after   15 cycles
 SCF Done:  E(RB3LYP) =  -643.208509331     A.U. after   13 cycles
 SCF Done:  E(RB3LYP) =  -643.209312247     A.U. after   13 cycles
 SCF Done:  E(RB3LYP) =  -643.209352976     A.U. after   14 cycles
 SCF Done:  E(RB3LYP) =  -643.209916225     A.U. after   13 cycles
 SCF Done:  E(RB3LYP) =  -643.210512807     A.U. after   12 cycles
 SCF Done:  E(RB3LYP) =  -643.210481159     A.U. after   12 cycles
 SCF Done:  E(RB3LYP) =  -643.210522841     A.U. after   11 cycles
 SCF Done:  E(RB3LYP) =  -643.210564953     A.U. after   11 cycles
 SCF Done:  E(RB3LYP) =  -643.210565533     A.U. after   10 cycles
 SCF Done:  E(RB3LYP) =  -643.210566587     A.U. after    9 cycles
 Optimization completed.
    -- Stationary point found.
 Normal termination of Gaussian 16 at Tue Dec  8 12:11:09 2020.

 --------------------------------------------------------------------
 #N Geom=AllCheck Guess=TCheck SCRF=Check GenChk RB3LYP/6-31G(d) Freq
 --------------------------------------------------------------------

 Structure from the checkpoint file:  "JID_588.chk"
 ------------------------------
 CID_151546174_JID_588_neutraal
 ------------------------------
 Charge =  0 Multiplicity = 1

 SCF Done:  E(RB3LYP) =  -643.210566587     A.U. after    1 cycles

  Exact polarizability:  58.088   0.800  51.814   4.221   1.650  47.724
 Approx polarizability:  82.335   7.755  78.150  12.675  10.907  78.967

                      1                      2                      3
                      A                      A                      A
 Frequencies --     45.1342                80.6773               121.6522
 Red. masses --     11.7987                10.2170                 7.6523
 Frc consts  --      0.0142                 0.0392                 0.0667
 IR Inten    --      0.7874                 0.7119                 7.6732

                      4                      5                      6
                      A                      A                      A
 Frequencies --    147.7824               183.5841               250.9807
 Red. masses --      6.8031                 6.3354                 7.0353
 Frc consts  --      0.0875                 0.1258                 0.2611
 IR Inten    --      0.1627                 4.7127                 7.6155

                      7                      8                      9
                      A                      A                      A
 Frequencies --    266.3826               343.5890               383.3826
 Red. masses --      2.0678                 2.4118                 7.0762
 Frc consts  --      0.0865                 0.1677                 0.6128
 IR Inten    --     83.1021                58.9115                 8.0702

                     10                     11                     12
                      A                      A                      A
 Frequencies --    404.9344               419.0966               500.4807
 Red. masses --      4.8071                 9.1607                 3.8788
 Frc consts  --      0.4644                 0.9480                 0.5724
 IR Inten    --     25.9206                 5.5493                 3.9973

                     13                     14                     15
                      A                      A                      A
 Frequencies --    533.6348               574.3910               604.8978
 Red. masses --      1.3316                 1.6207                 1.4271
 Frc consts  --      0.2234                 0.3150                 0.3077
 IR Inten    --     19.4792                37.6483                87.9886

                     16                     17                     18
                      A                      A                      A
 Frequencies --    651.5897               665.1479               739.3522
 Red. masses --      3.0021                 2.8544                 4.3963
 Frc consts  --      0.7510                 0.7441                 1.4159
 IR Inten    --     71.7886               157.6030                14.9100

                     19                     20                     21
                      A                      A                      A
 Frequencies --    747.2512               817.6873               944.7213
 Red. masses --      4.5911                 9.2192                15.0224
 Frc consts  --      1.5104                 3.6318                 7.8995
 IR Inten    --      7.6913                37.7231                14.8847

                     22                     23                     24
                      A                      A                      A
 Frequencies --   1056.5691              1100.2224              1157.4560
 Red. masses --      5.0216                 6.5024                 6.6185
 Frc consts  --      3.3028                 4.6375                 5.2242
 IR Inten    --     11.1370               217.0903               279.4672

                     25                     26                     27
                      A                      A                      A
 Frequencies --   1194.6449              1229.5527              1362.9857
 Red. masses --      2.7561                 2.1402                 1.8658
 Frc consts  --      2.3175                 1.9063                 2.0422
 IR Inten    --    133.8581                88.5948                93.9211

                     28                     29                     30
                      A                      A                      A
 Frequencies --   1401.0124              1421.4851              1472.0950
 Red. masses --      2.2964                 1.1854                 1.9274
 Frc consts  --      2.6558                 1.4112                 2.4610
 IR Inten    --     80.3367                75.6803                30.8043

                     31                     32                     33
                      A                      A                      A
 Frequencies --   1842.5948              1882.7134              3592.7420
 Red. masses --     10.5844                11.0368                 1.0647
 Frc consts  --     21.1726                23.0494                 8.0973
 IR Inten    --    319.2841               211.9529               118.9117

                     34                     35                     36
                      A                      A                      A
 Frequencies --   3658.1177              3684.9415              3686.1888
 Red. masses --      1.0678                 1.0642                 1.0642
 Frc consts  --      8.4192                 8.5140                 8.5196
 IR Inten    --     31.6961                84.7085                61.5941

 - Thermochemistry -
 -------------------
 Temperature   298.150 Kelvin.  Pressure   1.00000 Atm.
 Atom     1 has atomic number  6 and mass  12.00000

 Molecular mass:   151.99570 amu.
 Principal axes and moments of inertia in atomic units:
                           1         2         3
     Eigenvalues --  1061.138191382.803341707.27987
           X            0.99900  -0.04460   0.00034
           Y            0.04457   0.99816  -0.04120
           Z            0.00150   0.04117   0.99915
 This molecule is an asymmetric top.
 Rotational symmetry number  1.
 Warning -- assumption of classical behavior for rotation
           may cause significant error
 Rotational temperatures (Kelvin)      0.08162     0.06264     0.05073
 Rotational constants (GHZ):           1.70076     1.30513     1.05709
 Zero-point vibrational energy     234286.7 (Joules/Mol)
                                   55.99586 (Kcal/Mol)
 Warning -- explicit consideration of  15 degrees of freedom as
           vibrations may cause significant error
 Vibrational temperatures:     64.94   116.08   175.03   212.63   264.14
          (Kelvin)            361.11   383.27   494.35   551.60   582.61
                              602.99   720.08   767.78   826.42   870.31
                              937.49   957.00  1063.76  1075.13  1176.47
                             1359.24  1520.17  1582.97  1665.32  1718.83
                             1769.05  1961.03  2015.74  2045.20  2118.02
                             2651.08  2708.80  5169.15  5263.22  5301.81
                             5303.60

 Zero-point correction=                           0.089235 (Hartree/Particle)
 Thermal correction to Energy=                    0.099318
 Thermal correction to Enthalpy=                  0.100262
 Thermal correction to Gibbs Free Energy=         0.053369
 Sum of electronic and zero-point Energies=           -643.121332
 Sum of electronic and thermal Energies=              -643.111248
 Sum of electronic and thermal Enthalpies=            -643.110304
 Sum of electronic and thermal Free Energies=         -643.157197

                     E (Thermal)             CV                S
                      KCal/Mol        Cal/Mol-Kelvin    Cal/Mol-Kelvin
 Total                   62.323             35.670             98.695
 Electronic               0.000              0.000              0.000
 Translational            0.889              2.981             40.966
 Rotational               0.889              2.981             29.306
 Vibrational             60.546             29.709             28.423
 Vibration     1          0.595              1.979              5.020
 Vibration     2          0.600              1.962              3.874
 Vibration     3          0.609              1.931              3.074
 Vibration     4          0.617              1.905              2.701
 Vibration     5          0.631              1.862              2.292
 Vibration     6          0.663              1.761              1.724
 Vibration     7          0.672              1.735              1.620
 Vibration     8          0.722              1.588              1.195
 Vibration     9          0.753              1.506              1.026
 Vibration    10          0.770              1.459              0.945
 Vibration    11          0.782              1.429              0.895
 Vibration    12          0.856              1.249              0.657
 Vibration    13          0.889              1.176              0.579
 Vibration    14          0.931              1.087              0.496
 Vibration    15          0.963              1.021              0.441

 Optimization completed.
    -- Stationary point found.
 Normal termination of Gaussian 16 at Tue Dec  8 12:14:47 2020.

 ----------------------------------------------------------------------
 # B3LYP/6-311++G(d,p) empiricaldispersion=gd3bj scf=xqc pop=npa geom=c
 heck
 ----------------------------------------------------------------------

 --------------------------------------
 CID_151546174_JID_588_Energie_neutraal
 --------------------------------------
 Structure from the checkpoint file:  "JID_588.chk"
 Charge =  0 Multiplicity = 1

 SCF Done:  E(RB3LYP) =  -643.439662968     A.U. after   14 cycles
 Normal termination of Gaussian 16 at Tue Dec  8 12:16:16 2020.

 ----------------------------------------------------------------------
 # B3LYP/6-311++G(d,p) empiricaldispersion=gd3bj scf=xqc pop=npa geom=c
 heck
 ----------------------------------------------------------------------

 ------------------------------------
 CID_151546174_JID_588_Energie_kation
 ------------------------------------
 Structure from the checkpoint file:  "JID_588.chk"
 Charge =  1 Multiplicity = 2

 SCF Done:  E(UB3LYP) =  -643.054459033     A.U. after   24 cycles
 Normal termination of Gaussian 16 at Tue Dec  8 12:18:24 2020.
 Gaussian 16:  ES64L-G16RevA.03 25-Dec-2016

 ----------------------------------------------------------------------
 # B3LYP/6-311++G(d,p) empiricaldispersion=gd3bj scf=xqc pop=npa geom=c
 heck
 ----------------------------------------------------------------------

 -----------------------------------
 CID_151546174_JID_588_Energie_anion
 -----------------------------------
 Structure from the checkpoint file:  "JID_588.chk"
 Charge = -1 Multiplicity = 2

                         Standard orientation:
 ---------------------------------------------------------------------
 Center     Atomic      Atomic             Coordinates (Angstroms)
 Number     Number       Type             X           Y           Z
 ---------------------------------------------------------------------
      1          6           0       -1.506911   -0.144090   -0.066813
      2          8           0       -2.209924   -0.965298   -0.591629
      3          6           0       -0.004090   -0.305576    0.243916
      4          6           0        0.799784    0.957749   -0.137422
      5          8           0        1.425083    1.590232    0.685504
      6          8           0        0.717037    1.246030   -1.435454
      7          8           0        0.168412   -0.532979    1.608059
      8          8           0        0.407276   -1.409945   -0.522598
      9          8           0        1.833942   -1.539911   -0.299768
     10          8           0       -1.926214    1.057333    0.385014
     11          1           0        1.259493    2.042054   -1.593593
     12          1           0        0.737291    0.196750    1.929972
     13          1           0        1.830468   -1.956049    0.584976
     14          1           0       -2.884845    1.105052    0.207530
 ---------------------------------------------------------------------

 SCF Done:  E(UB3LYP) =  -643.434645241     A.U. after   27 cycles

 The electronic state is 2-A.
 Alpha  occ. eigenvalues --  -19.08105 -19.07065 -19.07050 -19.06233 -19.03463
 Alpha  occ. eigenvalues --  -19.02022 -19.00847 -10.20478 -10.19612 -10.19442
 Alpha  occ. eigenvalues --   -1.04218  -1.01161  -1.00289  -0.94867  -0.92110
 Alpha  occ. eigenvalues --   -0.91850  -0.81277  -0.63184  -0.55149  -0.50271
 Alpha  occ. eigenvalues --   -0.45708  -0.44067  -0.41359  -0.39050  -0.38358
 Alpha  occ. eigenvalues --   -0.36719  -0.34340  -0.32771  -0.32567  -0.31540
 Alpha  occ. eigenvalues --   -0.29338  -0.26553  -0.23693  -0.22600  -0.22117
 Alpha  occ. eigenvalues --   -0.21235  -0.20730  -0.17635  -0.16663   0.04704
 Alpha virt. eigenvalues --    0.07364   0.07605   0.08284   0.09996   0.11136
 Alpha virt. eigenvalues --    0.12679   0.15100   0.16124   0.17002   0.17313
 Alpha virt. eigenvalues --    0.18503   0.18780   0.18990   0.19753   0.20775

  Beta  occ. eigenvalues --  -19.08044 -19.06991 -19.06945 -19.06165 -19.03421
  Beta  occ. eigenvalues --  -19.01957 -19.00762 -10.20386 -10.19489 -10.19430
  Beta  occ. eigenvalues --   -1.04032  -1.00992  -1.00112  -0.94753  -0.91985
  Beta  occ. eigenvalues --   -0.91692  -0.81089  -0.62953  -0.54862  -0.50134
  Beta  occ. eigenvalues --   -0.45577  -0.43908  -0.41218  -0.38916  -0.38205
  Beta  occ. eigenvalues --   -0.36582  -0.33983  -0.32530  -0.32390  -0.31426
  Beta  occ. eigenvalues --   -0.29195  -0.26447  -0.23559  -0.22388  -0.21836
  Beta  occ. eigenvalues --   -0.21119  -0.20621  -0.17536  -0.16566
  Beta virt. eigenvalues --    0.07839   0.08746   0.09150   0.09245   0.10823
  Beta virt. eigenvalues --    0.11538   0.13105   0.15312   0.16338   0.17206
  Beta virt. eigenvalues --    0.17363   0.18657   0.18891   0.19515   0.20110

 Mulliken charges and spin densities:
               1          2
     1  C    0.345872   0.133098
     2  O   -0.317289   0.035063
     3  C    0.458189  -1.302738
     4  C    0.309924  -0.026669
     5  O   -0.313604   0.055418
     6  O   -0.149118   0.022290
     7  O   -0.203721   0.036643
     8  O   -0.040715   0.064968
     9  O   -0.143007  -0.013910
    10  O   -0.138663   0.003601
    11  H   -0.380862   0.687232
    12  H    0.063847   0.221735
    13  H   -0.111526   0.398703
    14  H   -0.379326   0.684567
 Sum of Mulliken charges =  -1.00000   1.00000

 Dipole moment (field-independent basis, Debye):
    X=              0.6080    Y=             -1.2295    Z=              1.4065  Tot=              1.9646
 Quadrupole moment (field-independent basis, Debye-Ang):
   XX=            -89.8821   YY=            -87.5627   ZZ=            -77.8814
   XY=              0.7570   XZ=              0.4666   YZ=              0.6729

 Summary of Natural Population Analysis:

                                       Natural Population
                Natural  -----------------------------------------------
    Atom  No    Charge         Core      Valence    Rydberg      Total
 -----------------------------------------------------------------------
      C    1    0.41313      0.99968     1.55995    0.02723     2.58687
      O    2   -0.28392      0.99986     3.27745    0.00660     4.28392
      C    3    0.19883      0.99957     1.77905    0.02255     2.80117
      C    4    0.41118      0.99969     1.56270    0.02643     2.58882
      O    5   -0.30653      0.99986     3.29949    0.00717     4.30653
      O    6   -0.32798      0.99987     3.31990    0.00821     4.32798
      O    7   -0.36841      0.99988     3.36135    0.00719     4.36841
      O    8   -0.14533      0.99987     3.13561    0.00986     4.14533
      O    9   -0.21848      0.99991     3.21171    0.00685     4.21848
      O   10   -0.34175      0.99987     3.33435    0.00753     4.34175
      H   11    0.24576      0.00000     0.23730    0.01693     0.25424
      H   12    0.24705      0.00000     0.24817    0.00478     0.25295
      H   13    0.23208      0.00000     0.26176    0.00616     0.26792
      H   14    0.24436      0.00000     0.24058    0.01506     0.25564
 =======================================================================
   * Total *    0.00000      9.99806    28.82938    0.17255    39.00000

 Normal termination of Gaussian 16 at Tue Dec  8 12:22:42 2020.
