 Gaussian 16, Revision A.03,

 -----------------------------------------------------------
 # opt freq B3LYP/6-31G(d) empiricaldispersion=gd3bj scf=xqc
 -----------------------------------------------------------

 ------------------------------
 CID_64020802_JID_3174_neutraal
 ------------------------------
 Symbolic Z-matrix:
 Charge =  0 Multiplicity = 1

 SCF Done:  E(RB3LYP) =  -577.892980241     A.U. after   14 cycles
 SCF Done:  E(RB3LYP) =  -577.896607706     A.U. after   12 cycles
 SCF Done:  E(RB3LYP) =  -577.896719432     A.U. after   12 cycles
 SCF Done:  E(RB3LYP) =  -577.897590317     A.U. after   12 cycles
 SCF Done:  E(RB3LYP) =  -577.898194694     A.U. after   11 cycles
 SCF Done:  E(RB3LYP) =  -577.898580600     A.U. after   11 cycles
 SCF Done:  E(RB3LYP) =  -577.899079455     A.U. after   12 cycles
 SCF Done:  E(RB3LYP) =  -577.899700596     A.U. after   13 cycles
 SCF Done:  E(RB3LYP) =  -577.900401791     A.U. after   12 cycles
 SCF Done:  E(RB3LYP) =  -577.900902719     A.U. after   12 cycles
 SCF Done:  E(RB3LYP) =  -577.904481221     A.U. after   11 cycles
 SCF Done:  E(RB3LYP) =  -577.904495058     A.U. after   10 cycles
 SCF Done:  E(RB3LYP) =  -577.904503731     A.U. after    9 cycles
 SCF Done:  E(RB3LYP) =  -577.904504142     A.U. after    8 cycles
 SCF Done:  E(RB3LYP) =  -577.904504054     A.U. after    8 cycles
 SCF Done:  E(RB3LYP) =  -577.904504260     A.U. after    7 cycles
 Optimization completed.
    -- Stationary point found.
 Normal termination of Gaussian 16 at Wed Dec  9 22:47:01 2020.

 --------------------------------------------------------------------
 #N Geom=AllCheck Guess=TCheck SCRF=Check GenChk RB3LYP/6-31G(d) Freq
 --------------------------------------------------------------------

 Structure from the checkpoint file:  "JID_3174.chk"
 ------------------------------
 CID_64020802_JID_3174_neutraal
 ------------------------------
 Charge =  0 Multiplicity = 1

 SCF Done:  E(RB3LYP) =  -577.904504260     A.U. after    1 cycles

  Exact polarizability: 126.867  -4.801 122.641   3.365   1.774 103.158
 Approx polarizability: 164.620  -5.241 163.109  12.703   4.165 167.925

                      1                      2                      3
                      A                      A                      A
 Frequencies --     52.8010                63.9452                70.0819
 Red. masses --      3.0804                 5.6825                 3.4392
 Frc consts  --      0.0051                 0.0137                 0.0100
 IR Inten    --      0.4306                 2.3474                 2.2438

                      4                      5                      6
                      A                      A                      A
 Frequencies --    116.3414               126.0824               190.7358
 Red. masses --      2.4082                 1.8404                 2.5966
 Frc consts  --      0.0192                 0.0172                 0.0557
 IR Inten    --      8.0220                 0.8759                 0.5094

                      7                      8                      9
                      A                      A                      A
 Frequencies --    202.2705               222.6996               231.6516
 Red. masses --      1.9822                 1.4841                 1.7260
 Frc consts  --      0.0478                 0.0434                 0.0546
 IR Inten    --      4.2023                11.4607                 6.5815

                     10                     11                     12
                      A                      A                      A
 Frequencies --    251.0357               266.7127               294.6836
 Red. masses --      1.2929                 1.5267                 2.6159
 Frc consts  --      0.0480                 0.0640                 0.1338
 IR Inten    --     20.1183                15.1183                 3.4119

                     13                     14                     15
                      A                      A                      A
 Frequencies --    321.1293               350.0906               391.2194
 Red. masses --      2.5918                 2.6015                 2.5949
 Frc consts  --      0.1575                 0.1879                 0.2340
 IR Inten    --      7.5084                 6.7279                 1.8298

                     16                     17                     18
                      A                      A                      A
 Frequencies --    413.5941               437.7494               478.9979
 Red. masses --      3.1522                 2.5800                 2.3620
 Frc consts  --      0.3177                 0.2913                 0.3193
 IR Inten    --      3.7618                 2.4679                 6.3579

                     19                     20                     21
                      A                      A                      A
 Frequencies --    511.0688               539.7410               580.5861
 Red. masses --      2.7706                 3.6930                 2.6982
 Frc consts  --      0.4264                 0.6339                 0.5359
 IR Inten    --      1.3494                 4.2164                 3.2172

                     22                     23                     24
                      A                      A                      A
 Frequencies --    616.1822               694.3790               734.9641
 Red. masses --      3.2049                 2.6038                 3.3586
 Frc consts  --      0.7170                 0.7397                 1.0689
 IR Inten    --      9.8358                 5.5374                 1.0336

                     25                     26                     27
                      A                      A                      A
 Frequencies --    796.8090               830.7650               833.4938
 Red. masses --      2.3348                 2.1971                 1.3815
 Frc consts  --      0.8734                 0.8934                 0.5655
 IR Inten    --      1.2897                13.9527                 5.1054

                     28                     29                     30
                      A                      A                      A
 Frequencies --    870.7860               890.3794               921.9213
 Red. masses --      1.6414                 1.4798                 2.2211
 Frc consts  --      0.7333                 0.6912                 1.1122
 IR Inten    --     13.2764               102.4576                 1.4748

                     31                     32                     33
                      A                      A                      A
 Frequencies --    945.9421               965.3790               992.0194
 Red. masses --      2.0115                 1.4555                 2.1990
 Frc consts  --      1.0605                 0.7992                 1.2750
 IR Inten    --      6.6419                 3.3949                15.6696

                     34                     35                     36
                      A                      A                      A
 Frequencies --    997.4697              1028.0560              1057.4058
 Red. masses --      1.6290                 1.7622                 1.6119
 Frc consts  --      0.9549                 1.0973                 1.0619
 IR Inten    --      8.0248                 6.3724                12.3122

                     37                     38                     39
                      A                      A                      A
 Frequencies --   1083.9021              1094.8541              1103.8575
 Red. masses --      1.6415                 2.5948                 1.9500
 Frc consts  --      1.1362                 1.8326                 1.3999
 IR Inten    --     13.3183                 5.2712                 4.7338

                     40                     41                     42
                      A                      A                      A
 Frequencies --   1108.6408              1133.0704              1141.4978
 Red. masses --      1.6553                 2.6075                 1.9378
 Frc consts  --      1.1987                 1.9724                 1.4877
 IR Inten    --      0.5201                14.9050                 6.7846

                     43                     44                     45
                      A                      A                      A
 Frequencies --   1177.8151              1193.7042              1199.1186
 Red. masses --      1.6505                 2.3157                 1.6162
 Frc consts  --      1.3490                 1.9441                 1.3692
 IR Inten    --     12.9450                36.2113                10.0582

                     46                     47                     48
                      A                      A                      A
 Frequencies --   1240.5070              1255.9240              1275.3975
 Red. masses --      1.8332                 1.4233                 1.3803
 Frc consts  --      1.6621                 1.3227                 1.3229
 IR Inten    --     56.3374                 2.8850                23.6795

                     49                     50                     51
                      A                      A                      A
 Frequencies --   1309.1190              1321.1086              1349.1381
 Red. masses --      1.2006                 1.5155                 1.5591
 Frc consts  --      1.2123                 1.5584                 1.6720
 IR Inten    --      0.2322                30.3027                19.5994

                     52                     53                     54
                      A                      A                      A
 Frequencies --   1353.6836              1364.1204              1384.5583
 Red. masses --      1.3805                 1.3060                 1.2967
 Frc consts  --      1.4905                 1.4319                 1.4646
 IR Inten    --     11.4920                 4.5008                 3.2071

                     55                     56                     57
                      A                      A                      A
 Frequencies --   1396.6785              1399.4207              1409.1024
 Red. masses --      1.5069                 1.3581                 1.3967
 Frc consts  --      1.7320                 1.5671                 1.6339
 IR Inten    --     46.3645                 6.4098                15.4382

                     58                     59                     60
                      A                      A                      A
 Frequencies --   1417.1490              1439.7454              1440.5823
 Red. masses --      1.4618                 1.2446                 1.2781
 Frc consts  --      1.7297                 1.5201                 1.5628
 IR Inten    --     19.9521                 5.7630                18.2333

                     61                     62                     63
                      A                      A                      A
 Frequencies --   1454.8594              1483.1640              1500.3755
 Red. masses --      1.4506                 1.7266                 1.1068
 Frc consts  --      1.8091                 2.2378                 1.4679
 IR Inten    --      7.0610                63.4751                 8.0439

                     64                     65                     66
                      A                      A                      A
 Frequencies --   1513.5997              1518.0120              1522.2497
 Red. masses --      1.0725                 1.0708                 1.0410
 Frc consts  --      1.4477                 1.4538                 1.4212
 IR Inten    --      1.1700                 7.8793                 6.2124

                     67                     68                     69
                      A                      A                      A
 Frequencies --   1527.4195              1531.1411              1533.3147
 Red. masses --      1.0869                 1.0621                 1.0627
 Frc consts  --      1.4941                 1.4671                 1.4721
 IR Inten    --      4.9781                 5.7036                 1.9514

                     70                     71                     72
                      A                      A                      A
 Frequencies --   1537.7276              1543.8338              1703.2504
 Red. masses --      1.0952                 1.0829                 1.0860
 Frc consts  --      1.5258                 1.5207                 1.8562
 IR Inten    --     17.0348                 2.9045                31.3702

                     73                     74                     75
                      A                      A                      A
 Frequencies --   1754.0039              2991.2738              2998.2267
 Red. masses --     10.1291                 1.0687                 1.0828
 Frc consts  --     18.3603                 5.6341                 5.7348
 IR Inten    --    224.2644                53.7159                22.7060

                     76                     77                     78
                      A                      A                      A
 Frequencies --   3030.6171              3043.2052              3048.9106
 Red. masses --      1.0710                 1.0745                 1.0599
 Frc consts  --      5.7958                 5.8630                 5.8049
 IR Inten    --     16.9925                17.3241                12.6382

                     79                     80                     81
                      A                      A                      A
 Frequencies --   3049.2316              3054.4556              3059.0406
 Red. masses --      1.0615                 1.0808                 1.0452
 Frc consts  --      5.8150                 5.9410                 5.7629
 IR Inten    --     27.1318                57.9824                44.0955

                     82                     83                     84
                      A                      A                      A
 Frequencies --   3065.8407              3067.7101              3085.2536
 Red. masses --      1.0382                 1.0925                 1.1011
 Frc consts  --      5.7495                 6.0574                 6.1751
 IR Inten    --     28.0723                64.9790                 9.5719

                     85                     86                     87
                      A                      A                      A
 Frequencies --   3086.9363              3093.5136              3121.6062
 Red. masses --      1.0937                 1.1026                 1.0991
 Frc consts  --      6.1404                 6.2170                 6.3101
 IR Inten    --     38.3944                47.0393                31.4140

                     88                     89                     90
                      A                      A                      A
 Frequencies --   3131.7080              3148.8572              3153.4954
 Red. masses --      1.1021                 1.0914                 1.1017
 Frc consts  --      6.3683                 6.3761                 6.4550
 IR Inten    --     26.1668                25.1639                20.5202

                     91                     92                     93
                      A                      A                      A
 Frequencies --   3193.6351              3473.4094              3553.6552
 Red. masses --      1.0970                 1.0503                 1.0919
 Frc consts  --      6.5923                 7.4658                 8.1241
 IR Inten    --      7.1894                 1.3731                 0.3008

 - Thermochemistry -
 -------------------
 Temperature   298.150 Kelvin.  Pressure   1.00000 Atm.
 Atom     1 has atomic number  6 and mass  12.00000

 Molecular mass:   184.15756 amu.
 Principal axes and moments of inertia in atomic units:
                           1         2         3
     Eigenvalues --  1907.847042690.482753765.87763
           X            0.99893  -0.04551  -0.00835
           Y            0.04552   0.99896   0.00187
           Z            0.00826  -0.00225   0.99996
 This molecule is an asymmetric top.
 Rotational symmetry number  1.
 Warning -- assumption of classical behavior for rotation
           may cause significant error
 Rotational temperatures (Kelvin)      0.04540     0.03219     0.02300
 Rotational constants (GHZ):           0.94596     0.67079     0.47924
 Zero-point vibrational energy     792259.2 (Joules/Mol)
                                  189.35450 (Kcal/Mol)
 Warning -- explicit consideration of  22 degrees of freedom as
           vibrations may cause significant error
 Vibrational temperatures:     75.97    92.00   100.83   167.39   181.40
          (Kelvin)            274.43   291.02   320.42   333.30   361.18
                              383.74   423.98   462.03   503.70   562.88
                              595.07   629.82   689.17   735.31   776.57
                              835.33   886.55   999.06  1057.45  1146.43
                             1195.29  1199.21  1252.87  1281.06  1326.44
                             1361.00  1388.97  1427.29  1435.14  1479.14
                             1521.37  1559.49  1575.25  1588.20  1595.09
                             1630.24  1642.36  1694.61  1717.47  1725.26
                             1784.81  1806.99  1835.01  1883.53  1900.78
                             1941.11  1947.65  1962.67  1992.07  2009.51
                             2013.45  2027.38  2038.96  2071.47  2072.68
                             2093.22  2133.94  2158.71  2177.73  2184.08
                             2190.18  2197.62  2202.97  2206.10  2212.45
                             2221.23  2450.60  2523.62  4303.78  4313.78
                             4360.38  4378.49  4386.70  4387.16  4394.68
                             4401.28  4411.06  4413.75  4438.99  4441.41
                             4450.88  4491.30  4505.83  4530.50  4537.18
                             4594.93  4997.46  5112.92

 Zero-point correction=                           0.301756 (Hartree/Particle)
 Thermal correction to Energy=                    0.315784
 Thermal correction to Enthalpy=                  0.316729
 Thermal correction to Gibbs Free Energy=         0.261472
 Sum of electronic and zero-point Energies=           -577.602749
 Sum of electronic and thermal Energies=              -577.588720
 Sum of electronic and thermal Enthalpies=            -577.587776
 Sum of electronic and thermal Free Energies=         -577.643032

                     E (Thermal)             CV                S
                      KCal/Mol        Cal/Mol-Kelvin    Cal/Mol-Kelvin
 Total                  198.158             53.750            116.297
 Electronic               0.000              0.000              0.000
 Translational            0.889              2.981             41.538
 Rotational               0.889              2.981             31.336
 Vibrational            196.380             47.788             43.422
 Vibration     1          0.596              1.976              4.710
 Vibration     2          0.597              1.972              4.332
 Vibration     3          0.598              1.968              4.151
 Vibration     4          0.608              1.936              3.160
 Vibration     5          0.611              1.927              3.005
 Vibration     6          0.634              1.853              2.221
 Vibration     7          0.639              1.837              2.112
 Vibration     8          0.648              1.807              1.937
 Vibration     9          0.653              1.793              1.866
 Vibration    10          0.663              1.761              1.723
 Vibration    11          0.672              1.734              1.617
 Vibration    12          0.689              1.684              1.447
 Vibration    13          0.707              1.633              1.304
 Vibration    14          0.727              1.575              1.166
 Vibration    15          0.759              1.489              0.995
 Vibration    16          0.777              1.441              0.914
 Vibration    17          0.798              1.388              0.834
 Vibration    18          0.835              1.297              0.713
 Vibration    19          0.866              1.225              0.631
 Vibration    20          0.895              1.162              0.566
 Vibration    21          0.937              1.073              0.484
 Vibration    22          0.976              0.998              0.423

 Optimization completed.
    -- Stationary point found.
 Normal termination of Gaussian 16 at Wed Dec  9 22:57:47 2020.

 ----------------------------------------------------------------------
 # B3LYP/6-311++G(d,p) empiricaldispersion=gd3bj scf=xqc pop=npa geom=c
 heck
 ----------------------------------------------------------------------

 --------------------------------------
 CID_64020802_JID_3174_Energie_neutraal
 --------------------------------------
 Structure from the checkpoint file:  "JID_3174.chk"
 Charge =  0 Multiplicity = 1

 SCF Done:  E(RB3LYP) =  -578.075020467     A.U. after   15 cycles
 Normal termination of Gaussian 16 at Wed Dec  9 23:03:05 2020.

 ----------------------------------------------------------------------
 # B3LYP/6-311++G(d,p) empiricaldispersion=gd3bj scf=xqc pop=npa geom=c
 heck
 ----------------------------------------------------------------------

 ------------------------------------
 CID_64020802_JID_3174_Energie_kation
 ------------------------------------
 Structure from the checkpoint file:  "JID_3174.chk"
 Charge =  1 Multiplicity = 2

 SCF Done:  E(UB3LYP) =  -577.772237787     A.U. after   24 cycles
 Normal termination of Gaussian 16 at Wed Dec  9 23:14:54 2020.
 Gaussian 16:  ES64L-G16RevA.03 25-Dec-2016

 ----------------------------------------------------------------------
 # B3LYP/6-311++G(d,p) empiricaldispersion=gd3bj scf=xqc pop=npa geom=c
 heck
 ----------------------------------------------------------------------

 -----------------------------------
 CID_64020802_JID_3174_Energie_anion
 -----------------------------------
 Structure from the checkpoint file:  "JID_3174.chk"
 Charge = -1 Multiplicity = 2

                         Standard orientation:
 ---------------------------------------------------------------------
 Center     Atomic      Atomic             Coordinates (Angstroms)
 Number     Number       Type             X           Y           Z
 ---------------------------------------------------------------------
      1          6           0        3.438558   -1.585119    0.191844
      2          6           0        2.109536   -1.274546   -0.494877
      3          6           0        1.468789   -0.001838    0.074577
      4          8           0        1.876700    0.472820    1.130447
      5          7           0        0.476809    0.588521   -0.679855
      6          6           0       -0.412136   -0.212566   -1.530468
      7          6           0       -1.694008   -0.630909   -0.777866
      8          6           0       -2.379149    0.620302   -0.194159
      9          6           0       -1.410211    1.503218    0.607221
     10          6           0       -0.183361    1.844038   -0.251453
     11          6           0        0.736610    2.894394    0.367726
     12          6           0       -1.397768   -1.701320    0.285182
     13          7           0       -2.631528   -2.141178    0.950499
     14          1           0        4.160489   -0.778906    0.031202
     15          1           0        3.862726   -2.514720   -0.202330
     16          1           0        3.300531   -1.687451    1.270642
     17          1           0        2.250132   -1.165223   -1.576870
     18          1           0        1.419137   -2.116558   -0.358450
     19          1           0       -0.684993    0.397039   -2.401460
     20          1           0        0.118142   -1.088031   -1.906737
     21          1           0       -2.378182   -1.089943   -1.503106
     22          1           0       -3.246058    0.327928    0.408483
     23          1           0       -2.779657    1.214974   -1.027340
     24          1           0       -1.067128    1.001431    1.520515
     25          1           0       -1.913439    2.427330    0.917611
     26          1           0       -0.559149    2.271622   -1.193483
     27          1           0        1.646023    3.014815   -0.229203
     28          1           0        0.204416    3.853101    0.375377
     29          1           0        1.030975    2.635788    1.383108
     30          1           0       -0.970011   -2.575868   -0.220579
     31          1           0       -0.630218   -1.336222    0.986925
     32          1           0       -2.443499   -2.990900    1.479400
     33          1           0       -2.911956   -1.448083    1.641853
 ---------------------------------------------------------------------

 SCF Done:  E(UB3LYP) =  -578.062857376     A.U. after   30 cycles

 The electronic state is 2-A.
 Alpha  occ. eigenvalues --  -18.98231 -14.23401 -14.19090 -10.16594 -10.10861
 Alpha  occ. eigenvalues --  -10.10320 -10.08690 -10.07561 -10.07155 -10.06559
 Alpha  occ. eigenvalues --  -10.06444 -10.06083 -10.05742  -0.93400  -0.83750
 Alpha  occ. eigenvalues --   -0.78165  -0.70240  -0.68560  -0.66757  -0.61010
 Alpha  occ. eigenvalues --   -0.57907  -0.55220  -0.53794  -0.50107  -0.46231
 Alpha  occ. eigenvalues --   -0.42248  -0.40202  -0.39210  -0.37815  -0.36922
 Alpha  occ. eigenvalues --   -0.35763  -0.34412  -0.33819  -0.32562  -0.32095
 Alpha  occ. eigenvalues --   -0.31682  -0.28926  -0.28690  -0.28499  -0.27111
 Alpha  occ. eigenvalues --   -0.26897  -0.26198  -0.25860  -0.24623  -0.23994
 Alpha  occ. eigenvalues --   -0.23481  -0.22471  -0.21335  -0.15197  -0.14550
 Alpha  occ. eigenvalues --   -0.13438   0.04317
 Alpha virt. eigenvalues --    0.06496   0.06723   0.07709   0.08797   0.09014
 Alpha virt. eigenvalues --    0.09329   0.10179   0.10575   0.11107   0.11363
 Alpha virt. eigenvalues --    0.12036   0.12305   0.12657   0.13017   0.13471

  Beta  occ. eigenvalues --  -18.98217 -14.23405 -14.19052 -10.16580 -10.10849
  Beta  occ. eigenvalues --  -10.10302 -10.08664 -10.07542 -10.07150 -10.06542
  Beta  occ. eigenvalues --  -10.06422 -10.06067 -10.05731  -0.93374  -0.83736
  Beta  occ. eigenvalues --   -0.78102  -0.70208  -0.68522  -0.66725  -0.60976
  Beta  occ. eigenvalues --   -0.57855  -0.55165  -0.53736  -0.50060  -0.46188
  Beta  occ. eigenvalues --   -0.42197  -0.40155  -0.39160  -0.37773  -0.36888
  Beta  occ. eigenvalues --   -0.35728  -0.34367  -0.33786  -0.32524  -0.32068
  Beta  occ. eigenvalues --   -0.31647  -0.28885  -0.28647  -0.28473  -0.27079
  Beta  occ. eigenvalues --   -0.26861  -0.26161  -0.25830  -0.24594  -0.23958
  Beta  occ. eigenvalues --   -0.23447  -0.22430  -0.21298  -0.15183  -0.14510
  Beta  occ. eigenvalues --   -0.13410
  Beta virt. eigenvalues --    0.06600   0.07379   0.07456   0.08184   0.09201
  Beta virt. eigenvalues --    0.09581   0.09894   0.10473   0.10807   0.11375
  Beta virt. eigenvalues --    0.11714   0.12237   0.12686   0.13142   0.13223

 Mulliken charges and spin densities:
               1          2
     1  C    0.406918  -1.208645
     2  C    0.417247  -0.248474
     3  C   -0.487784   0.018108
     4  O   -0.268020   0.025657
     5  N    0.198594   0.030347
     6  C   -0.157803  -0.134886
     7  C   -0.228538   0.756583
     8  C    0.513563  -1.166136
     9  C   -0.221866  -0.035018
    10  C    0.134549  -0.058449
    11  C   -0.238121  -0.408940
    12  C    1.505399  -2.332743
    13  N   -0.574419   0.238721
    14  H    0.060958   0.086954
    15  H   -0.168283   0.301376
    16  H    0.087663   0.074157
    17  H   -0.163332   0.325674
    18  H    0.024143   0.125456
    19  H   -0.430232   0.625795
    20  H   -0.329248   0.515256
    21  H   -0.111911   0.329450
    22  H   -0.169056   0.319230
    23  H   -0.135299   0.275793
    24  H    0.119016   0.070006
    25  H   -0.272712   0.450073
    26  H   -0.191710   0.374270
    27  H    0.077269   0.075770
    28  H   -0.071617   0.204977
    29  H    0.154387   0.026536
    30  H   -0.423384   0.612405
    31  H    0.002932   0.208537
    32  H   -0.096329   0.338677
    33  H    0.037028   0.183485
 Sum of Mulliken charges =  -1.00000   1.00000

 Dipole moment (field-independent basis, Debye):
    X=              2.1911    Y=              2.8788    Z=              0.8434  Tot=              3.7147
 Quadrupole moment (field-independent basis, Debye-Ang):
   XX=           -137.8355   YY=           -136.5181   ZZ=           -119.4308
   XY=             -0.2488   XZ=             -2.0548   YZ=              0.4183

 Summary of Natural Population Analysis:

                                       Natural Population
                Natural  -----------------------------------------------
    Atom  No    Charge         Core      Valence    Rydberg      Total
 -----------------------------------------------------------------------
      C    1   -0.28294      0.99967     2.27669    0.00658     3.28294
      C    2   -0.23608      0.99960     2.22910    0.00737     3.23608
      C    3    0.35082      0.99964     1.62493    0.02461     2.64918
      O    4   -0.32611      0.99988     3.32099    0.00524     4.32611
      N    5   -0.26595      0.99964     2.75369    0.01262     3.76595
      C    6   -0.08188      0.99958     2.07046    0.01184     3.08188
      C    7   -0.11794      0.99958     2.10635    0.01202     3.11794
      C    8   -0.19091      0.99961     2.18185    0.00945     3.19091
      C    9   -0.19759      0.99960     2.18879    0.00920     3.19759
      C   10   -0.00147      0.99958     1.98826    0.01363     3.00147
      C   11   -0.28619      0.99964     2.28166    0.00489     3.28619
      C   12   -0.09158      0.99959     2.08010    0.01189     3.09158
      N   13   -0.42083      0.99977     2.91082    0.01024     3.92083
      H   14    0.09794      0.00000     0.40124    0.00082     0.40206
      H   15    0.09635      0.00000     0.40281    0.00084     0.40365
      H   16    0.10502      0.00000     0.39406    0.00092     0.39498
      H   17    0.10350      0.00000     0.39513    0.00136     0.39650
      H   18    0.11003      0.00000     0.38803    0.00194     0.38997
      H   19    0.09774      0.00000     0.40072    0.00154     0.40226
      H   20    0.10521      0.00000     0.39273    0.00206     0.39479
      H   21    0.10412      0.00000     0.39409    0.00179     0.39588
      H   22    0.10240      0.00000     0.39636    0.00125     0.39760
      H   23    0.09809      0.00000     0.40019    0.00172     0.40191
      H   24    0.10077      0.00000     0.39800    0.00123     0.39923
      H   25    0.10066      0.00000     0.39830    0.00104     0.39934
      H   26    0.09236      0.00000     0.40563    0.00201     0.40764
      H   27    0.10129      0.00000     0.39782    0.00089     0.39871
      H   28    0.09568      0.00000     0.40346    0.00086     0.40432
      H   29    0.11256      0.00000     0.38645    0.00099     0.38744
      H   30    0.09367      0.00000     0.40442    0.00191     0.40633
      H   31    0.08233      0.00000     0.41531    0.00236     0.41767
      H   32    0.17724      0.00000     0.32060    0.00216     0.32276
      H   33    0.17169      0.00000     0.32632    0.00200     0.32831
 =======================================================================
   * Total *   -0.00000     12.99538    37.83536    0.16926    51.00000

 Normal termination of Gaussian 16 at Wed Dec  9 23:29:44 2020.
