 Gaussian 16, Revision A.03,

 -----------------------------------------------------------
 # opt freq B3LYP/6-31G(d) empiricaldispersion=gd3bj scf=xqc
 -----------------------------------------------------------

 -------------------------------
 CID_117339364_JID_7829_neutraal
 -------------------------------
 Symbolic Z-matrix:
 Charge =  0 Multiplicity = 1

 SCF Done:  E(RB3LYP) =  -715.454339725     A.U. after   14 cycles
 SCF Done:  E(RB3LYP) =  -715.459540451     A.U. after   12 cycles
 SCF Done:  E(RB3LYP) =  -715.459834273     A.U. after   12 cycles
 SCF Done:  E(RB3LYP) =  -715.460654660     A.U. after   12 cycles
 SCF Done:  E(RB3LYP) =  -715.461102129     A.U. after   11 cycles
 SCF Done:  E(RB3LYP) =  -715.461355913     A.U. after   11 cycles
 SCF Done:  E(RB3LYP) =  -715.461614447     A.U. after   12 cycles
 SCF Done:  E(RB3LYP) =  -715.421794404     A.U. after   13 cycles
 SCF Done:  E(RB3LYP) =  -715.437261592     A.U. after   13 cycles
 SCF Done:  E(RB3LYP) =  -715.461615463     A.U. after    8 cycles
 SCF Done:  E(RB3LYP) =  -715.463773974     A.U. after    8 cycles
 SCF Done:  E(RB3LYP) =  -715.463776008     A.U. after    9 cycles
 SCF Done:  E(RB3LYP) =  -715.463776143     A.U. after    6 cycles
 SCF Done:  E(RB3LYP) =  -715.463776224     A.U. after    6 cycles
 SCF Done:  E(RB3LYP) =  -715.463776283     A.U. after    7 cycles
 Optimization completed.
    -- Stationary point found.
 Normal termination of Gaussian 16 at Fri Dec 11 14:13:19 2020.

 --------------------------------------------------------------------
 #N Geom=AllCheck Guess=TCheck SCRF=Check GenChk RB3LYP/6-31G(d) Freq
 --------------------------------------------------------------------

 Structure from the checkpoint file:  "JID_7829.chk"
 -------------------------------
 CID_117339364_JID_7829_neutraal
 -------------------------------
 Charge =  0 Multiplicity = 1

 SCF Done:  E(RB3LYP) =  -715.463776283     A.U. after    1 cycles

  Exact polarizability: 170.306  -1.743 185.338 -18.478  -2.388 132.539
 Approx polarizability: 230.563  -4.171 272.969 -41.712  -7.137 208.436

                      1                      2                      3
                      A                      A                      A
 Frequencies --     32.5775                38.5164                41.5962
 Red. masses --      2.9910                 1.0641                 3.1982
 Frc consts  --      0.0019                 0.0009                 0.0033
 IR Inten    --      0.8160                 0.1352                 0.1831

                      4                      5                      6
                      A                      A                      A
 Frequencies --     52.6382                59.7065                74.5737
 Red. masses --      3.5879                 3.4037                 1.6255
 Frc consts  --      0.0059                 0.0071                 0.0053
 IR Inten    --      0.5687                 0.2981                 0.9342

                      7                      8                      9
                      A                      A                      A
 Frequencies --     87.8573               118.0591               133.2868
 Red. masses --      3.2139                 3.2205                 1.5084
 Frc consts  --      0.0146                 0.0264                 0.0158
 IR Inten    --      0.2692                 0.0513                 0.1799

                     10                     11                     12
                      A                      A                      A
 Frequencies --    200.7614               207.5060               225.7075
 Red. masses --      2.7661                 2.7457                 3.3383
 Frc consts  --      0.0657                 0.0697                 0.1002
 IR Inten    --      1.3649                 1.8966                 0.6540

                     13                     14                     15
                      A                      A                      A
 Frequencies --    234.7174               252.9759               257.3389
 Red. masses --      1.7056                 1.8436                 1.3182
 Frc consts  --      0.0554                 0.0695                 0.0514
 IR Inten    --      0.1671                 1.2474                31.5898

                     16                     17                     18
                      A                      A                      A
 Frequencies --    281.8300               290.5524               323.8962
 Red. masses --      2.0461                 2.2782                 2.9997
 Frc consts  --      0.0958                 0.1133                 0.1854
 IR Inten    --     11.8711                 0.5917                 3.7079

                     19                     20                     21
                      A                      A                      A
 Frequencies --    355.7694               372.7911               393.6183
 Red. masses --      3.0032                 2.4504                 3.4837
 Frc consts  --      0.2240                 0.2006                 0.3180
 IR Inten    --      5.4379                 8.2100                 7.2167

                     22                     23                     24
                      A                      A                      A
 Frequencies --    411.6261               446.6502               477.9376
 Red. masses --      2.4062                 2.1283                 4.9593
 Frc consts  --      0.2402                 0.2502                 0.6674
 IR Inten    --      6.8542                 3.8140                 1.2589

                     25                     26                     27
                      A                      A                      A
 Frequencies --    509.8196               515.0939               565.8685
 Red. masses --      3.5894                 3.2150                 3.9649
 Frc consts  --      0.5497                 0.5026                 0.7480
 IR Inten    --      6.1722                 3.0409                 0.5075

                     28                     29                     30
                      A                      A                      A
 Frequencies --    594.0478               606.6588               660.9166
 Red. masses --      4.3361                 2.9981                 4.2618
 Frc consts  --      0.9015                 0.6501                 1.0968
 IR Inten    --      0.6438                 1.2445                 7.7174

                     31                     32                     33
                      A                      A                      A
 Frequencies --    737.6040               780.2762               786.5142
 Red. masses --      3.9878                 1.4706                 2.2444
 Frc consts  --      1.2783                 0.5275                 0.8180
 IR Inten    --      2.8379                 2.7428                 2.5944

                     34                     35                     36
                      A                      A                      A
 Frequencies --    827.2680               836.0120               854.1976
 Red. masses --      1.6461                 2.5275                 1.8461
 Frc consts  --      0.6637                 1.0408                 0.7936
 IR Inten    --      1.4927                 1.2916                14.4610

                     37                     38                     39
                      A                      A                      A
 Frequencies --    880.6034               900.4226               908.1745
 Red. masses --      1.3120                 1.4628                 1.4082
 Frc consts  --      0.5994                 0.6987                 0.6843
 IR Inten    --     11.5040                 1.4148                 5.1819

                     40                     41                     42
                      A                      A                      A
 Frequencies --    922.5495               926.3851               955.3376
 Red. masses --      1.5316                 1.8759                 2.2891
 Frc consts  --      0.7680                 0.9485                 1.2309
 IR Inten    --    153.1503                 6.5275                 7.6369

                     43                     44                     45
                      A                      A                      A
 Frequencies --    967.5877               978.4089               988.6801
 Red. masses --      1.7348                 2.0394                 3.5152
 Frc consts  --      0.9569                 1.1502                 2.0245
 IR Inten    --      3.4615                 0.9882                 1.7260

                     46                     47                     48
                      A                      A                      A
 Frequencies --   1034.8044              1043.4238              1045.2971
 Red. masses --      4.0513                 1.5879                 2.4426
 Frc consts  --      2.5560                 1.0186                 1.5725
 IR Inten    --     99.9506                 0.3149                57.5942

                     49                     50                     51
                      A                      A                      A
 Frequencies --   1048.4953              1061.4718              1071.4229
 Red. masses --      1.4903                 1.9503                 1.4556
 Frc consts  --      0.9653                 1.2947                 0.9845
 IR Inten    --      1.6065                 1.4585                 9.3528

                     52                     53                     54
                      A                      A                      A
 Frequencies --   1075.3655              1077.9412              1088.2281
 Red. masses --      1.5076                 1.4953                 1.3620
 Frc consts  --      1.0272                 1.0237                 0.9503
 IR Inten    --      9.9522                 4.5832                 2.0191

                     55                     56                     57
                      A                      A                      A
 Frequencies --   1105.2472              1147.3450              1170.7415
 Red. masses --      2.1273                 1.1149                 1.9193
 Frc consts  --      1.5311                 0.8647                 1.5499
 IR Inten    --     18.9673                 1.6679                27.9543

                     58                     59                     60
                      A                      A                      A
 Frequencies --   1181.6683              1201.6493              1208.0726
 Red. masses --      1.7586                 1.6903                 1.6628
 Frc consts  --      1.4468                 1.4381                 1.4298
 IR Inten    --     34.5794                11.6330                 4.6844

                     61                     62                     63
                      A                      A                      A
 Frequencies --   1209.9410              1233.0708              1248.7218
 Red. masses --      1.4309                 1.8347                 2.2866
 Frc consts  --      1.2342                 1.6435                 2.1008
 IR Inten    --      0.9082                26.3272                76.0674

                     64                     65                     66
                      A                      A                      A
 Frequencies --   1278.8480              1295.6850              1326.4993
 Red. masses --      1.4298                 1.4112                 1.4609
 Frc consts  --      1.3777                 1.3959                 1.5146
 IR Inten    --      5.0206                 0.1675                 2.3170

                     67                     68                     69
                      A                      A                      A
 Frequencies --   1342.0764              1345.4550              1374.4135
 Red. masses --      3.4592                 3.0491                 1.7273
 Frc consts  --      3.6710                 3.2521                 1.9224
 IR Inten    --     14.3388                 3.8903                 6.6779

                     70                     71                     72
                      A                      A                      A
 Frequencies --   1389.7445              1394.1463              1420.8430
 Red. masses --      1.3500                 1.3289                 1.3296
 Frc consts  --      1.5362                 1.5218                 1.5815
 IR Inten    --      9.1064                 3.0546                17.8301

                     73                     74                     75
                      A                      A                      A
 Frequencies --   1436.6459              1437.5725              1443.3699
 Red. masses --      1.2517                 1.2590                 1.2677
 Frc consts  --      1.5221                 1.5330                 1.5560
 IR Inten    --      8.8785                 2.7586                 0.0718

                     76                     77                     78
                      A                      A                      A
 Frequencies --   1450.5305              1466.7575              1496.9224
 Red. masses --      1.4669                 2.8666                 1.0914
 Frc consts  --      1.8185                 3.6335                 1.4409
 IR Inten    --     18.4382                 0.2321                 1.5820

                     79                     80                     81
                      A                      A                      A
 Frequencies --   1503.2598              1509.8924              1512.1006
 Red. masses --      1.7016                 1.0870                 1.0971
 Frc consts  --      2.2656                 1.4600                 1.4779
 IR Inten    --     23.0877                 1.5726                 9.3515

                     82                     83                     84
                      A                      A                      A
 Frequencies --   1518.2496              1519.5712              1522.8284
 Red. masses --      1.0497                 1.1159                 1.0977
 Frc consts  --      1.4256                 1.5182                 1.4998
 IR Inten    --      5.2939                 1.3389                 0.1198

                     85                     86                     87
                      A                      A                      A
 Frequencies --   1528.4066              1530.6583              1537.5313
 Red. masses --      1.1820                 1.0538                 1.3264
 Frc consts  --      1.6268                 1.4546                 1.8475
 IR Inten    --     10.4261                 9.9890                 4.9095

                     88                     89                     90
                      A                      A                      A
 Frequencies --   1543.7583              1645.1747              1665.3223
 Red. masses --      1.4154                 6.8903                 5.5213
 Frc consts  --      1.9873                10.9879                 9.0218
 IR Inten    --     35.7760                 1.0797                 4.0933

                     91                     92                     93
                      A                      A                      A
 Frequencies --   1695.6307              3026.2540              3038.2892
 Red. masses --      1.0917                 1.0659                 1.0840
 Frc consts  --      1.8494                 5.7513                 5.8957
 IR Inten    --     23.0011                30.1099                15.1654

                     94                     95                     96
                      A                      A                      A
 Frequencies --   3039.3223              3041.7139              3055.6197
 Red. masses --      1.0407                 1.0367                 1.0385
 Frc consts  --      5.6642                 5.6510                 5.7129
 IR Inten    --     41.0412                23.2606                31.0538

                     97                     98                     99
                      A                      A                      A
 Frequencies --   3070.0280              3095.7183              3101.6036
 Red. masses --      1.0604                 1.0954                 1.0978
 Frc consts  --      5.8886                 6.1849                 6.2223
 IR Inten    --     27.1766                22.4222                43.1172

                    100                    101                    102
                      A                      A                      A
 Frequencies --   3106.3955              3111.3170              3117.7628
 Red. masses --      1.1029                 1.0985                 1.1019
 Frc consts  --      6.2702                 6.2650                 6.3106
 IR Inten    --     36.6786                25.1283                20.3773

                    103                    104                    105
                      A                      A                      A
 Frequencies --   3123.0598              3125.2028              3144.6691
 Red. masses --      1.1026                 1.1002                 1.1012
 Frc consts  --      6.3361                 6.3310                 6.4160
 IR Inten    --     16.7978                37.3007                 9.4552

                    106                    107                    108
                      A                      A                      A
 Frequencies --   3145.6087              3154.7067              3165.9726
 Red. masses --      1.0537                 1.0564                 1.0896
 Frc consts  --      6.1427                 6.1946                 6.4346
 IR Inten    --     20.7811                 9.4360                26.3170

                    109                    110                    111
                      A                      A                      A
 Frequencies --   3168.1330              3170.1353              3221.8391
 Red. masses --      1.0899                 1.0901                 1.1187
 Frc consts  --      6.4453                 6.4548                 6.8416
 IR Inten    --     14.3967                11.5646                 2.9385

                    112                    113                    114
                      A                      A                      A
 Frequencies --   3237.5344              3437.2766              3522.6835
 Red. masses --      1.1160                 1.0500                 1.0908
 Frc consts  --      6.8918                 7.3090                 7.9754
 IR Inten    --     18.2255                 4.9200                 2.1190

 - Thermochemistry -
 -------------------
 Temperature   298.150 Kelvin.  Pressure   1.00000 Atm.
 Atom     1 has atomic number  6 and mass  12.00000

 Molecular mass:   233.17796 amu.
 Principal axes and moments of inertia in atomic units:
                           1         2         3
     Eigenvalues --  3581.116184748.955906651.96458
           X            0.99995  -0.00917   0.00308
           Y            0.00918   0.99995  -0.00329
           Z           -0.00305   0.00331   0.99999
 This molecule is an asymmetric top.
 Rotational symmetry number  1.
 Warning -- assumption of classical behavior for rotation
           may cause significant error
 Rotational temperatures (Kelvin)      0.02419     0.01824     0.01302
 Rotational constants (GHZ):           0.50396     0.38003     0.27131
 Zero-point vibrational energy     932372.8 (Joules/Mol)
                                  222.84245 (Kcal/Mol)
 Warning -- explicit consideration of  29 degrees of freedom as
           vibrations may cause significant error
 Vibrational temperatures:     46.87    55.42    59.85    75.73    85.90
          (Kelvin)            107.29   126.41   169.86   191.77   288.85
                              298.55   324.74   337.71   363.98   370.25
                              405.49   418.04   466.01   511.87   536.36
                              566.33   592.24   642.63   687.65   733.52
                              741.11   814.16   854.70   872.85   950.91
                             1061.25  1122.64  1131.62  1190.25  1202.83
                             1229.00  1266.99  1295.51  1306.66  1327.34
                             1332.86  1374.52  1392.14  1407.71  1422.49
                             1488.85  1501.25  1503.95  1508.55  1527.22
                             1541.54  1547.21  1550.92  1565.72  1590.20
                             1650.77  1684.44  1700.16  1728.91  1738.15
                             1740.84  1774.11  1796.63  1839.98  1864.20
                             1908.54  1930.95  1935.81  1977.47  1999.53
                             2005.87  2044.28  2067.01  2068.35  2076.69
                             2086.99  2110.34  2153.74  2162.86  2172.40
                             2175.58  2184.42  2186.32  2191.01  2199.04
                             2202.28  2212.16  2221.12  2367.04  2396.03
                             2439.63  4354.10  4371.42  4372.91  4376.35
                             4396.36  4417.09  4454.05  4462.52  4469.41
                             4476.49  4485.77  4493.39  4496.47  4524.48
                             4525.83  4538.92  4555.13  4558.24  4561.12
                             4635.51  4658.09  4945.47  5068.36

 Zero-point correction=                           0.355122 (Hartree/Particle)
 Thermal correction to Energy=                    0.373822
 Thermal correction to Enthalpy=                  0.374766
 Thermal correction to Gibbs Free Energy=         0.307037
 Sum of electronic and zero-point Energies=           -715.108654
 Sum of electronic and thermal Energies=              -715.089954
 Sum of electronic and thermal Enthalpies=            -715.089010
 Sum of electronic and thermal Free Energies=         -715.156739

                     E (Thermal)             CV                S
                      KCal/Mol        Cal/Mol-Kelvin    Cal/Mol-Kelvin
 Total                  234.577             69.837            142.547
 Electronic               0.000              0.000              0.000
 Translational            0.889              2.981             42.242
 Rotational               0.889              2.981             33.092
 Vibrational            232.799             63.876             67.213
 Vibration     1          0.594              1.983              5.666
 Vibration     2          0.594              1.981              5.334
 Vibration     3          0.594              1.981              5.182
 Vibration     4          0.596              1.977              4.716
 Vibration     5          0.597              1.974              4.467
 Vibration     6          0.599              1.966              4.029
 Vibration     7          0.601              1.958              3.707
 Vibration     8          0.608              1.934              3.132
 Vibration     9          0.613              1.920              2.898
 Vibration    10          0.638              1.839              2.126
 Vibration    11          0.641              1.829              2.066
 Vibration    12          0.650              1.802              1.913
 Vibration    13          0.655              1.788              1.843
 Vibration    14          0.664              1.758              1.710
 Vibration    15          0.667              1.750              1.680
 Vibration    16          0.681              1.707              1.523
 Vibration    17          0.687              1.691              1.471
 Vibration    18          0.708              1.628              1.290
 Vibration    19          0.731              1.563              1.141
 Vibration    20          0.744              1.528              1.068
 Vibration    21          0.761              1.484              0.986
 Vibration    22          0.776              1.445              0.921
 Vibration    23          0.806              1.368              0.806
 Vibration    24          0.834              1.299              0.716
 Vibration    25          0.865              1.228              0.634
 Vibration    26          0.870              1.217              0.621
 Vibration    27          0.922              1.105              0.512
 Vibration    28          0.952              1.044              0.460
 Vibration    29          0.965              1.018              0.438

 Optimization completed.
    -- Stationary point found.
 Normal termination of Gaussian 16 at Fri Dec 11 14:31:59 2020.

 ----------------------------------------------------------------------
 # B3LYP/6-311++G(d,p) empiricaldispersion=gd3bj scf=xqc pop=npa geom=c
 heck
 ----------------------------------------------------------------------

 ---------------------------------------
 CID_117339364_JID_7829_Energie_neutraal
 ---------------------------------------
 Structure from the checkpoint file:  "JID_7829.chk"
 Charge =  0 Multiplicity = 1

 SCF Done:  E(RB3LYP) =  -715.662638389     A.U. after   14 cycles
 Normal termination of Gaussian 16 at Fri Dec 11 14:40:52 2020.

 ----------------------------------------------------------------------
 # B3LYP/6-311++G(d,p) empiricaldispersion=gd3bj scf=xqc pop=npa geom=c
 heck
 ----------------------------------------------------------------------

 -------------------------------------
 CID_117339364_JID_7829_Energie_kation
 -------------------------------------
 Structure from the checkpoint file:  "JID_7829.chk"
 Charge =  1 Multiplicity = 2

 SCF Done:  E(UB3LYP) =  -715.376682094     A.U. after   25 cycles
 Normal termination of Gaussian 16 at Fri Dec 11 15:03:18 2020.
 Gaussian 16:  ES64L-G16RevA.03 25-Dec-2016

 ----------------------------------------------------------------------
 # B3LYP/6-311++G(d,p) empiricaldispersion=gd3bj scf=xqc pop=npa geom=c
 heck
 ----------------------------------------------------------------------

 ------------------------------------
 CID_117339364_JID_7829_Energie_anion
 ------------------------------------
 Structure from the checkpoint file:  "JID_7829.chk"
 Charge = -1 Multiplicity = 2

                         Standard orientation:
 ---------------------------------------------------------------------
 Center     Atomic      Atomic             Coordinates (Angstroms)
 Number     Number       Type             X           Y           Z
 ---------------------------------------------------------------------
      1          6           0        0.716507    4.009485   -0.962007
      2          6           0        0.404543    2.632196   -0.428616
      3          6           0       -0.603654    2.440471    0.520823
      4          6           0       -0.944653    1.171135    0.993788
      5          6           0       -0.239274    0.063511    0.497030
      6          6           0        0.818903    0.222139   -0.411009
      7          6           0        1.109850    1.511383   -0.870446
      8          6           0        1.708958   -0.927017   -0.822058
      9          6           0        3.045564   -0.951034   -0.051925
     10          6           0        2.835557   -1.081760    1.461990
     11          7           0        3.880536   -2.012533   -0.637891
     12          8           0       -0.551758   -1.199336    0.980485
     13          6           0       -1.348013   -2.013745    0.104473
     14          6           0       -2.762668   -1.530812   -0.079923
     15          6           0       -3.067977   -0.485415   -1.125062
     16          6           0       -3.496743   -1.912150   -1.344989
     17          6           0       -2.032048    1.001511    2.024316
     18          1           0        0.071632    4.263375   -1.813922
     19          1           0        0.561098    4.779146   -0.198265
     20          1           0        1.753292    4.079203   -1.307294
     21          1           0       -1.143562    3.303539    0.905762
     22          1           0        1.924374    1.638935   -1.581121
     23          1           0        1.211115   -1.887069   -0.656658
     24          1           0        1.944483   -0.862877   -1.889816
     25          1           0        3.562730   -0.002700   -0.251391
     26          1           0        2.276292   -1.995930    1.695841
     27          1           0        3.800506   -1.124269    1.981733
     28          1           0        2.268775   -0.236398    1.865375
     29          1           0        4.780988   -2.030292   -0.158684
     30          1           0        3.448940   -2.915647   -0.433355
     31          1           0       -0.863016   -2.090830   -0.878901
     32          1           0       -1.333042   -3.005271    0.568043
     33          1           0       -3.351723   -1.499122    0.833428
     34          1           0       -3.828252    0.256615   -0.899557
     35          1           0       -2.235567   -0.103135   -1.708450
     36          1           0       -2.960018   -2.497562   -2.087726
     37          1           0       -4.551694   -2.157495   -1.267242
     38          1           0       -2.143699    1.911889    2.621720
     39          1           0       -2.999283    0.794323    1.551455
     40          1           0       -1.813160    0.164606    2.692076
 ---------------------------------------------------------------------

 SCF Done:  E(UB3LYP) =  -715.647473193     A.U. after   33 cycles
 SCF Done:  E(UB3LYP) =  -715.647473193     a.u. after    1 cycles

 The electronic state is 2-A.
 Alpha  occ. eigenvalues --  -19.04134 -14.19932 -10.13305 -10.12646 -10.10611
 Alpha  occ. eigenvalues --  -10.08858 -10.08753 -10.08684 -10.08617 -10.08514
 Alpha  occ. eigenvalues --  -10.08082 -10.07771 -10.07562 -10.07488 -10.07407
 Alpha  occ. eigenvalues --  -10.06915 -10.05920  -0.95656  -0.79710  -0.77449
 Alpha  occ. eigenvalues --   -0.76582  -0.69651  -0.68852  -0.64207  -0.62649
 Alpha  occ. eigenvalues --   -0.60355  -0.58619  -0.57185  -0.51443  -0.51204
 Alpha  occ. eigenvalues --   -0.49326  -0.47573  -0.47220  -0.43598  -0.40832
 Alpha  occ. eigenvalues --   -0.39697  -0.39217  -0.37786  -0.37059  -0.36190
 Alpha  occ. eigenvalues --   -0.34895  -0.33759  -0.33166  -0.32529  -0.31859
 Alpha  occ. eigenvalues --   -0.31426  -0.30749  -0.30509  -0.30124  -0.28513
 Alpha  occ. eigenvalues --   -0.27894  -0.27680  -0.27173  -0.26433  -0.25151
 Alpha  occ. eigenvalues --   -0.24529  -0.24394  -0.23235  -0.21171  -0.20329
 Alpha  occ. eigenvalues --   -0.18456  -0.15589  -0.14689  -0.13554   0.04174
 Alpha virt. eigenvalues --    0.05688   0.05995   0.06985   0.07234   0.07731
 Alpha virt. eigenvalues --    0.07981   0.08461   0.08703   0.08843   0.09342
 Alpha virt. eigenvalues --    0.10123   0.10335   0.10807   0.10966   0.11326

  Beta  occ. eigenvalues --  -19.04132 -14.19901 -10.13294 -10.12643 -10.10603
  Beta  occ. eigenvalues --  -10.08848 -10.08752 -10.08681 -10.08616 -10.08494
  Beta  occ. eigenvalues --  -10.08066 -10.07746 -10.07555 -10.07480 -10.07397
  Beta  occ. eigenvalues --  -10.06897 -10.05900  -0.95650  -0.79662  -0.77428
  Beta  occ. eigenvalues --   -0.76570  -0.69632  -0.68836  -0.64172  -0.62623
  Beta  occ. eigenvalues --   -0.60322  -0.58592  -0.57156  -0.51388  -0.51166
  Beta  occ. eigenvalues --   -0.49293  -0.47542  -0.47189  -0.43573  -0.40811
  Beta  occ. eigenvalues --   -0.39661  -0.39170  -0.37755  -0.37037  -0.36161
  Beta  occ. eigenvalues --   -0.34865  -0.33733  -0.33140  -0.32500  -0.31836
  Beta  occ. eigenvalues --   -0.31405  -0.30721  -0.30486  -0.30099  -0.28489
  Beta  occ. eigenvalues --   -0.27869  -0.27655  -0.27151  -0.26409  -0.25131
  Beta  occ. eigenvalues --   -0.24512  -0.24369  -0.23215  -0.21148  -0.20305
  Beta  occ. eigenvalues --   -0.18446  -0.15560  -0.14670  -0.13540
  Beta virt. eigenvalues --    0.06060   0.06625   0.06702   0.07279   0.07460
  Beta virt. eigenvalues --    0.07981   0.08383   0.08729   0.08991   0.09077
  Beta virt. eigenvalues --    0.09569   0.10390   0.10740   0.11065   0.11254

 Mulliken charges and spin densities:
               1          2
     1  C    0.806840  -1.352839
     2  C   -0.154357   0.179821
     3  C   -0.052642  -0.265640
     4  C   -0.514586   0.892992
     5  C    0.014488   0.163144
     6  C    0.355793  -0.107155
     7  C   -0.777892   0.137911
     8  C    0.135288  -0.118346
     9  C   -0.093816  -0.458804
    10  C   -0.243992  -0.333309
    11  N   -0.362684   0.108664
    12  O   -0.110102   0.020419
    13  C    0.160661  -0.617266
    14  C   -0.647426   0.844819
    15  C    0.243902  -0.683905
    16  C    0.391385  -0.798010
    17  C    0.891904  -1.477623
    18  H   -0.070161   0.243627
    19  H   -0.094050   0.236608
    20  H   -0.142530   0.283306
    21  H   -0.225429   0.406199
    22  H    0.064533   0.093852
    23  H   -0.137609   0.298856
    24  H    0.074995   0.141527
    25  H    0.013001   0.158201
    26  H    0.123853   0.035284
    27  H   -0.239705   0.384603
    28  H    0.116635   0.018822
    29  H   -0.069070   0.293644
    30  H    0.033148   0.167540
    31  H    0.243840  -0.154128
    32  H   -0.115543   0.295753
    33  H   -0.029411   0.252472
    34  H   -0.144379   0.316045
    35  H    0.197572  -0.052760
    36  H   -0.075421   0.208371
    37  H   -0.293618   0.451200
    38  H   -0.121305   0.261783
    39  H   -0.165818   0.358112
    40  H    0.013706   0.166210
 Sum of Mulliken charges =  -1.00000   1.00000

 Dipole moment (field-independent basis, Debye):
    X=              0.3075    Y=             -0.0050    Z=             -0.4602  Tot=              0.5535
 Quadrupole moment (field-independent basis, Debye-Ang):
   XX=           -193.5523   YY=           -163.8803   ZZ=           -142.4064
   XY=              5.1650   XZ=              1.1101   YZ=             -0.1197

 Summary of Natural Population Analysis:

                                       Natural Population
                Natural  -----------------------------------------------
    Atom  No    Charge         Core      Valence    Rydberg      Total
 -----------------------------------------------------------------------
      C    1   -0.29000      0.99964     2.28540    0.00496     3.29000
      C    2   -0.01662      0.99951     2.00799    0.00911     3.01662
      C    3   -0.09967      0.99947     2.09106    0.00914     3.09967
      C    4   -0.02355      0.99946     2.01416    0.00992     3.02355
      C    5    0.15074      0.99925     1.83612    0.01388     2.84926
      C    6   -0.02693      0.99946     2.01748    0.00999     3.02693
      C    7   -0.10113      0.99947     2.09270    0.00895     3.10113
      C    8   -0.20159      0.99957     2.19156    0.01045     3.20159
      C    9   -0.00916      0.99961     1.99823    0.01133     3.00916
      C   10   -0.29570      0.99964     2.28980    0.00626     3.29570
      N   11   -0.42086      0.99977     2.91063    0.01046     3.92086
      O   12   -0.29671      0.99987     3.28783    0.00902     4.29671
      C   13   -0.00662      0.99951     1.99450    0.01261     3.00662
      C   14   -0.13451      0.99959     2.12371    0.01121     3.13451
      C   15   -0.19642      0.99962     2.18726    0.00954     3.19642
      C   16   -0.19616      0.99962     2.18771    0.00883     3.19616
      C   17   -0.29389      0.99963     2.28827    0.00599     3.29389
      H   18    0.10357      0.00000     0.39525    0.00117     0.39643
      H   19    0.10267      0.00000     0.39622    0.00111     0.39733
      H   20    0.10181      0.00000     0.39714    0.00106     0.39819
      H   21    0.09751      0.00000     0.40113    0.00135     0.40249
      H   22    0.09750      0.00000     0.40105    0.00145     0.40250
      H   23    0.10165      0.00000     0.39664    0.00171     0.39835
      H   24    0.10780      0.00000     0.39089    0.00131     0.39220
      H   25    0.08749      0.00000     0.41067    0.00184     0.41251
      H   26    0.09883      0.00000     0.39967    0.00149     0.40117
      H   27    0.09650      0.00000     0.40227    0.00123     0.40350
      H   28    0.10500      0.00000     0.39395    0.00105     0.39500
      H   29    0.17461      0.00000     0.32343    0.00196     0.32539
      H   30    0.16979      0.00000     0.32828    0.00193     0.33021
      H   31    0.08084      0.00000     0.41750    0.00165     0.41916
      H   32    0.09312      0.00000     0.40570    0.00119     0.40688
      H   33    0.10673      0.00000     0.39178    0.00149     0.39327
      H   34    0.10567      0.00000     0.39310    0.00123     0.39433
      H   35    0.10534      0.00000     0.39333    0.00134     0.39466
      H   36    0.09984      0.00000     0.39931    0.00085     0.40016
      H   37    0.10529      0.00000     0.39352    0.00118     0.39471
      H   38    0.10079      0.00000     0.39839    0.00083     0.39921
      H   39    0.10733      0.00000     0.39126    0.00141     0.39267
      H   40    0.10907      0.00000     0.38970    0.00124     0.39093
 =======================================================================
   * Total *    0.00000     16.99271    46.81457    0.19272    64.00000

 Normal termination of Gaussian 16 at Fri Dec 11 15:32:40 2020.
