 Gaussian 16, Revision A.03,

 -----------------------------------------------------------
 # opt freq B3LYP/6-31G(d) empiricaldispersion=gd3bj scf=xqc
 -----------------------------------------------------------

 -------------------------------
 CID_142068954_JID_5962_neutraal
 -------------------------------
 Symbolic Z-matrix:
 Charge =  0 Multiplicity = 1

 SCF Done:  E(RB3LYP) =  -600.955745216     A.U. after   14 cycles
 SCF Done:  E(RB3LYP) =  -600.959042287     A.U. after   12 cycles
 SCF Done:  E(RB3LYP) =  -600.959202633     A.U. after   11 cycles
 SCF Done:  E(RB3LYP) =  -600.959684362     A.U. after   10 cycles
 SCF Done:  E(RB3LYP) =  -600.959707815     A.U. after    9 cycles
 SCF Done:  E(RB3LYP) =  -600.959710083     A.U. after    9 cycles
 SCF Done:  E(RB3LYP) =  -600.959711891     A.U. after    8 cycles
 SCF Done:  E(RB3LYP) =  -600.959712128     A.U. after    7 cycles
 SCF Done:  E(RB3LYP) =  -600.959712203     A.U. after    6 cycles
 SCF Done:  E(RB3LYP) =  -600.959712233     A.U. after    6 cycles
 Optimization completed.
    -- Stationary point found.
 Normal termination of Gaussian 16 at Thu Dec 10 17:46:37 2020.

 --------------------------------------------------------------------
 #N Geom=AllCheck Guess=TCheck SCRF=Check GenChk RB3LYP/6-31G(d) Freq
 --------------------------------------------------------------------

 Structure from the checkpoint file:  "JID_5962.chk"
 -------------------------------
 CID_142068954_JID_5962_neutraal
 -------------------------------
 Charge =  0 Multiplicity = 1

 SCF Done:  E(RB3LYP) =  -600.959712233     A.U. after    1 cycles

  Exact polarizability: 167.463  10.133 152.833  17.815  -8.565 117.269
 Approx polarizability: 231.893  19.239 234.825  41.003 -21.557 192.862

                      1                      2                      3
                      A                      A                      A
 Frequencies --     65.8631                90.4250               123.4814
 Red. masses --      3.7119                 2.8709                 2.4716
 Frc consts  --      0.0095                 0.0138                 0.0222
 IR Inten    --      0.1067                 0.2745                 0.8330

                      4                      5                      6
                      A                      A                      A
 Frequencies --    165.8614               190.5030               196.7528
 Red. masses --      2.1110                 1.9314                 2.4929
 Frc consts  --      0.0342                 0.0413                 0.0569
 IR Inten    --      0.7484                 0.8972                 0.0712

                      7                      8                      9
                      A                      A                      A
 Frequencies --    233.0309               267.3779               268.8054
 Red. masses --      1.9624                 1.1177                 2.2278
 Frc consts  --      0.0628                 0.0471                 0.0948
 IR Inten    --      0.3530                 0.1431                 0.9855

                     10                     11                     12
                      A                      A                      A
 Frequencies --    278.6380               303.5230               328.9287
 Red. masses --      2.7838                 1.4162                 2.1210
 Frc consts  --      0.1273                 0.0769                 0.1352
 IR Inten    --      0.2635                 0.3212                 0.1557

                     13                     14                     15
                      A                      A                      A
 Frequencies --    342.3553               355.8777               387.2011
 Red. masses --      2.5218                 2.3473                 2.8738
 Frc consts  --      0.1741                 0.1752                 0.2539
 IR Inten    --      0.4861                 0.2587                 1.5830

                     16                     17                     18
                      A                      A                      A
 Frequencies --    408.2138               419.7209               452.8204
 Red. masses --      2.1631                 2.2203                 2.4932
 Frc consts  --      0.2124                 0.2305                 0.3012
 IR Inten    --      0.0120                 1.1010                 2.4766

                     19                     20                     21
                      A                      A                      A
 Frequencies --    474.8746               526.6003               558.6778
 Red. masses --      3.1214                 2.8334                 3.5254
 Frc consts  --      0.4147                 0.4629                 0.6483
 IR Inten    --      1.0038                 0.8210                 6.0344

                     22                     23                     24
                      A                      A                      A
 Frequencies --    574.6421               598.7686               641.6631
 Red. masses --      4.2874                 3.2397                 2.7348
 Frc consts  --      0.8341                 0.6843                 0.6634
 IR Inten    --      8.1857                 3.8753                 1.5270

                     25                     26                     27
                      A                      A                      A
 Frequencies --    681.0948               733.2795               767.7601
 Red. masses --      3.0848                 3.5340                 1.9400
 Frc consts  --      0.8431                 1.1196                 0.6738
 IR Inten    --     11.3754                 3.8068                12.8241

                     28                     29                     30
                      A                      A                      A
 Frequencies --    775.7376               779.7306               812.3872
 Red. masses --      1.7584                 1.7670                 2.5844
 Frc consts  --      0.6234                 0.6330                 1.0049
 IR Inten    --     92.8918                 4.2295                11.0846

                     31                     32                     33
                      A                      A                      A
 Frequencies --    843.0787               877.4492               889.9097
 Red. masses --      2.6261                 1.6433                 2.0325
 Frc consts  --      1.0998                 0.7454                 0.9484
 IR Inten    --      1.0892                 1.1745                 7.4203

                     34                     35                     36
                      A                      A                      A
 Frequencies --    909.6580               941.9819               948.5175
 Red. masses --      2.3522                 1.3634                 1.7606
 Frc consts  --      1.1468                 0.7128                 0.9332
 IR Inten    --      6.5804                 2.4505                 2.7207

                     37                     38                     39
                      A                      A                      A
 Frequencies --    962.1732               966.8034               975.6783
 Red. masses --      1.5674                 1.6794                 1.2507
 Frc consts  --      0.8549                 0.9249                 0.7015
 IR Inten    --      2.3213                 5.6272                 0.0524

                     40                     41                     42
                      A                      A                      A
 Frequencies --    996.0710              1005.0461              1054.4387
 Red. masses --      1.7174                 1.8460                 1.6545
 Frc consts  --      1.0039                 1.0986                 1.0839
 IR Inten    --      2.1799                 3.0513                 8.3868

                     43                     44                     45
                      A                      A                      A
 Frequencies --   1057.6867              1076.5579              1101.1580
 Red. masses --      1.6221                 2.1140                 1.9735
 Frc consts  --      1.0691                 1.4436                 1.4099
 IR Inten    --      6.0612                 3.3444                 0.6530

                     46                     47                     48
                      A                      A                      A
 Frequencies --   1107.0270              1141.2706              1157.8720
 Red. masses --      2.9546                 2.5197                 1.7070
 Frc consts  --      2.1334                 1.9336                 1.3484
 IR Inten    --      9.6347                 4.6350                20.6807

                     49                     50                     51
                      A                      A                      A
 Frequencies --   1189.5228              1192.7425              1200.5486
 Red. masses --      2.2450                 1.0970                 1.7196
 Frc consts  --      1.8716                 0.9195                 1.4603
 IR Inten    --      4.3874                 0.3296                 6.6573

                     52                     53                     54
                      A                      A                      A
 Frequencies --   1225.6174              1233.9269              1273.7734
 Red. masses --      1.7294                 2.4448                 1.6567
 Frc consts  --      1.5306                 2.1932                 1.5837
 IR Inten    --      5.3861                 6.9900                 7.1689

                     55                     56                     57
                      A                      A                      A
 Frequencies --   1294.6965              1306.1062              1319.0145
 Red. masses --      1.8400                 1.7971                 2.1399
 Frc consts  --      1.8172                 1.8062                 2.1935
 IR Inten    --     40.4555                 9.5022                 4.3887

                     58                     59                     60
                      A                      A                      A
 Frequencies --   1342.5474              1360.4215              1368.6368
 Red. masses --      1.6833                 1.8815                 1.2739
 Frc consts  --      1.7876                 2.0517                 1.4060
 IR Inten    --      2.8697                 1.8158                 2.0435

                     61                     62                     63
                      A                      A                      A
 Frequencies --   1394.7513              1412.4401              1416.6950
 Red. masses --      1.2916                 1.3615                 1.3503
 Frc consts  --      1.4804                 1.6003                 1.5967
 IR Inten    --      0.7499                 4.1483                 0.0358

                     64                     65                     66
                      A                      A                      A
 Frequencies --   1427.8551              1428.5626              1442.4395
 Red. masses --      1.3626                 1.2313                 1.2319
 Frc consts  --      1.6368                 1.4805                 1.5101
 IR Inten    --      2.3525                 2.3088                 4.9991

                     67                     68                     69
                      A                      A                      A
 Frequencies --   1454.8719              1485.3859              1508.1093
 Red. masses --      1.2332                 1.5569                 1.1067
 Frc consts  --      1.5379                 2.0240                 1.4830
 IR Inten    --     12.8913                14.3476                 2.5648

                     70                     71                     72
                      A                      A                      A
 Frequencies --   1508.5240              1512.8179              1517.8704
 Red. masses --      1.1431                 1.2342                 1.2989
 Frc consts  --      1.5327                 1.6642                 1.7631
 IR Inten    --      1.3543                 2.6648                 6.8489

                     73                     74                     75
                      A                      A                      A
 Frequencies --   1524.3979              1525.1371              1528.4291
 Red. masses --      1.0660                 1.0609                 1.0848
 Frc consts  --      1.4594                 1.4539                 1.4931
 IR Inten    --      1.7780                 6.7017                17.6893

                     76                     77                     78
                      A                      A                      A
 Frequencies --   1536.5649              1542.5562              1548.1242
 Red. masses --      1.0611                 1.3770                 1.0836
 Frc consts  --      1.4761                 1.9305                 1.5302
 IR Inten    --      3.6516                13.5707                10.6404

                     79                     80                     81
                      A                      A                      A
 Frequencies --   1556.4099              1642.0116              1667.1227
 Red. masses --      1.5366                 4.9917                 5.4853
 Frc consts  --      2.1931                 7.9297                 8.9822
 IR Inten    --     33.2946                17.4121                 8.4870

                     82                     83                     84
                      A                      A                      A
 Frequencies --   3016.2595              3022.7413              3034.1454
 Red. masses --      1.0651                 1.0743                 1.0416
 Frc consts  --      5.7090                 5.7831                 5.6495
 IR Inten    --      7.1324                18.6087                18.7154

                     85                     86                     87
                      A                      A                      A
 Frequencies --   3035.0121              3041.0336              3047.3811
 Red. masses --      1.0742                 1.0502                 1.0527
 Frc consts  --      5.8300                 5.7225                 5.7598
 IR Inten    --     38.4730                47.5194                42.6575

                     88                     89                     90
                      A                      A                      A
 Frequencies --   3052.0525              3053.8142              3087.1600
 Red. masses --      1.0380                 1.0930                 1.0983
 Frc consts  --      5.6970                 6.0055                 6.1672
 IR Inten    --     34.9113                50.6515                 5.8176

                     91                     92                     93
                      A                      A                      A
 Frequencies --   3088.9985              3097.9070              3103.2036
 Red. masses --      1.0994                 1.1015                 1.1014
 Frc consts  --      6.1806                 6.2283                 6.2492
 IR Inten    --     35.1212                 7.9167                57.1316

                     94                     95                     96
                      A                      A                      A
 Frequencies --   3107.9221              3108.6718              3126.9710
 Red. masses --      1.1012                 1.1006                 1.1024
 Frc consts  --      6.2669                 6.2665                 6.3509
 IR Inten    --     11.1600                85.4466                25.9779

                     97                     98                     99
                      A                      A                      A
 Frequencies --   3158.0615              3169.1145              3185.1883
 Red. masses --      1.0961                 1.0872                 1.0869
 Frc consts  --      6.4406                 6.4334                 6.4969
 IR Inten    --     13.7877                13.4840                 6.5719

                    100                    101                    102
                      A                      A                      A
 Frequencies --   3198.8134              3209.5822              3604.3974
 Red. masses --      1.0919                 1.0975                 1.0718
 Frc consts  --      6.5826                 6.6610                 8.2041
 IR Inten    --     27.5616                25.5612                 8.6140

 - Thermochemistry -
 -------------------
 Temperature   298.150 Kelvin.  Pressure   1.00000 Atm.
 Atom     1 has atomic number  6 and mass  12.00000

 Molecular mass:   203.16740 amu.
 Principal axes and moments of inertia in atomic units:
                           1         2         3
     Eigenvalues --  2041.202593412.757944229.50993
           X            0.99986  -0.01675   0.00077
           Y            0.01674   0.99972   0.01649
           Z           -0.00105  -0.01647   0.99986
 This molecule is an asymmetric top.
 Rotational symmetry number  1.
 Warning -- assumption of classical behavior for rotation
           may cause significant error
 Rotational temperatures (Kelvin)      0.04243     0.02538     0.02048
 Rotational constants (GHZ):           0.88416     0.52882     0.42670
 Zero-point vibrational energy     856849.4 (Joules/Mol)
                                  204.79193 (Kcal/Mol)
 Warning -- explicit consideration of  23 degrees of freedom as
           vibrations may cause significant error
 Vibrational temperatures:     94.76   130.10   177.66   238.64   274.09
          (Kelvin)            283.08   335.28   384.70   386.75   400.90
                              436.70   473.25   492.57   512.03   557.10
                              587.33   603.88   651.51   683.24   757.66
                              803.81   826.78   861.49   923.21   979.94
                             1055.03  1104.64  1116.11  1121.86  1168.84
                             1213.00  1262.45  1280.38  1308.79  1355.30
                             1364.71  1384.35  1391.01  1403.78  1433.12
                             1446.04  1517.10  1521.78  1548.93  1584.32
                             1592.76  1642.03  1665.92  1711.46  1716.09
                             1727.32  1763.39  1775.35  1832.68  1862.78
                             1879.20  1897.77  1931.63  1957.34  1969.16
                             2006.74  2032.19  2038.31  2054.36  2055.38
                             2075.35  2093.24  2137.14  2169.83  2170.43
                             2176.61  2183.88  2193.27  2194.33  2199.07
                             2210.77  2219.39  2227.41  2239.33  2362.49
                             2398.62  4339.72  4349.05  4365.46  4366.71
                             4375.37  4384.50  4391.22  4393.76  4441.73
                             4444.38  4457.20  4464.82  4471.61  4472.69
                             4499.01  4543.75  4559.65  4582.78  4602.38
                             4617.87  5185.92

 Zero-point correction=                           0.326357 (Hartree/Particle)
 Thermal correction to Energy=                    0.340394
 Thermal correction to Enthalpy=                  0.341338
 Thermal correction to Gibbs Free Energy=         0.287296
 Sum of electronic and zero-point Energies=           -600.633356
 Sum of electronic and thermal Energies=              -600.619318
 Sum of electronic and thermal Enthalpies=            -600.618374
 Sum of electronic and thermal Free Energies=         -600.672416

                     E (Thermal)             CV                S
                      KCal/Mol        Cal/Mol-Kelvin    Cal/Mol-Kelvin
 Total                  213.600             58.087            113.742
 Electronic               0.000              0.000              0.000
 Translational            0.889              2.981             41.831
 Rotational               0.889              2.981             31.755
 Vibrational            211.823             52.126             40.156
 Vibration     1          0.597              1.971              4.273
 Vibration     2          0.602              1.956              3.651
 Vibration     3          0.610              1.929              3.045
 Vibration     4          0.624              1.884              2.482
 Vibration     5          0.634              1.853              2.223
 Vibration     6          0.636              1.844              2.163
 Vibration     7          0.654              1.790              1.855
 Vibration     8          0.672              1.733              1.613
 Vibration     9          0.673              1.731              1.604
 Vibration    10          0.679              1.713              1.542
 Vibration    11          0.695              1.667              1.397
 Vibration    12          0.712              1.618              1.265
 Vibration    13          0.721              1.591              1.201
 Vibration    14          0.731              1.563              1.140
 Vibration    15          0.756              1.498              1.011
 Vibration    16          0.773              1.452              0.933
 Vibration    17          0.782              1.427              0.893
 Vibration    18          0.811              1.355              0.787
 Vibration    19          0.832              1.306              0.724
 Vibration    20          0.882              1.191              0.595
 Vibration    21          0.914              1.121              0.526
 Vibration    22          0.931              1.086              0.495
 Vibration    23          0.957              1.034              0.452

 Optimization completed.
    -- Stationary point found.
 Normal termination of Gaussian 16 at Thu Dec 10 18:00:37 2020.

 ----------------------------------------------------------------------
 # B3LYP/6-311++G(d,p) empiricaldispersion=gd3bj scf=xqc pop=npa geom=c
 heck
 ----------------------------------------------------------------------

 ---------------------------------------
 CID_142068954_JID_5962_Energie_neutraal
 ---------------------------------------
 Structure from the checkpoint file:  "JID_5962.chk"
 Charge =  0 Multiplicity = 1

 SCF Done:  E(RB3LYP) =  -601.120169079     A.U. after   14 cycles
 Normal termination of Gaussian 16 at Thu Dec 10 18:06:48 2020.

 ----------------------------------------------------------------------
 # B3LYP/6-311++G(d,p) empiricaldispersion=gd3bj scf=xqc pop=npa geom=c
 heck
 ----------------------------------------------------------------------

 -------------------------------------
 CID_142068954_JID_5962_Energie_kation
 -------------------------------------
 Structure from the checkpoint file:  "JID_5962.chk"
 Charge =  1 Multiplicity = 2

 SCF Done:  E(UB3LYP) =  -600.845183656     A.U. after   21 cycles
 Normal termination of Gaussian 16 at Thu Dec 10 18:17:12 2020.
 Gaussian 16:  ES64L-G16RevA.03 25-Dec-2016

 ----------------------------------------------------------------------
 # B3LYP/6-311++G(d,p) empiricaldispersion=gd3bj scf=xqc pop=npa geom=c
 heck
 ----------------------------------------------------------------------

 ------------------------------------
 CID_142068954_JID_5962_Energie_anion
 ------------------------------------
 Structure from the checkpoint file:  "JID_5962.chk"
 Charge = -1 Multiplicity = 2

                         Standard orientation:
 ---------------------------------------------------------------------
 Center     Atomic      Atomic             Coordinates (Angstroms)
 Number     Number       Type             X           Y           Z
 ---------------------------------------------------------------------
      1          6           0       -0.336020    2.773576    1.054107
      2          6           0       -0.483207    1.908956   -0.214603
      3          6           0        0.863632    1.691660   -0.957028
      4          6           0        2.045134    0.931843   -0.314211
      5          6           0        2.027308   -0.622653   -0.226375
      6          6           0        1.391775   -1.109934    1.107883
      7          7           0        0.208193   -0.394817    1.583017
      8          6           0       -0.946631   -0.437401    0.761349
      9          6           0       -1.718275   -1.606746    0.771692
     10          6           0       -2.856312   -1.721158   -0.020271
     11          6           0       -3.253460   -0.646359   -0.816464
     12          6           0       -2.490613    0.520135   -0.819655
     13          6           0       -1.322528    0.647000   -0.055834
     14          6           0        1.326101   -1.256279   -1.441124
     15          6           0        3.489604   -1.111114   -0.213323
     16          1           0        0.368236    2.375490    1.792260
     17          1           0       -1.302434    2.894526    1.553671
     18          1           0        0.034602    3.768637    0.781258
     19          1           0       -1.060222    2.535520   -0.907093
     20          1           0        1.239679    2.698000   -1.188947
     21          1           0        0.636891    1.231463   -1.925095
     22          1           0        2.266860    1.344427    0.681130
     23          1           0        2.917419    1.197657   -0.925754
     24          1           0        1.145982   -2.174947    1.023303
     25          1           0        2.141045   -1.022405    1.904791
     26          1           0        0.463717    0.562115    1.784940
     27          1           0       -1.409982   -2.418624    1.423996
     28          1           0       -3.440525   -2.637067   -0.001118
     29          1           0       -4.147408   -0.714116   -1.429661
     30          1           0       -2.792558    1.352296   -1.452082
     31          1           0        1.784286   -0.912483   -2.377003
     32          1           0        1.427893   -2.347519   -1.405486
     33          1           0        0.260207   -1.025209   -1.480728
     34          1           0        4.069635   -0.606302    0.569198
     35          1           0        3.541799   -2.190531   -0.024581
     36          1           0        3.978472   -0.916368   -1.174980
 ---------------------------------------------------------------------

 SCF Done:  E(UB3LYP) =  -601.105890937     A.U. after   33 cycles
 SCF Done:  E(UB3LYP) =  -601.105890937     a.u. after    1 cycles

 The electronic state is 2-A.
 Alpha  occ. eigenvalues --  -14.20707 -10.10623 -10.09578 -10.08306 -10.08183
 Alpha  occ. eigenvalues --  -10.07908 -10.07825 -10.07452 -10.07356 -10.07245
 Alpha  occ. eigenvalues --  -10.06596 -10.06531 -10.06407 -10.05982 -10.05517
 Alpha  occ. eigenvalues --   -0.83067  -0.75186  -0.72235  -0.70219  -0.64608
 Alpha  occ. eigenvalues --   -0.63528  -0.61778  -0.58730  -0.57103  -0.55112
 Alpha  occ. eigenvalues --   -0.51896  -0.49651  -0.46995  -0.43193  -0.41750
 Alpha  occ. eigenvalues --   -0.39910  -0.37743  -0.36866  -0.35749  -0.34825
 Alpha  occ. eigenvalues --   -0.34246  -0.33152  -0.32823  -0.30937  -0.30412
 Alpha  occ. eigenvalues --   -0.30091  -0.28650  -0.28108  -0.27450  -0.27225
 Alpha  occ. eigenvalues --   -0.26243  -0.25775  -0.25023  -0.24071  -0.23414
 Alpha  occ. eigenvalues --   -0.22243  -0.21197  -0.21020  -0.17482  -0.15201
 Alpha  occ. eigenvalues --   -0.11546   0.04355
 Alpha virt. eigenvalues --    0.06350   0.06657   0.07500   0.08166   0.08267
 Alpha virt. eigenvalues --    0.08513   0.08782   0.09381   0.09622   0.10092
 Alpha virt. eigenvalues --    0.10553   0.11145   0.11950   0.12409   0.12489

  Beta  occ. eigenvalues --  -14.20702 -10.10614 -10.09562 -10.08306 -10.08174
  Beta  occ. eigenvalues --  -10.07908 -10.07820 -10.07441 -10.07341 -10.07236
  Beta  occ. eigenvalues --  -10.06578 -10.06508 -10.06370 -10.05954 -10.05498
  Beta  occ. eigenvalues --   -0.83047  -0.75165  -0.72210  -0.70191  -0.64580
  Beta  occ. eigenvalues --   -0.63498  -0.61731  -0.58687  -0.57063  -0.55054
  Beta  occ. eigenvalues --   -0.51864  -0.49618  -0.46955  -0.43145  -0.41717
  Beta  occ. eigenvalues --   -0.39876  -0.37715  -0.36819  -0.35722  -0.34798
  Beta  occ. eigenvalues --   -0.34224  -0.33113  -0.32797  -0.30899  -0.30379
  Beta  occ. eigenvalues --   -0.30057  -0.28621  -0.28077  -0.27414  -0.27193
  Beta  occ. eigenvalues --   -0.26213  -0.25751  -0.24998  -0.24037  -0.23387
  Beta  occ. eigenvalues --   -0.22211  -0.21162  -0.20986  -0.17448  -0.15178
  Beta  occ. eigenvalues --   -0.11522
  Beta virt. eigenvalues --    0.06353   0.07024   0.07420   0.07934   0.08248
  Beta virt. eigenvalues --    0.08671   0.09052   0.09161   0.09707   0.09949
  Beta virt. eigenvalues --    0.10491   0.10993   0.11605   0.12323   0.12722

 Mulliken charges and spin densities:
               1          2
     1  C    1.008108  -1.743913
     2  C    0.646606  -0.527520
     3  C    0.111463  -0.319894
     4  C    0.541744  -1.246824
     5  C   -1.587296   2.672834
     6  C   -0.171083  -0.642281
     7  N    0.078846   0.043169
     8  C   -1.107702   0.711258
     9  C   -0.116714   0.117537
    10  C    0.808169  -1.114151
    11  C   -0.020291  -0.410340
    12  C   -0.038525  -0.130277
    13  C   -0.699472   1.060605
    14  C    0.085600  -0.973149
    15  C    1.472082  -1.916966
    16  H   -0.284427   0.386010
    17  H    0.031627   0.126362
    18  H   -0.335953   0.499911
    19  H   -0.277612   0.470794
    20  H   -0.460374   0.656524
    21  H    0.102236   0.050147
    22  H    0.049481   0.125388
    23  H   -0.322627   0.506941
    24  H    0.172290  -0.036396
    25  H   -0.295936   0.472743
    26  H    0.464272  -0.177289
    27  H   -0.084110   0.234160
    28  H   -0.014999   0.167273
    29  H   -0.308528   0.475088
    30  H   -0.322918   0.478290
    31  H   -0.100303   0.263790
    32  H   -0.015832   0.148033
    33  H    0.410878  -0.271386
    34  H   -0.253971   0.400431
    35  H   -0.097179   0.236009
    36  H   -0.067549   0.207091
 Sum of Mulliken charges =  -1.00000   1.00000

 Dipole moment (field-independent basis, Debye):
    X=             -1.9462    Y=             -3.9249    Z=              0.8165  Tot=              4.4564
 Quadrupole moment (field-independent basis, Debye-Ang):
   XX=           -160.5899   YY=           -147.7255   ZZ=           -133.1716
   XY=             -1.3826   XZ=             -2.5063   YZ=              2.0906

 Summary of Natural Population Analysis:

                                       Natural Population
                Natural  -----------------------------------------------
    Atom  No    Charge         Core      Valence    Rydberg      Total
 -----------------------------------------------------------------------
      C    1   -0.28053      0.99964     2.27512    0.00577     3.28053
      C    2   -0.12090      0.99956     2.10856    0.01278     3.12090
      C    3   -0.18407      0.99959     2.17451    0.00996     3.18407
      C    4   -0.19284      0.99958     2.18205    0.01121     3.19284
      C    5   -0.05570      0.99957     2.04457    0.01156     3.05570
      C    6   -0.07850      0.99955     2.06618    0.01276     3.07850
      N    7   -0.33637      0.99971     2.82487    0.01179     3.83637
      C    8    0.08453      0.99942     1.90381    0.01224     2.91547
      C    9   -0.10708      0.99951     2.09893    0.00864     3.10708
      C   10   -0.10280      0.99956     2.09401    0.00923     3.10280
      C   11   -0.11090      0.99956     2.10102    0.01032     3.11090
      C   12   -0.09366      0.99951     2.08424    0.00990     3.09366
      C   13   -0.02624      0.99944     2.01520    0.01160     3.02624
      C   14   -0.28861      0.99962     2.28204    0.00695     3.28861
      C   15   -0.28181      0.99963     2.27471    0.00746     3.28181
      H   16    0.08973      0.00000     0.40915    0.00112     0.41027
      H   17    0.10213      0.00000     0.39687    0.00100     0.39787
      H   18    0.10432      0.00000     0.39430    0.00138     0.39568
      H   19    0.10208      0.00000     0.39542    0.00250     0.39792
      H   20    0.10157      0.00000     0.39687    0.00156     0.39843
      H   21    0.09945      0.00000     0.39886    0.00169     0.40055
      H   22    0.09684      0.00000     0.40137    0.00179     0.40316
      H   23    0.10417      0.00000     0.39422    0.00161     0.39583
      H   24    0.09380      0.00000     0.40501    0.00120     0.40620
      H   25    0.09609      0.00000     0.40269    0.00121     0.40391
      H   26    0.18192      0.00000     0.31408    0.00400     0.31808
      H   27    0.10177      0.00000     0.39687    0.00137     0.39823
      H   28    0.09840      0.00000     0.40079    0.00080     0.40160
      H   29    0.09996      0.00000     0.39910    0.00094     0.40004
      H   30    0.10052      0.00000     0.39812    0.00136     0.39948
      H   31    0.09918      0.00000     0.39995    0.00088     0.40082
      H   32    0.09801      0.00000     0.40113    0.00087     0.40199
      H   33    0.10707      0.00000     0.39164    0.00129     0.39293
      H   34    0.10057      0.00000     0.39825    0.00118     0.39943
      H   35    0.09732      0.00000     0.40172    0.00096     0.40268
      H   36    0.10057      0.00000     0.39833    0.00110     0.39943
 =======================================================================
   * Total *    0.00000     14.99345    40.82458    0.18197    56.00000

 Normal termination of Gaussian 16 at Thu Dec 10 18:33:16 2020.
