 Gaussian 16, Revision A.03,

 -----------------------------------------------------------
 # opt freq B3LYP/6-31G(d) empiricaldispersion=gd3bj scf=xqc
 -----------------------------------------------------------

 ------------------------------
 CID_71438853_JID_1811_neutraal
 ------------------------------
 Symbolic Z-matrix:
 Charge =  0 Multiplicity = 1

 SCF Done:  E(RB3LYP) =  -479.501909187     A.U. after   14 cycles
 SCF Done:  E(RB3LYP) =  -479.506256760     A.U. after   12 cycles
 SCF Done:  E(RB3LYP) =  -479.507027658     A.U. after   12 cycles
 SCF Done:  E(RB3LYP) =  -479.507702500     A.U. after   12 cycles
 SCF Done:  E(RB3LYP) =  -479.508185292     A.U. after   14 cycles
 SCF Done:  E(RB3LYP) =  -479.508751818     A.U. after   11 cycles
 SCF Done:  E(RB3LYP) =  -479.509236900     A.U. after   11 cycles
 SCF Done:  E(RB3LYP) =  -479.509353756     A.U. after   12 cycles
 SCF Done:  E(RB3LYP) =  -479.509405553     A.U. after    9 cycles
 SCF Done:  E(RB3LYP) =  -479.509419292     A.U. after   10 cycles
 SCF Done:  E(RB3LYP) =  -479.509427506     A.U. after    9 cycles
 SCF Done:  E(RB3LYP) =  -479.509430558     A.U. after   10 cycles
 SCF Done:  E(RB3LYP) =  -479.509431633     A.U. after    9 cycles
 SCF Done:  E(RB3LYP) =  -479.509432239     A.U. after    8 cycles
 SCF Done:  E(RB3LYP) =  -479.509432337     A.U. after    7 cycles
 Optimization completed.
    -- Stationary point found.
 Normal termination of Gaussian 16 at Tue Dec  8 21:17:40 2020.

 --------------------------------------------------------------------
 #N Geom=AllCheck Guess=TCheck SCRF=Check GenChk RB3LYP/6-31G(d) Freq
 --------------------------------------------------------------------

 Structure from the checkpoint file:  "JID_1811.chk"
 ------------------------------
 CID_71438853_JID_1811_neutraal
 ------------------------------
 Charge =  0 Multiplicity = 1

 SCF Done:  E(RB3LYP) =  -479.509432337     A.U. after    1 cycles

  Exact polarizability: 170.542  -4.671  90.490   0.654  -9.112  63.753
 Approx polarizability: 232.739 -15.961 150.952   1.763 -21.885  96.380

                      1                      2                      3
                      A                      A                      A
 Frequencies --     36.1961                71.0317                94.6503
 Red. masses --      3.7887                 3.5725                 3.6267
 Frc consts  --      0.0029                 0.0106                 0.0191
 IR Inten    --      0.0977                 0.2561                 0.8629

                      4                      5                      6
                      A                      A                      A
 Frequencies --    113.3024               225.4099               267.5470
 Red. masses --      3.5619                 4.0754                 1.3430
 Frc consts  --      0.0269                 0.1220                 0.0566
 IR Inten    --      0.3301                 0.9522                23.5566

                      7                      8                      9
                      A                      A                      A
 Frequencies --    291.6611               315.7927               387.4495
 Red. masses --      2.3649                 2.3657                 2.2345
 Frc consts  --      0.1185                 0.1390                 0.1976
 IR Inten    --      3.7694                12.1560                11.7082

                     10                     11                     12
                      A                      A                      A
 Frequencies --    436.0886               456.3674               511.6135
 Red. masses --      3.4730                 3.5654                 3.2237
 Frc consts  --      0.3891                 0.4375                 0.4972
 IR Inten    --      0.9628                 3.6361                 0.4952

                     13                     14                     15
                      A                      A                      A
 Frequencies --    607.9912               677.0406               728.0083
 Red. masses --      3.3356                 4.1904                 3.9256
 Frc consts  --      0.7265                 1.1317                 1.2258
 IR Inten    --      5.3527                 6.3524                 2.1914

                     16                     17                     18
                      A                      A                      A
 Frequencies --    732.9538               784.8172               801.2589
 Red. masses --      1.4040                 2.3279                 1.3051
 Frc consts  --      0.4444                 0.8448                 0.4937
 IR Inten    --     33.6452                16.7684                21.7590

                     19                     20                     21
                      A                      A                      A
 Frequencies --    804.2041               854.5642               863.2564
 Red. masses --      1.2053                 1.8544                 1.3573
 Frc consts  --      0.4593                 0.7979                 0.5959
 IR Inten    --      5.0670                19.1875                 2.5192

                     22                     23                     24
                      A                      A                      A
 Frequencies --    889.3760               906.9891               908.4098
 Red. masses --      1.7787                 3.6447                 4.4989
 Frc consts  --      0.8289                 1.7665                 2.1874
 IR Inten    --    224.6157                 9.7160                 9.7939

                     25                     26                     27
                      A                      A                      A
 Frequencies --    946.1182               967.2628               995.6025
 Red. masses --      1.3242                 2.5538                 1.6660
 Frc consts  --      0.6984                 1.4077                 0.9730
 IR Inten    --      7.3465                17.5633                14.9903

                     28                     29                     30
                      A                      A                      A
 Frequencies --   1002.9919              1039.3309              1046.5092
 Red. masses --      1.1335                 1.9783                 1.3559
 Frc consts  --      0.6718                 1.2590                 0.8749
 IR Inten    --     23.1244                18.1279                25.7982

                     31                     32                     33
                      A                      A                      A
 Frequencies --   1064.6516              1089.3518              1127.8129
 Red. masses --      1.5604                 1.3850                 2.9211
 Frc consts  --      1.0421                 0.9684                 2.1891
 IR Inten    --      6.6189                 2.6999                11.7572

                     34                     35                     36
                      A                      A                      A
 Frequencies --   1176.4389              1203.4473              1215.9449
 Red. masses --      1.7571                 1.3157                 2.5035
 Frc consts  --      1.4328                 1.1227                 2.1809
 IR Inten    --      4.5652                 0.8948                 0.7126

                     37                     38                     39
                      A                      A                      A
 Frequencies --   1261.5699              1282.9723              1289.8586
 Red. masses --      1.9091                 1.6018                 1.6586
 Frc consts  --      1.7902                 1.5535                 1.6258
 IR Inten    --     18.4488                 1.6222                 5.3104

                     40                     41                     42
                      A                      A                      A
 Frequencies --   1338.1746              1356.2042              1363.6475
 Red. masses --      1.6695                 2.5472                 1.8155
 Frc consts  --      1.7615                 2.7604                 1.9891
 IR Inten    --      2.6850                22.4667                12.8978

                     43                     44                     45
                      A                      A                      A
 Frequencies --   1439.8330              1476.3087              1520.9399
 Red. masses --      2.7007                 1.0928                 1.4094
 Frc consts  --      3.2987                 1.4033                 1.9209
 IR Inten    --      2.6951                 2.0963                 6.5840

                     46                     47                     48
                      A                      A                      A
 Frequencies --   1532.2880              1630.0288              1696.5047
 Red. masses --      4.9577                 5.6895                 1.1014
 Frc consts  --      6.8582                 8.9066                 1.8676
 IR Inten    --     22.5008                 2.0135                12.5764

                     49                     50                     51
                      A                      A                      A
 Frequencies --   1721.7389              3127.4170              3152.7556
 Red. masses --      5.9946                 1.0878                 1.0523
 Frc consts  --     10.4699                 6.2686                 6.1627
 IR Inten    --      1.2897                24.1230                13.8359

                     52                     53                     54
                      A                      A                      A
 Frequencies --   3164.1796              3187.4680              3237.3872
 Red. masses --      1.0558                 1.0876                 1.1202
 Frc consts  --      6.2283                 6.5102                 6.9171
 IR Inten    --      6.0023                11.5809                 1.4529

                     55                     56                     57
                      A                      A                      A
 Frequencies --   3252.0445              3263.8532              3275.8115
 Red. masses --      1.1172                 1.0908                 1.0972
 Frc consts  --      6.9612                 6.8461                 6.9368
 IR Inten    --     14.7395                 7.3398                 1.7692

                     58                     59                     60
                      A                      A                      A
 Frequencies --   3303.1899              3448.9933              3531.5910
 Red. masses --      1.1042                 1.0488                 1.0926
 Frc consts  --      7.0984                 7.3508                 8.0290
 IR Inten    --      1.1003                 3.3356                 0.2540

 - Thermochemistry -
 -------------------
 Temperature   298.150 Kelvin.  Pressure   1.00000 Atm.
 Atom     1 has atomic number  6 and mass  12.00000

 Molecular mass:   149.08406 amu.
 Principal axes and moments of inertia in atomic units:
                           1         2         3
     Eigenvalues --   534.912573829.768214026.68408
           X            0.99999   0.00494  -0.00010
           Y           -0.00494   0.99989  -0.01387
           Z            0.00003   0.01387   0.99990
 This molecule is an asymmetric top.
 Rotational symmetry number  1.
 Warning -- assumption of classical behavior for rotation
           may cause significant error
 Rotational temperatures (Kelvin)      0.16192     0.02262     0.02151
 Rotational constants (GHZ):           3.37390     0.47124     0.44820
 Zero-point vibrational energy     481474.2 (Joules/Mol)
                                  115.07510 (Kcal/Mol)
 Warning -- explicit consideration of  13 degrees of freedom as
           vibrations may cause significant error
 Vibrational temperatures:     52.08   102.20   136.18   163.02   324.31
          (Kelvin)            384.94   419.64   454.36   557.45   627.43
                              656.61   736.10   874.76   974.11  1047.44
                             1054.56  1129.18  1152.83  1157.07  1229.53
                             1242.03  1279.61  1304.95  1307.00  1361.25
                             1391.68  1432.45  1443.08  1495.37  1505.69
                             1531.80  1567.33  1622.67  1692.63  1731.49
                             1749.47  1815.12  1845.91  1855.82  1925.33
                             1951.28  1961.98  2071.60  2124.08  2188.29
                             2204.62  2345.25  2440.89  2477.20  4499.66
                             4536.11  4552.55  4586.06  4657.88  4678.97
                             4695.96  4713.16  4752.55  4962.33  5081.17

 Zero-point correction=                           0.183384 (Hartree/Particle)
 Thermal correction to Energy=                    0.193661
 Thermal correction to Enthalpy=                  0.194606
 Thermal correction to Gibbs Free Energy=         0.146556
 Sum of electronic and zero-point Energies=           -479.326048
 Sum of electronic and thermal Energies=              -479.315771
 Sum of electronic and thermal Enthalpies=            -479.314827
 Sum of electronic and thermal Free Energies=         -479.362876

                     E (Thermal)             CV                S
                      KCal/Mol        Cal/Mol-Kelvin    Cal/Mol-Kelvin
 Total                  121.524             39.174            101.129
 Electronic               0.000              0.000              0.000
 Translational            0.889              2.981             40.908
 Rotational               0.889              2.981             30.490
 Vibrational            119.747             33.212             29.730
 Vibration     1          0.594              1.982              5.457
 Vibration     2          0.598              1.968              4.125
 Vibration     3          0.603              1.953              3.562
 Vibration     4          0.607              1.938              3.212
 Vibration     5          0.650              1.802              1.915
 Vibration     6          0.673              1.733              1.612
 Vibration     7          0.687              1.689              1.464
 Vibration     8          0.703              1.643              1.332
 Vibration     9          0.756              1.497              1.010
 Vibration    10          0.797              1.392              0.839
 Vibration    11          0.815              1.347              0.777
 Vibration    12          0.867              1.224              0.630
 Vibration    13          0.967              1.015              0.436

 Optimization completed.
    -- Stationary point found.
 Normal termination of Gaussian 16 at Tue Dec  8 21:22:48 2020.

 ----------------------------------------------------------------------
 # B3LYP/6-311++G(d,p) empiricaldispersion=gd3bj scf=xqc pop=npa geom=c
 heck
 ----------------------------------------------------------------------

 --------------------------------------
 CID_71438853_JID_1811_Energie_neutraal
 --------------------------------------
 Structure from the checkpoint file:  "JID_1811.chk"
 Charge =  0 Multiplicity = 1

 SCF Done:  E(RB3LYP) =  -479.648741923     A.U. after   15 cycles
 Normal termination of Gaussian 16 at Tue Dec  8 21:25:52 2020.

 ----------------------------------------------------------------------
 # B3LYP/6-311++G(d,p) empiricaldispersion=gd3bj scf=xqc pop=npa geom=c
 heck
 ----------------------------------------------------------------------

 ------------------------------------
 CID_71438853_JID_1811_Energie_kation
 ------------------------------------
 Structure from the checkpoint file:  "JID_1811.chk"
 Charge =  1 Multiplicity = 2

 SCF Done:  E(UB3LYP) =  -479.370905846     A.U. after   25 cycles
 Normal termination of Gaussian 16 at Tue Dec  8 21:30:08 2020.
 Gaussian 16:  ES64L-G16RevA.03 25-Dec-2016

 ----------------------------------------------------------------------
 # B3LYP/6-311++G(d,p) empiricaldispersion=gd3bj scf=xqc pop=npa geom=c
 heck
 ----------------------------------------------------------------------

 -----------------------------------
 CID_71438853_JID_1811_Energie_anion
 -----------------------------------
 Structure from the checkpoint file:  "JID_1811.chk"
 Charge = -1 Multiplicity = 2

                         Standard orientation:
 ---------------------------------------------------------------------
 Center     Atomic      Atomic             Coordinates (Angstroms)
 Number     Number       Type             X           Y           Z
 ---------------------------------------------------------------------
      1          6           0       -3.151513   -0.278331   -1.135278
      2          6           0       -2.853619   -1.242362   -0.012168
      3          6           0       -2.356661    0.178709    0.070197
      4          6           0       -0.908625    0.489513   -0.089491
      5          6           0        0.107177   -0.351143    0.167343
      6          6           0        1.510873   -0.040110    0.022657
      7          6           0        2.229223    1.046806   -0.412170
      8          6           0        3.611249    0.703473   -0.297375
      9          6           0        3.647764   -0.567033    0.196068
     10          8           0        2.385155   -1.034720    0.395806
     11          7           0       -3.103136    1.036382    0.978939
     12          1           0       -4.164383    0.103578   -1.220346
     13          1           0       -2.618798   -0.408478   -2.072560
     14          1           0       -3.667776   -1.503894    0.655114
     15          1           0       -2.138948   -2.036834   -0.201460
     16          1           0       -0.688560    1.508407   -0.415193
     17          1           0       -0.102551   -1.359552    0.516110
     18          1           0        1.817535    1.977694   -0.775411
     19          1           0        4.461951    1.320121   -0.551351
     20          1           0        4.446119   -1.247748    0.447978
     21          1           0       -2.649208    1.031934    1.892202
     22          1           0       -3.069878    2.000725    0.647194
 ---------------------------------------------------------------------

 SCF Done:  E(UB3LYP) =  -479.636163779     A.U. after   33 cycles
 SCF Done:  E(UB3LYP) =  -479.636163779     a.u. after    1 cycles

 The electronic state is 2-A.
 Alpha  occ. eigenvalues --  -19.04799 -14.17069 -10.08780 -10.08751 -10.08601
 Alpha  occ. eigenvalues --  -10.05383 -10.05335 -10.04743 -10.03066 -10.03028
 Alpha  occ. eigenvalues --  -10.02466  -0.97625  -0.78796  -0.69745  -0.67136
 Alpha  occ. eigenvalues --   -0.65863  -0.59427  -0.50185  -0.48884  -0.47034
 Alpha  occ. eigenvalues --   -0.43250  -0.41882  -0.38736  -0.37862  -0.35427
 Alpha  occ. eigenvalues --   -0.34625  -0.32325  -0.31434  -0.29254  -0.27520
 Alpha  occ. eigenvalues --   -0.26971  -0.25245  -0.24924  -0.22897  -0.20587
 Alpha  occ. eigenvalues --   -0.17745  -0.15951  -0.15255  -0.12931  -0.07678
 Alpha  occ. eigenvalues --    0.05592
 Alpha virt. eigenvalues --    0.07747   0.08345   0.09079   0.09555   0.10286
 Alpha virt. eigenvalues --    0.10841   0.11773   0.12213   0.13154   0.14135
 Alpha virt. eigenvalues --    0.14671   0.14984   0.15970   0.16951   0.17094

  Beta  occ. eigenvalues --  -19.04621 -14.16978 -10.08769 -10.08671 -10.08515
  Beta  occ. eigenvalues --  -10.05365 -10.05323 -10.04787 -10.02969 -10.02926
  Beta  occ. eigenvalues --  -10.02192  -0.97338  -0.78656  -0.69595  -0.66944
  Beta  occ. eigenvalues --   -0.65530  -0.59089  -0.49840  -0.48794  -0.46956
  Beta  occ. eigenvalues --   -0.43076  -0.41721  -0.38551  -0.37770  -0.35323
  Beta  occ. eigenvalues --   -0.34528  -0.31608  -0.31279  -0.29138  -0.27399
  Beta  occ. eigenvalues --   -0.26884  -0.25212  -0.24778  -0.22749  -0.20208
  Beta  occ. eigenvalues --   -0.17352  -0.15336  -0.14790  -0.12702  -0.06657
  Beta virt. eigenvalues --    0.07815   0.08575   0.09293   0.09756   0.09997
  Beta virt. eigenvalues --    0.10757   0.10863   0.12043   0.12690   0.13058
  Beta virt. eigenvalues --    0.14194   0.15071   0.15180   0.16041   0.16896

 Mulliken charges and spin densities:
               1          2
     1  C   -0.359749  -0.057146
     2  C    0.109557  -0.310364
     3  C    0.457002  -0.621415
     4  C    0.310723  -0.102795
     5  C   -0.229063  -0.371053
     6  C    0.576817  -0.588195
     7  C   -1.308920   1.576979
     8  C    0.685169  -1.159871
     9  C   -0.503495   0.554445
    10  O   -0.063397   0.038388
    11  N   -0.308096   0.052497
    12  H    0.145202  -0.025024
    13  H    0.096638   0.027621
    14  H    0.043735   0.097202
    15  H    0.028301   0.069285
    16  H    0.158476  -0.034680
    17  H    0.091116   0.067782
    18  H   -0.233077   0.360642
    19  H   -0.063280   0.194408
    20  H   -0.138950   0.276203
    21  H   -0.136325   0.361707
    22  H   -0.358382   0.593385
 Sum of Mulliken charges =  -1.00000   1.00000

 Dipole moment (field-independent basis, Debye):
    X=              1.2319    Y=             -3.1863    Z=             -2.2636  Tot=              4.0980
 Quadrupole moment (field-independent basis, Debye-Ang):
   XX=           -122.4245   YY=            -92.5275   ZZ=            -84.4502
   XY=              9.1023   XZ=              9.0175   YZ=             -7.5080

 Summary of Natural Population Analysis:

                                       Natural Population
                Natural  -----------------------------------------------
    Atom  No    Charge         Core      Valence    Rydberg      Total
 -----------------------------------------------------------------------
      C    1   -0.19300      0.99959     2.18706    0.00636     3.19300
      C    2   -0.19743      0.99959     2.18968    0.00816     3.19743
      C    3    0.03043      0.99954     1.95530    0.01473     2.96957
      C    4   -0.03554      0.99950     2.02619    0.00985     3.03554
      C    5   -0.11273      0.99950     2.10485    0.00838     3.11273
      C    6    0.15562      0.99946     1.83016    0.01476     2.84438
      C    7   -0.13924      0.99951     2.13107    0.00866     3.13924
      C    8   -0.16672      0.99957     2.15785    0.00930     3.16672
      C    9    0.06327      0.99952     1.92180    0.01540     2.93673
      O   10   -0.22340      0.99986     3.21571    0.00783     4.22340
      N   11   -0.41693      0.99975     2.90610    0.01107     3.91693
      H   12    0.10083      0.00000     0.39800    0.00117     0.39917
      H   13    0.09987      0.00000     0.39914    0.00099     0.40013
      H   14    0.10306      0.00000     0.39582    0.00113     0.39694
      H   15    0.10164      0.00000     0.39737    0.00099     0.39836
      H   16    0.08852      0.00000     0.41009    0.00140     0.41148
      H   17    0.09510      0.00000     0.40251    0.00238     0.40490
      H   18    0.10447      0.00000     0.39459    0.00093     0.39553
      H   19    0.10137      0.00000     0.39787    0.00076     0.39863
      H   20    0.08684      0.00000     0.41215    0.00101     0.41316
      H   21    0.17766      0.00000     0.31976    0.00258     0.32234
      H   22    0.17632      0.00000     0.32004    0.00364     0.32368
 =======================================================================
   * Total *   -0.00000     10.99540    28.87310    0.13150    40.00000

 Normal termination of Gaussian 16 at Tue Dec  8 21:36:44 2020.
