 Gaussian 16, Revision A.03,

 -----------------------------------------------------------
 # opt freq B3LYP/6-31G(d) empiricaldispersion=gd3bj scf=xqc
 -----------------------------------------------------------

 --------------------------------
 CID_116312836_JID_10901_neutraal
 --------------------------------
 Symbolic Z-matrix:
 Charge =  0 Multiplicity = 1

 SCF Done:  E(RB3LYP) =  -1596.87925394     A.U. after   15 cycles
 SCF Done:  E(RB3LYP) =  -1596.89555857     A.U. after   13 cycles
 SCF Done:  E(RB3LYP) =  -1596.89532030     A.U. after   13 cycles
 SCF Done:  E(RB3LYP) =  -1596.89829209     A.U. after   12 cycles
 SCF Done:  E(RB3LYP) =  -1596.89864326     A.U. after   12 cycles
 SCF Done:  E(RB3LYP) =  -1596.89921718     A.U. after   12 cycles
 SCF Done:  E(RB3LYP) =  -1596.89955205     A.U. after   11 cycles
 SCF Done:  E(RB3LYP) =  -1596.89984414     A.U. after   12 cycles
 SCF Done:  E(RB3LYP) =  -1596.90004952     A.U. after   12 cycles
 SCF Done:  E(RB3LYP) =  -1596.90028351     A.U. after   12 cycles
 SCF Done:  E(RB3LYP) =  -1596.91020896     A.U. after    8 cycles
 SCF Done:  E(RB3LYP) =  -1596.91020938     A.U. after    9 cycles
 SCF Done:  E(RB3LYP) =  -1596.91020959     A.U. after    8 cycles
 SCF Done:  E(RB3LYP) =  -1596.91020964     A.U. after    7 cycles
 SCF Done:  E(RB3LYP) =  -1596.91020966     A.U. after    6 cycles
 Optimization completed.
    -- Stationary point found.
 Normal termination of Gaussian 16 at Sat Dec 12 17:14:46 2020.

 --------------------------------------------------------------------
 #N Geom=AllCheck Guess=TCheck SCRF=Check GenChk RB3LYP/6-31G(d) Freq
 --------------------------------------------------------------------

 Structure from the checkpoint file:  "JID_10901.chk"
 --------------------------------
 CID_116312836_JID_10901_neutraal
 --------------------------------
 Charge =  0 Multiplicity = 1

 SCF Done:  E(RB3LYP) =  -1596.91020966     A.U. after    1 cycles

  Exact polarizability: 254.347 -10.801 204.267  24.860  14.618 145.848
 Approx polarizability: 351.702 -24.477 339.261  57.381  34.312 243.987

                      1                      2                      3
                      A                      A                      A
 Frequencies --     15.0721                27.0678                52.7606
 Red. masses --      4.2184                 5.8634                 3.9955
 Frc consts  --      0.0006                 0.0025                 0.0066
 IR Inten    --      0.5186                 0.1759                 0.8160

                      4                      5                      6
                      A                      A                      A
 Frequencies --     55.5585                89.9871                98.8448
 Red. masses --      1.0996                 6.7289                 4.0369
 Frc consts  --      0.0020                 0.0321                 0.0232
 IR Inten    --      0.0358                 1.8780                 1.8108

                      7                      8                      9
                      A                      A                      A
 Frequencies --    118.5529               124.9987               131.3584
 Red. masses --      4.5088                 4.3211                 1.0557
 Frc consts  --      0.0373                 0.0398                 0.0107
 IR Inten    --      0.0644                 5.6972                 1.8001

                     10                     11                     12
                      A                      A                      A
 Frequencies --    148.7774               167.6292               198.0259
 Red. masses --      3.8274                 4.2249                 2.6726
 Frc consts  --      0.0499                 0.0699                 0.0617
 IR Inten    --      5.6700                 0.1119                 1.3624

                     13                     14                     15
                      A                      A                      A
 Frequencies --    207.1848               238.3598               244.6714
 Red. masses --      3.8825                 7.5685                 3.0546
 Frc consts  --      0.0982                 0.2534                 0.1077
 IR Inten    --      1.4018                 2.0282                 2.5941

                     16                     17                     18
                      A                      A                      A
 Frequencies --    279.6598               290.6560               307.9242
 Red. masses --      6.1108                 3.6781                 2.3424
 Frc consts  --      0.2816                 0.1831                 0.1309
 IR Inten    --     11.7577                 8.0637                 4.3864

                     19                     20                     21
                      A                      A                      A
 Frequencies --    336.4011               344.7164               352.6623
 Red. masses --      5.1708                 3.9133                 4.5189
 Frc consts  --      0.3448                 0.2740                 0.3311
 IR Inten    --      0.7161                 2.2850                 0.3897

                     22                     23                     24
                      A                      A                      A
 Frequencies --    372.9411               385.0853               406.4562
 Red. masses --      4.2936                 3.0017                 1.3299
 Frc consts  --      0.3518                 0.2623                 0.1295
 IR Inten    --      3.4669                11.6165               157.3323

                     25                     26                     27
                      A                      A                      A
 Frequencies --    437.9196               476.2065               492.0049
 Red. masses --      4.0362                 2.8661                 4.5719
 Frc consts  --      0.4560                 0.3829                 0.6521
 IR Inten    --      7.7539                 1.2628                 2.1181

                     28                     29                     30
                      A                      A                      A
 Frequencies --    520.8912               557.0698               589.1670
 Red. masses --      3.9201                 6.1454                 4.6380
 Frc consts  --      0.6267                 1.1236                 0.9485
 IR Inten    --      1.1539                18.5154                14.8544

                     31                     32                     33
                      A                      A                      A
 Frequencies --    601.5751               612.0424               637.3075
 Red. masses --      5.1941                 4.0274                 2.7502
 Frc consts  --      1.1075                 0.8889                 0.6581
 IR Inten    --      9.4830                14.1785                24.3981

                     34                     35                     36
                      A                      A                      A
 Frequencies --    643.3980               669.3760               678.1443
 Red. masses --      4.4948                 3.8422                 1.8065
 Frc consts  --      1.0963                 1.0143                 0.4895
 IR Inten    --     28.3771                 3.5767                52.0908

                     37                     38                     39
                      A                      A                      A
 Frequencies --    736.6752               756.0844               768.3359
 Red. masses --      7.4262                 5.0692                 3.8232
 Frc consts  --      2.3745                 1.7074                 1.3298
 IR Inten    --     11.8404                 4.9104                 9.0884

                     40                     41                     42
                      A                      A                      A
 Frequencies --    804.1509               826.5655               850.1567
 Red. masses --      2.7863                 3.1923                 1.4266
 Frc consts  --      1.0616                 1.2850                 0.6075
 IR Inten    --     17.3755                20.4333                 3.2992

                     43                     44                     45
                      A                      A                      A
 Frequencies --    868.5705               888.2279               904.3818
 Red. masses --      4.8329                 2.1668                 1.9991
 Frc consts  --      2.1482                 1.0072                 0.9633
 IR Inten    --     30.1593                24.8476                52.9503

                     46                     47                     48
                      A                      A                      A
 Frequencies --    944.2323               972.7527              1006.9455
 Red. masses --      2.0941                 2.0954                 2.7299
 Frc consts  --      1.1001                 1.1682                 1.6308
 IR Inten    --      2.3171                19.8125                20.2845

                     49                     50                     51
                      A                      A                      A
 Frequencies --   1016.8905              1042.4777              1060.8419
 Red. masses --      2.2894                 2.1230                 3.2089
 Frc consts  --      1.3948                 1.3594                 2.1277
 IR Inten    --      2.6918                 4.1531                25.9572

                     52                     53                     54
                      A                      A                      A
 Frequencies --   1073.9011              1076.9424              1104.7200
 Red. masses --      2.2577                 1.4756                 1.8839
 Frc consts  --      1.5341                 1.0084                 1.3546
 IR Inten    --     31.6561                 0.9112                 6.5385

                     55                     56                     57
                      A                      A                      A
 Frequencies --   1115.7360              1131.6243              1148.1039
 Red. masses --      1.0928                 2.9801                 2.2545
 Frc consts  --      0.8015                 2.2484                 1.7509
 IR Inten    --      8.3440               138.9180                 9.3496

                     58                     59                     60
                      A                      A                      A
 Frequencies --   1158.3730              1170.3491              1202.1914
 Red. masses --      1.2962                 2.8266                 2.6794
 Frc consts  --      1.0248                 2.2811                 2.2815
 IR Inten    --      7.5381                 3.5427                11.3524

                     61                     62                     63
                      A                      A                      A
 Frequencies --   1229.0753              1254.9975              1286.7252
 Red. masses --      1.3313                 1.3649                 1.2875
 Frc consts  --      1.1849                 1.2666                 1.2560
 IR Inten    --     15.8724                27.3486                26.6770

                     64                     65                     66
                      A                      A                      A
 Frequencies --   1299.4740              1302.8294              1335.4741
 Red. masses --      4.0437                 1.4165                 1.5298
 Frc consts  --      4.0231                 1.4166                 1.6076
 IR Inten    --     20.9493                99.4629               151.7226

                     67                     68                     69
                      A                      A                      A
 Frequencies --   1342.2963              1371.3001              1399.7695
 Red. masses --      1.4135                 1.3720                 1.4821
 Frc consts  --      1.5005                 1.5200                 1.7109
 IR Inten    --     60.9789                85.1712                 7.5859

                     70                     71                     72
                      A                      A                      A
 Frequencies --   1401.7466              1416.4481              1426.5032
 Red. masses --      1.4152                 1.5394                 4.5905
 Frc consts  --      1.6384                 1.8198                 5.5037
 IR Inten    --     13.8061                 4.0204                 5.4028

                     73                     74                     75
                      A                      A                      A
 Frequencies --   1439.8425              1445.3837              1466.9825
 Red. masses --      1.5320                 2.7553                 1.7390
 Frc consts  --      1.8712                 3.3914                 2.2050
 IR Inten    --     45.1466                 4.5553                10.6975

                     76                     77                     78
                      A                      A                      A
 Frequencies --   1478.2272              1490.8341              1496.0607
 Red. masses --      1.6359                 2.1026                 1.1634
 Frc consts  --      2.1062                 2.7534                 1.5341
 IR Inten    --    116.8435                65.8432                25.5338

                     79                     80                     81
                      A                      A                      A
 Frequencies --   1496.5389              1510.5257              1511.0499
 Red. masses --      1.0991                 1.0996                 1.1070
 Frc consts  --      1.4504                 1.4782                 1.4892
 IR Inten    --      3.3451                28.0297                20.9776

                     82                     83                     84
                      A                      A                      A
 Frequencies --   1512.8890              1520.3420              1522.1674
 Red. masses --      1.0528                 1.1068                 1.2458
 Frc consts  --      1.4198                 1.5073                 1.7006
 IR Inten    --     20.4560                13.8582                 2.2658

                     85                     86                     87
                      A                      A                      A
 Frequencies --   1530.8537              1546.3054              1571.0344
 Red. masses --      1.2954                 2.0599                 4.0633
 Frc consts  --      1.7886                 2.9020                 5.9089
 IR Inten    --     43.8234               121.4361                33.1743

                     88                     89                     90
                      A                      A                      A
 Frequencies --   1582.6489              1660.5965              1698.1546
 Red. masses --      6.7392                 2.0586                 3.1551
 Frc consts  --      9.9456                 3.3446                 5.3607
 IR Inten    --    237.5239               387.0766               139.0941

                     91                     92                     93
                      A                      A                      A
 Frequencies --   3035.7084              3041.6282              3042.1406
 Red. masses --      1.0622                 1.0653                 1.0403
 Frc consts  --      5.7671                 5.8069                 5.6724
 IR Inten    --     43.2997                 8.5800                27.1994

                     94                     95                     96
                      A                      A                      A
 Frequencies --   3052.7080              3058.4433              3066.0323
 Red. masses --      1.0666                 1.0379                 1.0837
 Frc consts  --      5.8563                 5.7202                 6.0021
 IR Inten    --     17.4974                44.1923                12.9249

                     97                     98                     99
                      A                      A                      A
 Frequencies --   3079.9315              3088.1863              3092.7162
 Red. masses --      1.0970                 1.0636                 1.0999
 Frc consts  --      6.1312                 5.9766                 6.1985
 IR Inten    --     30.6783                25.7078                17.0388

                    100                    101                    102
                      A                      A                      A
 Frequencies --   3094.2797              3118.4156              3123.7107
 Red. masses --      1.0973                 1.1019                 1.1027
 Frc consts  --      6.1900                 6.3136                 6.3391
 IR Inten    --     52.3465                20.0214                14.8431

                    103                    104                    105
                      A                      A                      A
 Frequencies --   3149.6638              3150.8741              3183.7428
 Red. masses --      1.0988                 1.1052                 1.1016
 Frc consts  --      6.4222                 6.4649                 6.5790
 IR Inten    --      8.8379                 5.0406                 2.4737

                    106                    107                    108
                      A                      A                      A
 Frequencies --   3484.3829              3497.6086              3675.6254
 Red. masses --      1.0726                 1.0541                 1.0946
 Frc consts  --      7.6728                 7.5975                 8.7127
 IR Inten    --      7.5149                64.2184                50.4331

 - Thermochemistry -
 -------------------
 Temperature   298.150 Kelvin.  Pressure   1.00000 Atm.
 Atom     1 has atomic number  6 and mass  12.00000

 Molecular mass:   310.09220 amu.
 Principal axes and moments of inertia in atomic units:
                           1         2         3
     Eigenvalues --  3697.29864********************
           X            0.99997  -0.00776   0.00080
           Y            0.00773   0.99943   0.03290
           Z           -0.00106  -0.03289   0.99946
 This molecule is an asymmetric top.
 Rotational symmetry number  1.
 Warning -- assumption of classical behavior for rotation
           may cause significant error
 Rotational temperatures (Kelvin)      0.02343     0.00801     0.00697
 Rotational constants (GHZ):           0.48812     0.16680     0.14533
 Zero-point vibrational energy     814193.7 (Joules/Mol)
                                  194.59697 (Kcal/Mol)
 Warning -- explicit consideration of  32 degrees of freedom as
           vibrations may cause significant error
 Vibrational temperatures:     21.69    38.94    75.91    79.94   129.47
          (Kelvin)            142.22   170.57   179.85   189.00   214.06
                              241.18   284.92   298.09   342.95   352.03
                              402.37   418.19   443.03   484.01   495.97
                              507.40   536.58   554.05   584.80   630.07
                              685.15   707.89   749.45   801.50   847.68
                              865.53   880.59   916.94   925.71   963.08
                              975.70  1059.91  1087.84  1105.46  1156.99
                             1189.24  1223.19  1249.68  1277.96  1301.20
                             1358.54  1399.57  1448.77  1463.08  1499.89
                             1526.31  1545.10  1549.48  1589.45  1605.30
                             1628.16  1651.87  1666.64  1683.87  1729.69
                             1768.37  1805.66  1851.31  1869.65  1874.48
                             1921.45  1931.27  1973.00  2013.96  2016.80
                             2037.95  2052.42  2071.61  2079.58  2110.66
                             2126.84  2144.98  2152.50  2153.19  2173.31
                             2174.06  2176.71  2187.43  2190.06  2202.56
                             2224.79  2260.37  2277.08  2389.23  2443.27
                             4367.71  4376.22  4376.96  4392.17  4400.42
                             4411.34  4431.33  4443.21  4449.73  4451.98
                             4486.70  4494.32  4531.66  4533.41  4580.70
                             5013.25  5032.28  5288.41

 Zero-point correction=                           0.310110 (Hartree/Particle)
 Thermal correction to Energy=                    0.330093
 Thermal correction to Enthalpy=                  0.331037
 Thermal correction to Gibbs Free Energy=         0.259867
 Sum of electronic and zero-point Energies=          -1596.600100
 Sum of electronic and thermal Energies=             -1596.580117
 Sum of electronic and thermal Enthalpies=           -1596.579172
 Sum of electronic and thermal Free Energies=        -1596.650343

                     E (Thermal)             CV                S
                      KCal/Mol        Cal/Mol-Kelvin    Cal/Mol-Kelvin
 Total                  207.137             74.874            149.791
 Electronic               0.000              0.000              0.000
 Translational            0.889              2.981             43.091
 Rotational               0.889              2.981             34.562
 Vibrational            205.359             68.912             72.138
 Vibration     1          0.593              1.986              7.196
 Vibration     2          0.593              1.984              6.033
 Vibration     3          0.596              1.977              4.711
 Vibration     4          0.596              1.975              4.609
 Vibration     5          0.602              1.956              3.660
 Vibration     6          0.604              1.950              3.477
 Vibration     7          0.609              1.934              3.124
 Vibration     8          0.610              1.928              3.022
 Vibration     9          0.612              1.922              2.926
 Vibration    10          0.618              1.904              2.688
 Vibration    11          0.624              1.882              2.462
 Vibration    12          0.637              1.843              2.151
 Vibration    13          0.641              1.830              2.068
 Vibration    14          0.656              1.782              1.815
 Vibration    15          0.660              1.772              1.769
 Vibration    16          0.680              1.711              1.536
 Vibration    17          0.687              1.691              1.470
 Vibration    18          0.698              1.659              1.373
 Vibration    19          0.717              1.603              1.229
 Vibration    20          0.723              1.586              1.190
 Vibration    21          0.729              1.570              1.154
 Vibration    22          0.744              1.528              1.068
 Vibration    23          0.754              1.502              1.019
 Vibration    24          0.771              1.456              0.939
 Vibration    25          0.798              1.388              0.833
 Vibration    26          0.833              1.303              0.720
 Vibration    27          0.848              1.268              0.678
 Vibration    28          0.876              1.204              0.608
 Vibration    29          0.913              1.124              0.530
 Vibration    30          0.946              1.055              0.469
 Vibration    31          0.960              1.028              0.447
 Vibration    32          0.971              1.006              0.429

 Optimization completed.
    -- Stationary point found.
 Normal termination of Gaussian 16 at Sat Dec 12 17:33:49 2020.

 ----------------------------------------------------------------------
 # B3LYP/6-311++G(d,p) empiricaldispersion=gd3bj scf=xqc pop=npa geom=c
 heck
 ----------------------------------------------------------------------

 ----------------------------------------
 CID_116312836_JID_10901_Energie_neutraal
 ----------------------------------------
 Structure from the checkpoint file:  "JID_10901.chk"
 Charge =  0 Multiplicity = 1

 SCF Done:  E(RB3LYP) =  -1597.18486861     A.U. after   17 cycles
 Normal termination of Gaussian 16 at Sat Dec 12 17:42:22 2020.

 ----------------------------------------------------------------------
 # B3LYP/6-311++G(d,p) empiricaldispersion=gd3bj scf=xqc pop=npa geom=c
 heck
 ----------------------------------------------------------------------

 --------------------------------------
 CID_116312836_JID_10901_Energie_kation
 --------------------------------------
 Structure from the checkpoint file:  "JID_10901.chk"
 Charge =  1 Multiplicity = 2

 SCF Done:  E(UB3LYP) =  -1596.91744260     A.U. after   28 cycles
 Normal termination of Gaussian 16 at Sat Dec 12 18:00:46 2020.
 Gaussian 16:  ES64L-G16RevA.03 25-Dec-2016

 ----------------------------------------------------------------------
 # B3LYP/6-311++G(d,p) empiricaldispersion=gd3bj scf=xqc pop=npa geom=c
 heck
 ----------------------------------------------------------------------

 -------------------------------------
 CID_116312836_JID_10901_Energie_anion
 -------------------------------------
 Structure from the checkpoint file:  "JID_10901.chk"
 Charge = -1 Multiplicity = 2

                         Standard orientation:
 ---------------------------------------------------------------------
 Center     Atomic      Atomic             Coordinates (Angstroms)
 Number     Number       Type             X           Y           Z
 ---------------------------------------------------------------------
      1          6           0        4.628823    1.286344    1.698424
      2          6           0        3.848233    0.302313    0.886667
      3          7           0        4.335238   -0.909066    0.632025
      4          7           0        3.395841   -1.554792   -0.140562
      5          6           0        2.325695   -0.762739   -0.352671
      6          6           0        2.564286    0.455324    0.285351
      7          6           0        1.489103    1.380386    0.089930
      8          6           0        0.440526    0.805363   -0.645389
      9         16           0        0.808177   -0.873000   -1.185723
     10          6           0       -0.712097    1.532710   -1.100143
     11          8           0       -0.785852    2.769433   -1.007105
     12          7           0       -1.759095    0.796950   -1.726202
     13          6           0       -2.797680    0.179417   -0.844543
     14          6           0       -3.323504    1.165918    0.214641
     15          6           0       -4.524524    0.630258    1.005055
     16          6           0       -4.203519   -0.659641    1.759841
     17         16           0       -3.692748   -2.011931    0.631747
     18          6           0       -2.324635   -1.128341   -0.209913
     19          7           0        1.459596    2.651711    0.572926
     20          6           0        3.591670   -2.933933   -0.530029
     21          1           0        5.553062    0.824585    2.053902
     22          1           0        4.054050    1.628587    2.567486
     23          1           0        4.895678    2.171569    1.106621
     24          1           0       -2.247597    1.486379   -2.297457
     25          1           0       -3.617297   -0.074452   -1.526164
     26          1           0       -2.505518    1.405584    0.907759
     27          1           0       -3.590885    2.108307   -0.277060
     28          1           0       -4.852613    1.392835    1.724374
     29          1           0       -5.365420    0.446933    0.324475
     30          1           0       -3.407791   -0.489220    2.495373
     31          1           0       -5.079695   -1.034186    2.297615
     32          1           0       -1.948123   -1.809927   -0.975300
     33          1           0       -1.519609   -0.947538    0.507801
     34          1           0        0.753383    3.244784    0.143244
     35          1           0        2.332463    3.074390    0.851330
     36          1           0        3.041249   -3.614198    0.130031
     37          1           0        3.250901   -3.076641   -1.559798
     38          1           0        4.658391   -3.148259   -0.464417
 ---------------------------------------------------------------------

 SCF Done:  E(UB3LYP) =  -1597.18408401     A.U. after   33 cycles
 SCF Done:  E(UB3LYP) =  -1597.18408401     a.u. after    1 cycles

 The electronic state is 2-A.
 Alpha  occ. eigenvalues --  -88.74682 -88.73496 -18.93170 -14.27815 -14.21369
 Alpha  occ. eigenvalues --  -14.18507 -14.17849 -10.12145 -10.10469 -10.10142
 Alpha  occ. eigenvalues --  -10.09908 -10.09376 -10.08612 -10.08413 -10.07515
 Alpha  occ. eigenvalues --  -10.07450 -10.07299 -10.05616 -10.04723 -10.04643
 Alpha  occ. eigenvalues --   -7.83230  -7.82131  -5.79598  -5.79221  -5.78695
 Alpha  occ. eigenvalues --   -5.78511  -5.78173  -5.77504  -0.93431  -0.88110
 Alpha  occ. eigenvalues --   -0.79444  -0.77662  -0.74729  -0.72943  -0.72189
 Alpha  occ. eigenvalues --   -0.65109  -0.64452  -0.63653  -0.62744  -0.59788
 Alpha  occ. eigenvalues --   -0.56389  -0.52359  -0.51819  -0.50283  -0.46912
 Alpha  occ. eigenvalues --   -0.45137  -0.44139  -0.40991  -0.39758  -0.38286
 Alpha  occ. eigenvalues --   -0.37990  -0.37252  -0.36015  -0.35587  -0.33641
 Alpha  occ. eigenvalues --   -0.33095  -0.32562  -0.32359  -0.31442  -0.30966
 Alpha  occ. eigenvalues --   -0.30007  -0.29843  -0.29236  -0.28388  -0.28133
 Alpha  occ. eigenvalues --   -0.26517  -0.25644  -0.25351  -0.24920  -0.23029
 Alpha  occ. eigenvalues --   -0.22659  -0.22068  -0.21809  -0.20098  -0.19273
 Alpha  occ. eigenvalues --   -0.18522  -0.14113  -0.14024  -0.12525  -0.11039
 Alpha  occ. eigenvalues --   -0.10065  -0.07180   0.04853
 Alpha virt. eigenvalues --    0.06715   0.06924   0.07446   0.08305   0.09231
 Alpha virt. eigenvalues --    0.09521   0.10060   0.10451   0.10490   0.11264
 Alpha virt. eigenvalues --    0.11492   0.11588   0.12100   0.12255   0.12499

  Beta  occ. eigenvalues --  -88.74669 -88.73494 -18.92790 -14.27844 -14.21340
  Beta  occ. eigenvalues --  -14.18367 -14.17871 -10.12143 -10.10315 -10.10137
  Beta  occ. eigenvalues --  -10.09532 -10.09317 -10.08472 -10.08410 -10.07524
  Beta  occ. eigenvalues --  -10.07440 -10.06837 -10.05612 -10.04830 -10.04720
  Beta  occ. eigenvalues --   -7.83219  -7.82129  -5.79592  -5.79213  -5.78657
  Beta  occ. eigenvalues --   -5.78510  -5.78171  -5.77500  -0.93368  -0.87432
  Beta  occ. eigenvalues --   -0.79002  -0.77459  -0.74642  -0.72805  -0.72130
  Beta  occ. eigenvalues --   -0.65092  -0.64378  -0.63517  -0.62695  -0.59514
  Beta  occ. eigenvalues --   -0.56184  -0.52020  -0.51757  -0.50088  -0.46782
  Beta  occ. eigenvalues --   -0.44965  -0.44013  -0.40770  -0.39629  -0.38200
  Beta  occ. eigenvalues --   -0.37897  -0.37139  -0.35803  -0.35510  -0.33554
  Beta  occ. eigenvalues --   -0.32924  -0.32452  -0.32280  -0.31380  -0.30907
  Beta  occ. eigenvalues --   -0.29746  -0.29708  -0.29014  -0.28104  -0.27930
  Beta  occ. eigenvalues --   -0.26379  -0.25339  -0.24968  -0.24569  -0.22945
  Beta  occ. eigenvalues --   -0.22530  -0.21878  -0.20775  -0.19532  -0.18710
  Beta  occ. eigenvalues --   -0.18424  -0.13710  -0.13615  -0.12459  -0.10690
  Beta  occ. eigenvalues --   -0.09713  -0.06173
  Beta virt. eigenvalues --    0.06762   0.06902   0.07407   0.08362   0.09233
  Beta virt. eigenvalues --    0.09458   0.10020   0.10237   0.10475   0.10982
  Beta virt. eigenvalues --    0.11280   0.11548   0.11692   0.12119   0.12233

 Mulliken charges and spin densities:
               1          2
     1  C   -0.688898  -0.068252
     2  C    0.080953   0.165662
     3  N   -0.139830   0.012383
     4  N    0.195779  -0.011719
     5  C    0.049855   0.005880
     6  C    0.793234  -0.125263
     7  C   -1.411531   0.253242
     8  C    0.547011  -0.188499
     9  S   -0.148745   0.133761
    10  C   -0.370548   0.195932
    11  O   -0.382251   0.138504
    12  N   -0.039937   0.042300
    13  C    0.243932  -0.213356
    14  C   -0.488152   0.175322
    15  C   -0.025254  -0.335148
    16  C   -0.472850  -0.101137
    17  S   -0.157604  -0.012717
    18  C   -0.232378  -0.123214
    19  N   -0.280172   0.072464
    20  C   -0.310763  -0.027425
    21  H    0.140486   0.004756
    22  H    0.145683   0.010896
    23  H    0.128928   0.019140
    24  H    0.051698   0.207887
    25  H   -0.156615   0.316071
    26  H    0.133759   0.047669
    27  H    0.167618   0.006597
    28  H    0.000749   0.158917
    29  H    0.012651   0.093961
    30  H    0.152112   0.010480
    31  H    0.074324   0.126342
    32  H    0.255545  -0.004550
    33  H    0.168978  -0.012224
    34  H    0.281111  -0.000943
    35  H    0.246207  -0.004404
    36  H    0.146737   0.014739
    37  H    0.146497   0.005781
    38  H    0.141682   0.010167
 Sum of Mulliken charges =  -1.00000   1.00000

 Dipole moment (field-independent basis, Debye):
    X=              2.0785    Y=             -2.6386    Z=              2.0502  Tot=              3.9352
 Quadrupole moment (field-independent basis, Debye-Ang):
   XX=           -191.5390   YY=           -159.0499   ZZ=           -154.2828
   XY=              0.0147   XZ=             -5.6889   YZ=              9.0225

 Summary of Natural Population Analysis:

                                       Natural Population
                Natural  -----------------------------------------------
    Atom  No    Charge         Core      Valence    Rydberg      Total
 -----------------------------------------------------------------------
      C    1   -0.29865      0.99964     2.29488    0.00413     3.29865
      C    2    0.10672      0.99958     1.87989    0.01381     2.89328
      N    3   -0.17144      0.99970     2.65937    0.01238     3.67144
      N    4   -0.12999      0.99958     2.61891    0.01150     3.62999
      C    5    0.04677      0.99937     1.94195    0.01190     2.95323
      C    6   -0.11156      0.99938     2.10316    0.00902     3.11156
      C    7    0.18207      0.99943     1.80682    0.01168     2.81793
      C    8   -0.20176      0.99936     2.19161    0.01079     3.20176
      S    9    0.17442      4.99946     2.80473    0.02138     7.82558
      C   10    0.36222      0.99952     1.61539    0.02287     2.63778
      O   11   -0.31220      0.99988     3.30705    0.00527     4.31220
      N   12   -0.35318      0.99971     2.84139    0.01208     3.85318
      C   13   -0.01142      0.99955     1.99568    0.01620     3.01142
      C   14   -0.20567      0.99960     2.19331    0.01275     3.20567
      C   15   -0.19714      0.99962     2.18713    0.01039     3.19714
      C   16   -0.24854      0.99959     2.23974    0.00921     3.24854
      S   17    0.07602      4.99964     2.90616    0.01819     7.92398
      C   18   -0.25333      0.99955     2.24350    0.01028     3.25333
      N   19   -0.37283      0.99968     2.86526    0.00789     3.87283
      C   20   -0.17141      0.99966     2.16524    0.00651     3.17141
      H   21    0.10531      0.00000     0.39369    0.00099     0.39469
      H   22    0.10256      0.00000     0.39640    0.00105     0.39744
      H   23    0.09984      0.00000     0.39912    0.00104     0.40016
      H   24    0.18068      0.00000     0.31599    0.00332     0.31932
      H   25    0.09271      0.00000     0.40492    0.00237     0.40729
      H   26    0.10314      0.00000     0.39535    0.00151     0.39686
      H   27    0.10621      0.00000     0.39272    0.00107     0.39379
      H   28    0.09731      0.00000     0.40149    0.00120     0.40269
      H   29    0.09593      0.00000     0.40245    0.00162     0.40407
      H   30    0.09780      0.00000     0.40057    0.00163     0.40220
      H   31    0.10259      0.00000     0.39619    0.00122     0.39741
      H   32    0.11369      0.00000     0.38508    0.00123     0.38631
      H   33    0.10906      0.00000     0.38898    0.00196     0.39094
      H   34    0.21074      0.00000     0.28738    0.00187     0.28926
      H   35    0.17944      0.00000     0.31932    0.00125     0.32056
      H   36    0.09260      0.00000     0.40603    0.00136     0.40740
      H   37    0.09672      0.00000     0.40191    0.00137     0.40328
      H   38    0.10454      0.00000     0.39418    0.00128     0.39546
 =======================================================================
   * Total *   -0.00000     27.99149    53.74294    0.26557    82.00000

 Normal termination of Gaussian 16 at Sat Dec 12 18:22:47 2020.
