 Gaussian 16, Revision A.03,

 ----------------------------------------------------------------------
 # opt=(cartesian,calcfc) freq B3LYP/6-31G(d) empiricaldispersion=gd3bj
  scf=xqc
 ----------------------------------------------------------------------

 -------------------------------
 CID_131440758_JID_5348_neutraal
 -------------------------------
 Symbolic Z-matrix:
 Charge =  0 Multiplicity = 1

 SCF Done:  E(RB3LYP) =  -1050.27781155     A.U. after   15 cycles
 SCF Done:  E(RB3LYP) =  -1050.27782797     A.U. after   10 cycles
 SCF Done:  E(RB3LYP) =  -1050.27782835     A.U. after    8 cycles
 SCF Done:  E(RB3LYP) =  -1050.27782841     A.U. after    8 cycles
 Optimization completed.
    -- Stationary point found.
 Normal termination of Gaussian 16 at Mon Jan  4 09:29:25 2021.

 --------------------------------------------------------------------
 #N Geom=AllCheck Guess=TCheck SCRF=Check GenChk RB3LYP/6-31G(d) Freq
 --------------------------------------------------------------------

 Structure from the checkpoint file:  "JID_5348.chk"
 -------------------------------
 CID_131440758_JID_5348_neutraal
 -------------------------------
 Charge =  0 Multiplicity = 1

 SCF Done:  E(RB3LYP) =  -1050.27782841     A.U. after    1 cycles

  Exact polarizability: 203.095   7.545 146.493   8.442  -2.620  75.681
 Approx polarizability: 310.582  19.111 255.220  28.194  -3.201 120.826

                      1                      2                      3
                      A                      A                      A
 Frequencies --     48.7459                70.1528                77.3150
 Red. masses --      3.6581                 3.8147                 3.8820
 Frc consts  --      0.0051                 0.0111                 0.0137
 IR Inten    --      0.1805                 0.9943                 0.9445

                      4                      5                      6
                      A                      A                      A
 Frequencies --     96.0860               109.3032               167.3243
 Red. masses --      5.1642                 4.8808                 2.4981
 Frc consts  --      0.0281                 0.0344                 0.0412
 IR Inten    --      0.0644                 4.4013                 3.9604

                      7                      8                      9
                      A                      A                      A
 Frequencies --    189.0852               193.1228               225.1137
 Red. masses --      1.4184                 2.8136                 3.9236
 Frc consts  --      0.0299                 0.0618                 0.1171
 IR Inten    --    102.0336                26.6493                 4.6073

                     10                     11                     12
                      A                      A                      A
 Frequencies --    238.1417               264.2167               303.0602
 Red. masses --      2.5473                 1.5282                 2.2161
 Frc consts  --      0.0851                 0.0629                 0.1199
 IR Inten    --      3.2201                 5.2637                 7.5503

                     13                     14                     15
                      A                      A                      A
 Frequencies --    318.1182               357.3062               365.8077
 Red. masses --      2.7033                 2.0247                 5.2148
 Frc consts  --      0.1612                 0.1523                 0.4111
 IR Inten    --     24.8328                73.2641                 3.5830

                     16                     17                     18
                      A                      A                      A
 Frequencies --    417.3110               422.5380               455.0452
 Red. masses --      4.3674                 4.5963                 6.3068
 Frc consts  --      0.4481                 0.4835                 0.7694
 IR Inten    --      1.5570                19.8578                 4.8340

                     19                     20                     21
                      A                      A                      A
 Frequencies --    474.7939               521.0655               550.6435
 Red. masses --      4.4791                 4.0960                 4.2888
 Frc consts  --      0.5949                 0.6552                 0.7662
 IR Inten    --      0.7991                 7.7256                 3.5957

                     22                     23                     24
                      A                      A                      A
 Frequencies --    564.3034               586.0507               648.7953
 Red. masses --      6.0150                 6.2520                 3.6879
 Frc consts  --      1.1285                 1.2651                 0.9146
 IR Inten    --      3.2118                16.0151                 9.2816

                     25                     26                     27
                      A                      A                      A
 Frequencies --    666.5928               690.1359               753.3315
 Red. masses --      5.3926                 6.5381                 5.4826
 Frc consts  --      1.4118                 1.8347                 1.8332
 IR Inten    --      7.3339                 4.3971                 4.5050

                     28                     29                     30
                      A                      A                      A
 Frequencies --    789.2283               811.8434               827.3016
 Red. masses --      2.3750                 1.3771                 1.6800
 Frc consts  --      0.8716                 0.5348                 0.6775
 IR Inten    --      7.0284                 5.1833                 7.3315

                     31                     32                     33
                      A                      A                      A
 Frequencies --    838.1826               858.9937               910.1310
 Red. masses --      2.4680                 1.7605                 2.4126
 Frc consts  --      1.0216                 0.7654                 1.1774
 IR Inten    --     14.3109                35.6572                19.8223

                     34                     35                     36
                      A                      A                      A
 Frequencies --    953.7219               999.0293              1015.4459
 Red. masses --      1.3003                 2.0820                 4.9461
 Frc consts  --      0.6969                 1.2243                 3.0049
 IR Inten    --      0.0535                38.9810                59.2664

                     37                     38                     39
                      A                      A                      A
 Frequencies --   1056.1589              1059.6839              1119.8151
 Red. masses --      4.7178                 3.6364                 1.9690
 Frc consts  --      3.1006                 2.4059                 1.4547
 IR Inten    --    140.9021                24.0482                40.1067

                     40                     41                     42
                      A                      A                      A
 Frequencies --   1148.1545              1175.7139              1188.6203
 Red. masses --      1.7025                 1.3081                 2.3617
 Frc consts  --      1.3224                 1.0654                 1.9659
 IR Inten    --     19.8631                68.8962                 4.2910

                     43                     44                     45
                      A                      A                      A
 Frequencies --   1204.4587              1210.3320              1230.6089
 Red. masses --      1.9250                 1.4663                 1.6250
 Frc consts  --      1.6454                 1.2655                 1.4499
 IR Inten    --     33.0432                35.0621                12.0530

                     46                     47                     48
                      A                      A                      A
 Frequencies --   1273.8440              1286.7095              1343.2099
 Red. masses --      2.6809                 2.2646                 3.0437
 Frc consts  --      2.5631                 2.2090                 3.2355
 IR Inten    --     78.0318               352.9197                61.7391

                     49                     50                     51
                      A                      A                      A
 Frequencies --   1353.2938              1372.6393              1394.6615
 Red. masses --      1.4214                 1.2728                 2.5644
 Frc consts  --      1.5338                 1.4129                 2.9389
 IR Inten    --      2.5020                 9.6994                26.0624

                     52                     53                     54
                      A                      A                      A
 Frequencies --   1423.8079              1441.7440              1445.1400
 Red. masses --      1.2441                 1.2553                 1.5970
 Frc consts  --      1.4859                 1.5374                 1.9650
 IR Inten    --      8.6472                82.8600                56.2292

                     55                     56                     57
                      A                      A                      A
 Frequencies --   1450.1002              1508.9403              1516.5140
 Red. masses --      2.3742                 3.1379                 1.0612
 Frc consts  --      2.9415                 4.2095                 1.4380
 IR Inten    --      9.8457                85.5924                 3.3692

                     58                     59                     60
                      A                      A                      A
 Frequencies --   1529.5613              1537.8570              1549.4452
 Red. masses --      1.0609                 1.0791                 1.1488
 Frc consts  --      1.4624                 1.5036                 1.6250
 IR Inten    --      0.8420                 5.6753                11.6615

                     61                     62                     63
                      A                      A                      A
 Frequencies --   1613.8412              1642.8337              1668.6953
 Red. masses --      6.9876                 6.9780                 6.4653
 Frc consts  --     10.7225                11.0960                10.6071
 IR Inten    --     18.5530                 2.3748               128.2212

                     64                     65                     66
                      A                      A                      A
 Frequencies --   3011.4835              3053.9789              3072.5702
 Red. masses --      1.0726                 1.0353                 1.0596
 Frc consts  --      5.7313                 5.6891                 5.8938
 IR Inten    --     50.4504                15.9241                28.6719

                     67                     68                     69
                      A                      A                      A
 Frequencies --   3116.9090              3123.2869              3139.9744
 Red. masses --      1.1058                 1.1009                 1.1067
 Frc consts  --      6.3295                 6.3272                 6.4291
 IR Inten    --      3.2395                33.6649                50.3316

                     70                     71                     72
                      A                      A                      A
 Frequencies --   3148.1339              3195.7476              3221.3341
 Red. masses --      1.0919                 1.0887                 1.0937
 Frc consts  --      6.3756                 6.5512                 6.6867
 IR Inten    --     10.6452                 9.2627                11.3042

                     73                     74                     75
                      A                      A                      A
 Frequencies --   3240.6312              3730.1639              3739.2452
 Red. masses --      1.0937                 1.0663                 1.0663
 Frc consts  --      6.7673                 8.7419                 8.7844
 IR Inten    --      4.5345                10.2954                74.4831

 - Thermochemistry -
 -------------------
 Temperature   298.150 Kelvin.  Pressure   1.00000 Atm.
 Atom     1 has atomic number  6 and mass  12.00000

 Molecular mass:   224.05072 amu.
 Principal axes and moments of inertia in atomic units:
                           1         2         3
     Eigenvalues --  1696.301405165.777616366.68862
           X            0.99993   0.00173  -0.01156
           Y           -0.00191   0.99988  -0.01556
           Z            0.01153   0.01558   0.99981
 This molecule is an asymmetric top.
 Rotational symmetry number  1.
 Warning -- assumption of classical behavior for rotation
           may cause significant error
 Rotational temperatures (Kelvin)      0.05106     0.01677     0.01360
 Rotational constants (GHZ):           1.06393     0.34936     0.28347
 Zero-point vibrational energy     558161.0 (Joules/Mol)
                                  133.40367 (Kcal/Mol)
 Warning -- explicit consideration of  23 degrees of freedom as
           vibrations may cause significant error
 Vibrational temperatures:     70.13   100.93   111.24   138.25   157.26
          (Kelvin)            240.74   272.05   277.86   323.89   342.63
                              380.15   436.04   457.70   514.08   526.32
                              600.42   607.94   654.71   683.12   749.70
                              792.25   811.91   843.20   933.47   959.08
                              992.95  1083.88  1135.52  1168.06  1190.30
                             1205.96  1235.90  1309.48  1372.19  1437.38
                             1461.00  1519.58  1524.65  1611.16  1651.94
                             1691.59  1710.16  1732.95  1741.40  1770.57
                             1832.78  1851.29  1932.58  1947.09  1974.92
                             2006.61  2048.54  2074.35  2079.23  2086.37
                             2171.03  2181.93  2200.70  2212.63  2229.31
                             2321.96  2363.67  2400.88  4332.85  4393.99
                             4420.74  4484.54  4493.71  4517.72  4529.46
                             4597.97  4634.78  4662.55  5366.87  5379.94

 Zero-point correction=                           0.212592 (Hartree/Particle)
 Thermal correction to Energy=                    0.227190
 Thermal correction to Enthalpy=                  0.228134
 Thermal correction to Gibbs Free Energy=         0.170954
 Sum of electronic and zero-point Energies=          -1050.065236
 Sum of electronic and thermal Energies=             -1050.050639
 Sum of electronic and thermal Enthalpies=           -1050.049695
 Sum of electronic and thermal Free Energies=        -1050.106874

                     E (Thermal)             CV                S
                      KCal/Mol        Cal/Mol-Kelvin    Cal/Mol-Kelvin
 Total                  142.564             55.020            120.345
 Electronic               0.000              0.000              0.000
 Translational            0.889              2.981             42.123
 Rotational               0.889              2.981             32.389
 Vibrational            140.786             49.059             45.833
 Vibration     1          0.595              1.978              4.868
 Vibration     2          0.598              1.968              4.149
 Vibration     3          0.599              1.964              3.958
 Vibration     4          0.603              1.952              3.532
 Vibration     5          0.606              1.942              3.281
 Vibration     6          0.624              1.883              2.465
 Vibration     7          0.633              1.855              2.237
 Vibration     8          0.635              1.849              2.198
 Vibration     9          0.650              1.803              1.918
 Vibration    10          0.656              1.782              1.817
 Vibration    11          0.671              1.739              1.634
 Vibration    12          0.695              1.668              1.400
 Vibration    13          0.705              1.639              1.320
 Vibration    14          0.732              1.560              1.134
 Vibration    15          0.739              1.543              1.097
 Vibration    16          0.780              1.433              0.901
 Vibration    17          0.785              1.421              0.883
 Vibration    18          0.813              1.350              0.781
 Vibration    19          0.832              1.306              0.724
 Vibration    20          0.876              1.203              0.607
 Vibration    21          0.906              1.138              0.543
 Vibration    22          0.920              1.108              0.515
 Vibration    23          0.943              1.062              0.474

 Normal termination of Gaussian 16 at Mon Jan  4 09:37:04 2021.

 ----------------------------------------------------------------------
 # B3LYP/6-311++G(d,p) empiricaldispersion=gd3bj scf=xqc pop=npa geom=c
 heck
 ----------------------------------------------------------------------

 ---------------------------------------
 CID_131440758_JID_5348_Energie_neutraal
 ---------------------------------------
 Structure from the checkpoint file:  "JID_5348.chk"
 Charge =  0 Multiplicity = 1

 SCF Done:  E(RB3LYP) =  -1050.49908181     A.U. after   15 cycles
 Normal termination of Gaussian 16 at Mon Jan  4 09:40:05 2021.

 ----------------------------------------------------------------------
 # B3LYP/6-311++G(d,p) empiricaldispersion=gd3bj scf=xqc pop=npa geom=c
 heck
 ----------------------------------------------------------------------

 -------------------------------------
 CID_131440758_JID_5348_Energie_kation
 -------------------------------------
 Structure from the checkpoint file:  "JID_5348.chk"
 Charge =  1 Multiplicity = 2

 SCF Done:  E(UB3LYP) =  -1050.21780823     A.U. after   26 cycles
 Normal termination of Gaussian 16 at Mon Jan  4 09:46:59 2021.
 Gaussian 16:  ES64L-G16RevA.03 25-Dec-2016

 ----------------------------------------------------------------------
 # B3LYP/6-311++G(d,p) empiricaldispersion=gd3bj scf=xqc pop=npa geom=c
 heck
 ----------------------------------------------------------------------

 ------------------------------------
 CID_131440758_JID_5348_Energie_anion
 ------------------------------------
 Structure from the checkpoint file:  "JID_5348.chk"
 Charge = -1 Multiplicity = 2

                         Standard orientation:
 ---------------------------------------------------------------------
 Center     Atomic      Atomic             Coordinates (Angstroms)
 Number     Number       Type             X           Y           Z
 ---------------------------------------------------------------------
      1          6           0       -3.964812   -0.832967    1.222764
      2          6           0       -3.599916    0.277164    0.248080
      3          8           0       -2.820826   -0.209777   -0.868721
      4          6           0       -1.513473   -0.528003   -0.582198
      5          6           0       -0.542329    0.482318   -0.498528
      6          6           0        0.767691    0.074751   -0.227085
      7          6           0        1.144546   -1.279943   -0.059012
      8          6           0        0.145827   -2.258580   -0.177948
      9          6           0       -1.165100   -1.879965   -0.434793
     10          6           0        2.554911   -1.441869    0.188638
     11          6           0        3.219786   -0.261320    0.218356
     12         16           0        2.164451    1.146500   -0.040476
     13          8           0        4.537155   -0.098608    0.493750
     14          6           0       -0.892277    1.939944   -0.655700
     15          8           0       -1.202284    2.580346    0.587884
     16          1           0       -4.509843   -1.634134    0.712467
     17          1           0       -4.600146   -0.434790    2.022377
     18          1           0       -3.069530   -1.263076    1.683473
     19          1           0       -4.496318    0.701499   -0.212860
     20          1           0       -3.052465    1.082259    0.749880
     21          1           0        0.400894   -3.308506   -0.065998
     22          1           0       -1.951033   -2.621244   -0.531898
     23          1           0        3.049046   -2.396422    0.322212
     24          1           0        4.876298    0.694277    0.049184
     25          1           0       -0.068327    2.465148   -1.162361
     26          1           0       -1.787313    2.042160   -1.270690
     27          1           0       -0.463970    2.403959    1.193078
 ---------------------------------------------------------------------

 SCF Done:  E(UB3LYP) =  -1050.49127900     A.U. after   33 cycles
 SCF Done:  E(UB3LYP) =  -1050.49127889     a.u. after    3 cycles

 The electronic state is 2-A.
 Alpha  occ. eigenvalues --  -88.75545 -19.03714 -19.03517 -19.03028 -10.13891
 Alpha  occ. eigenvalues --  -10.12917 -10.12200 -10.11466 -10.09340 -10.08125
 Alpha  occ. eigenvalues --  -10.07345 -10.07162 -10.06607 -10.06530 -10.05186
 Alpha  occ. eigenvalues --   -7.84149  -5.80459  -5.80119  -5.79663  -0.95259
 Alpha  occ. eigenvalues --   -0.94695  -0.92805  -0.77559  -0.71390  -0.67690
 Alpha  occ. eigenvalues --   -0.66883  -0.61594  -0.60584  -0.57633  -0.54076
 Alpha  occ. eigenvalues --   -0.49484  -0.48469  -0.46357  -0.41953  -0.40754
 Alpha  occ. eigenvalues --   -0.40394  -0.38637  -0.37008  -0.36712  -0.34919
 Alpha  occ. eigenvalues --   -0.34055  -0.32781  -0.31751  -0.30621  -0.30193
 Alpha  occ. eigenvalues --   -0.29795  -0.28860  -0.28378  -0.26490  -0.25099
 Alpha  occ. eigenvalues --   -0.24044  -0.23691  -0.22202  -0.19460  -0.18526
 Alpha  occ. eigenvalues --   -0.18135  -0.16661  -0.12226  -0.09592   0.05185
 Alpha virt. eigenvalues --    0.06388   0.07347   0.08054   0.08516   0.08892
 Alpha virt. eigenvalues --    0.09485   0.09926   0.10861   0.10994   0.11798
 Alpha virt. eigenvalues --    0.12503   0.12601   0.12908   0.13957   0.14094

  Beta  occ. eigenvalues --  -88.75525 -19.03710 -19.03383 -19.03009 -10.13769
  Beta  occ. eigenvalues --  -10.12901 -10.12197 -10.11373 -10.09291 -10.08125
  Beta  occ. eigenvalues --  -10.07292 -10.07119 -10.06628 -10.06434 -10.05200
  Beta  occ. eigenvalues --   -7.84125  -5.80419  -5.80103  -5.79647  -0.95217
  Beta  occ. eigenvalues --   -0.94399  -0.92760  -0.77416  -0.71251  -0.67572
  Beta  occ. eigenvalues --   -0.66816  -0.61501  -0.60428  -0.57533  -0.54004
  Beta  occ. eigenvalues --   -0.49292  -0.48371  -0.46195  -0.41818  -0.40676
  Beta  occ. eigenvalues --   -0.40313  -0.38574  -0.36931  -0.36579  -0.34837
  Beta  occ. eigenvalues --   -0.33983  -0.32731  -0.31688  -0.30493  -0.30054
  Beta  occ. eigenvalues --   -0.29730  -0.28768  -0.28307  -0.26345  -0.25011
  Beta  occ. eigenvalues --   -0.23920  -0.23609  -0.21944  -0.19297  -0.18452
  Beta  occ. eigenvalues --   -0.18064  -0.16404  -0.12041  -0.09173
  Beta virt. eigenvalues --    0.06315   0.07750   0.07978   0.08610   0.09022
  Beta virt. eigenvalues --    0.09363   0.09809   0.10025   0.10892   0.11000
  Beta virt. eigenvalues --    0.11846   0.12546   0.12825   0.13397   0.13920

 Mulliken charges and spin densities:
               1          2
     1  C   -0.554587  -0.004456
     2  C   -0.123787  -0.018504
     3  O   -0.115157  -0.001305
     4  C   -1.081388   0.469031
     5  C    0.413441   0.336518
     6  C   -0.057223   0.280291
     7  C    1.098779  -0.641844
     8  C   -0.047429  -0.327271
     9  C   -0.162776   0.012300
    10  C    2.238283  -1.855834
    11  C   -0.683675   0.349410
    12  S   -1.113795   0.548751
    13  O   -0.223225   0.009426
    14  C   -0.546088  -0.076144
    15  O   -0.156824  -0.009751
    16  H    0.142093   0.009590
    17  H    0.117749  -0.000237
    18  H    0.159526   0.000147
    19  H    0.112341   0.010056
    20  H    0.172815   0.009332
    21  H    0.123789   0.002834
    22  H    0.112480   0.031228
    23  H    0.064900   0.083426
    24  H   -1.194941   1.517507
    25  H   -0.064881   0.192164
    26  H    0.200175   0.011744
    27  H    0.169405   0.061590
 Sum of Mulliken charges =  -1.00000   1.00000

 Dipole moment (field-independent basis, Debye):
    X=            -12.9423    Y=             -4.0783    Z=              1.2694  Tot=             13.6289
 Quadrupole moment (field-independent basis, Debye-Ang):
   XX=           -193.9944   YY=           -122.0801   ZZ=           -111.6720
   XY=            -15.7515   XZ=             -1.2740   YZ=             -1.1547

 Summary of Natural Population Analysis:

                                       Natural Population
                Natural  -----------------------------------------------
    Atom  No    Charge         Core      Valence    Rydberg      Total
 -----------------------------------------------------------------------
      C    1   -0.30201      0.99967     2.29846    0.00388     3.30201
      C    2   -0.01185      0.99958     2.00270    0.00957     3.01185
      O    3   -0.29914      0.99987     3.28934    0.00993     4.29914
      C    4    0.16095      0.99933     1.82452    0.01520     2.83905
      C    5   -0.06339      0.99938     2.05316    0.01085     3.06339
      C    6   -0.07190      0.99937     2.06110    0.01143     3.07190
      C    7   -0.04659      0.99949     2.03434    0.01275     3.04659
      C    8   -0.04949      0.99953     2.04600    0.00395     3.04949
      C    9   -0.14313      0.99955     2.12970    0.01387     3.14313
      C   10   -0.17251      0.99941     2.16204    0.01106     3.17251
      C   11    0.12301      0.99940     1.85818    0.01940     2.87699
      S   12    0.16545      4.99943     2.81519    0.01993     7.83455
      O   13   -0.33847      0.99986     3.32894    0.00967     4.33847
      C   14   -0.02278      0.99955     2.00950    0.01373     3.02278
      O   15   -0.37053      0.99990     3.36451    0.00612     4.37053
      H   16    0.09646      0.00000     0.40245    0.00108     0.40354
      H   17    0.09667      0.00000     0.40248    0.00085     0.40333
      H   18    0.10487      0.00000     0.39430    0.00083     0.39513
      H   19    0.08208      0.00000     0.41685    0.00107     0.41792
      H   20    0.09562      0.00000     0.40295    0.00143     0.40438
      H   21    0.09287      0.00000     0.40589    0.00124     0.40713
      H   22    0.09920      0.00000     0.39911    0.00169     0.40080
      H   23    0.10760      0.00000     0.39148    0.00092     0.39240
      H   24    0.25723      0.00000     0.16359    0.07919     0.24277
      H   25    0.08599      0.00000     0.41259    0.00141     0.41401
      H   26    0.09381      0.00000     0.40466    0.00153     0.40619
      H   27    0.23002      0.00000     0.26686    0.00312     0.26998
 =======================================================================
   * Total *    0.00005     18.99333    39.74089    0.26573    58.99995

 Normal termination of Gaussian 16 at Mon Jan  4 10:17:24 2021.
