 Gaussian 16, Revision A.03,

 -----------------------------------------------------------
 # opt freq B3LYP/6-31G(d) empiricaldispersion=gd3bj scf=xqc
 -----------------------------------------------------------

 ------------------------------
 CID_43647184_JID_5998_neutraal
 ------------------------------
 Symbolic Z-matrix:
 Charge =  0 Multiplicity = 1

 SCF Done:  E(RB3LYP) =  -704.852421706     A.U. after   15 cycles
 SCF Done:  E(RB3LYP) =  -704.856764400     A.U. after   13 cycles
 SCF Done:  E(RB3LYP) =  -704.856675117     A.U. after   13 cycles
 SCF Done:  E(RB3LYP) =  -704.858111300     A.U. after   12 cycles
 SCF Done:  E(RB3LYP) =  -704.859001896     A.U. after   12 cycles
 SCF Done:  E(RB3LYP) =  -704.859518171     A.U. after   13 cycles
 SCF Done:  E(RB3LYP) =  -704.859751344     A.U. after   12 cycles
 SCF Done:  E(RB3LYP) =  -704.859625401     A.U. after   12 cycles
 SCF Done:  E(RB3LYP) =  -704.859880310     A.U. after   12 cycles
 SCF Done:  E(RB3LYP) =  -704.859945072     A.U. after   10 cycles
 SCF Done:  E(RB3LYP) =  -704.860374169     A.U. after    9 cycles
 SCF Done:  E(RB3LYP) =  -704.860374383     A.U. after    8 cycles
 SCF Done:  E(RB3LYP) =  -704.860374525     A.U. after    8 cycles
 SCF Done:  E(RB3LYP) =  -704.860374579     A.U. after    7 cycles
 Optimization completed.
    -- Stationary point found.
 Normal termination of Gaussian 16 at Thu Dec 10 18:09:30 2020.

 --------------------------------------------------------------------
 #N Geom=AllCheck Guess=TCheck SCRF=Check GenChk RB3LYP/6-31G(d) Freq
 --------------------------------------------------------------------

 Structure from the checkpoint file:  "JID_5998.chk"
 ------------------------------
 CID_43647184_JID_5998_neutraal
 ------------------------------
 Charge =  0 Multiplicity = 1

 SCF Done:  E(RB3LYP) =  -704.860374579     A.U. after    1 cycles

  Exact polarizability: 146.185  -8.995 137.569 -10.374  -4.132  96.561
 Approx polarizability: 207.215 -10.496 219.710 -27.416 -18.343 150.904

                      1                      2                      3
                      A                      A                      A
 Frequencies --     23.5220                50.7162                67.1064
 Red. masses --      3.5742                 2.3045                 3.4606
 Frc consts  --      0.0012                 0.0035                 0.0092
 IR Inten    --      1.1050                 2.3190                 0.4587

                      4                      5                      6
                      A                      A                      A
 Frequencies --     83.0503                89.2167               115.5876
 Red. masses --      5.6738                 2.4107                 1.1393
 Frc consts  --      0.0231                 0.0113                 0.0090
 IR Inten    --      0.7282                 0.5769                 0.1215

                      7                      8                      9
                      A                      A                      A
 Frequencies --    119.6003               139.5118               177.9633
 Red. masses --      2.0471                 2.8566                 2.5141
 Frc consts  --      0.0173                 0.0328                 0.0469
 IR Inten    --      0.8722                 3.6615                 1.1250

                     10                     11                     12
                      A                      A                      A
 Frequencies --    187.9084               210.3575               231.8373
 Red. masses --      4.3164                 1.6186                 2.2286
 Frc consts  --      0.0898                 0.0422                 0.0706
 IR Inten    --      9.8540                 2.2327                 8.4068

                     13                     14                     15
                      A                      A                      A
 Frequencies --    246.7814               282.5054               297.3946
 Red. masses --      2.3312                 2.7675                 3.6682
 Frc consts  --      0.0836                 0.1301                 0.1911
 IR Inten    --      1.8376                 6.7113                 0.6419

                     16                     17                     18
                      A                      A                      A
 Frequencies --    323.1399               370.9000               403.3905
 Red. masses --      2.3822                 4.1688                 3.0513
 Frc consts  --      0.1466                 0.3379                 0.2925
 IR Inten    --      2.4187                 1.1724                 2.5186

                     19                     20                     21
                      A                      A                      A
 Frequencies --    419.1830               468.1358               525.7236
 Red. masses --      5.0038                 2.5887                 2.5578
 Frc consts  --      0.5180                 0.3343                 0.4165
 IR Inten    --      2.3908                 6.8291                24.4221

                     22                     23                     24
                      A                      A                      A
 Frequencies --    537.6327               598.2783               623.0696
 Red. masses --      3.9897                 3.5461                 3.2701
 Frc consts  --      0.6795                 0.7478                 0.7480
 IR Inten    --      7.0211                 9.4818                14.1482

                     25                     26                     27
                      A                      A                      A
 Frequencies --    657.8383               667.1661               698.1761
 Red. masses --      5.8865                 1.7985                 4.6850
 Frc consts  --      1.5009                 0.4717                 1.3455
 IR Inten    --      1.0849                82.9384                 1.3780

                     28                     29                     30
                      A                      A                      A
 Frequencies --    742.3072               771.8263               797.2292
 Red. masses --      4.5228                 3.7979                 1.4802
 Frc consts  --      1.4683                 1.3330                 0.5543
 IR Inten    --     37.3417                 4.2447                30.5513

                     31                     32                     33
                      A                      A                      A
 Frequencies --    851.9017               925.2841               948.8665
 Red. masses --      2.4016                 2.6514                 2.1277
 Frc consts  --      1.0269                 1.3374                 1.1287
 IR Inten    --      3.5197                37.4988                 3.2193

                     34                     35                     36
                      A                      A                      A
 Frequencies --    974.3657              1025.5442              1033.3241
 Red. masses --      2.1909                 1.7395                 1.7197
 Frc consts  --      1.2255                 1.0779                 1.0818
 IR Inten    --      9.0754                 0.8007                18.9697

                     37                     38                     39
                      A                      A                      A
 Frequencies --   1068.6022              1075.1719              1078.0147
 Red. masses --      2.4364                 2.2078                 1.5651
 Frc consts  --      1.6392                 1.5037                 1.0716
 IR Inten    --     20.1059                 7.2101                 5.4514

                     40                     41                     42
                      A                      A                      A
 Frequencies --   1080.7296              1120.9141              1141.2186
 Red. masses --      1.5666                 1.8848                 2.1185
 Frc consts  --      1.0781                 1.3953                 1.6256
 IR Inten    --      3.9073                 2.9604                11.8276

                     43                     44                     45
                      A                      A                      A
 Frequencies --   1191.7637              1200.0217              1291.8317
 Red. masses --      2.8188                 2.3183                 2.3876
 Frc consts  --      2.3588                 1.9670                 2.3476
 IR Inten    --     16.6241                 2.5042                 9.4291

                     46                     47                     48
                      A                      A                      A
 Frequencies --   1326.8538              1339.1156              1362.5449
 Red. masses --      1.4764                 1.9483                 1.4414
 Frc consts  --      1.5314                 2.0584                 1.5767
 IR Inten    --     22.3314                 8.3179                19.1507

                     49                     50                     51
                      A                      A                      A
 Frequencies --   1392.3966              1419.4128              1429.2243
 Red. masses --      1.5510                 1.8102                 1.7105
 Frc consts  --      1.7717                 2.1488                 2.0587
 IR Inten    --     53.5956                15.8522                40.8892

                     52                     53                     54
                      A                      A                      A
 Frequencies --   1440.0127              1443.0527              1444.1597
 Red. masses --      1.3658                 1.2680                 1.2607
 Frc consts  --      1.6687                 1.5557                 1.5492
 IR Inten    --      9.8231                 3.6333                22.2753

                     55                     56                     57
                      A                      A                      A
 Frequencies --   1450.4933              1490.3932              1499.1896
 Red. masses --      2.1684                 1.3464                 1.1540
 Frc consts  --      2.6879                 1.7621                 1.5282
 IR Inten    --     45.4770                90.4249                 7.5655

                     58                     59                     60
                      A                      A                      A
 Frequencies --   1509.1183              1511.5957              1512.9322
 Red. masses --      1.6071                 1.8634                 1.0991
 Frc consts  --      2.1565                 2.5086                 1.4822
 IR Inten    --     69.2651                10.9606                 4.4620

                     61                     62                     63
                      A                      A                      A
 Frequencies --   1522.8492              1524.8377              1527.4119
 Red. masses --      1.1324                 1.2077                 1.1793
 Frc consts  --      1.5472                 1.6544                 1.6211
 IR Inten    --      0.5474                 5.4891                11.5468

                     64                     65                     66
                      A                      A                      A
 Frequencies --   1531.0351              1544.2769              1549.3603
 Red. masses --      1.3292                 1.2484                 2.3534
 Frc consts  --      1.8357                 1.7541                 3.3285
 IR Inten    --      9.7326                 6.8375                28.6105

                     67                     68                     69
                      A                      A                      A
 Frequencies --   1600.4042              1774.3048              1786.8167
 Red. masses --      5.0382                 8.7770                 7.6615
 Frc consts  --      7.6031                16.2799                14.4120
 IR Inten    --    146.0486               214.8946               404.1793

                     70                     71                     72
                      A                      A                      A
 Frequencies --   2912.9531              3055.2276              3055.5636
 Red. masses --      1.0823                 1.0376                 1.0380
 Frc consts  --      5.4110                 5.7067                 5.7097
 IR Inten    --    137.2359                11.9550                32.8481

                     73                     74                     75
                      A                      A                      A
 Frequencies --   3056.3219              3061.0173              3107.4237
 Red. masses --      1.0442                 1.0711                 1.0588
 Frc consts  --      5.7469                 5.9128                 6.0236
 IR Inten    --      5.6756                46.5517                10.1929

                     76                     77                     78
                      A                      A                      A
 Frequencies --   3108.7890              3116.1943              3118.1984
 Red. masses --      1.1012                 1.0942                 1.1014
 Frc consts  --      6.2707                 6.2603                 6.3094
 IR Inten    --     13.6575                 3.9257                20.4172

                     79                     80                     81
                      A                      A                      A
 Frequencies --   3144.0314              3149.3779              3158.3207
 Red. masses --      1.0992                 1.1008                 1.0980
 Frc consts  --      6.4015                 6.4332                 6.4530
 IR Inten    --     18.9114                 8.4847                 9.2369

                     82                     83                     84
                      A                      A                      A
 Frequencies --   3164.3816              3186.4456              3580.1775
 Red. masses --      1.1068                 1.0999                 1.0754
 Frc consts  --      6.5297                 6.5801                 8.1213
 IR Inten    --      1.2641                 1.0199                20.2997

 - Thermochemistry -
 -------------------
 Temperature   298.150 Kelvin.  Pressure   1.00000 Atm.
 Atom     1 has atomic number  6 and mass  12.00000

 Molecular mass:   209.11643 amu.
 Principal axes and moments of inertia in atomic units:
                           1         2         3
     Eigenvalues --  2117.608083947.314424803.07371
           X            0.99989  -0.01000   0.01135
           Y            0.00964   0.99945   0.03187
           Z           -0.01166  -0.03176   0.99943
 This molecule is an asymmetric top.
 Rotational symmetry number  1.
 Warning -- assumption of classical behavior for rotation
           may cause significant error
 Rotational temperatures (Kelvin)      0.04090     0.02194     0.01803
 Rotational constants (GHZ):           0.85225     0.45721     0.37575
 Zero-point vibrational energy     656994.0 (Joules/Mol)
                                  157.02534 (Kcal/Mol)
 Warning -- explicit consideration of  23 degrees of freedom as
           vibrations may cause significant error
 Vibrational temperatures:     33.84    72.97    96.55   119.49   128.36
          (Kelvin)            166.30   172.08   200.73   256.05   270.36
                              302.66   333.56   355.06   406.46   427.88
                              464.93   533.64   580.39   603.11   673.54
                              756.40   773.53   860.79   896.46   946.48
                              959.90  1004.52  1068.01  1110.49  1147.03
                             1225.70  1331.28  1365.21  1401.89  1475.53
                             1486.72  1537.48  1546.93  1551.02  1554.93
                             1612.75  1641.96  1714.68  1726.56  1858.66
                             1909.05  1926.69  1960.40  2003.35  2042.22
                             2056.34  2071.86  2076.23  2077.82  2086.94
                             2144.34  2157.00  2171.28  2174.85  2176.77
                             2191.04  2193.90  2197.60  2202.82  2221.87
                             2229.18  2302.62  2552.83  2570.83  4191.09
                             4395.79  4396.27  4397.37  4404.12  4470.89
                             4472.85  4483.51  4486.39  4523.56  4531.25
                             4544.12  4552.84  4584.58  5151.08

 Zero-point correction=                           0.250236 (Hartree/Particle)
 Thermal correction to Energy=                    0.266288
 Thermal correction to Enthalpy=                  0.267232
 Thermal correction to Gibbs Free Energy=         0.205795
 Sum of electronic and zero-point Energies=           -704.610139
 Sum of electronic and thermal Energies=              -704.594086
 Sum of electronic and thermal Enthalpies=            -704.593142
 Sum of electronic and thermal Free Energies=         -704.654580

                     E (Thermal)             CV                S
                      KCal/Mol        Cal/Mol-Kelvin    Cal/Mol-Kelvin
 Total                  167.098             57.368            129.306
 Electronic               0.000              0.000              0.000
 Translational            0.889              2.981             41.917
 Rotational               0.889              2.981             32.063
 Vibrational            165.321             51.406             55.327
 Vibration     1          0.593              1.985              6.312
 Vibration     2          0.595              1.977              4.789
 Vibration     3          0.598              1.970              4.236
 Vibration     4          0.600              1.961              3.817
 Vibration     5          0.602              1.957              3.677
 Vibration     6          0.608              1.936              3.173
 Vibration     7          0.609              1.933              3.107
 Vibration     8          0.615              1.914              2.811
 Vibration     9          0.628              1.869              2.350
 Vibration    10          0.633              1.856              2.248
 Vibration    11          0.643              1.825              2.041
 Vibration    12          0.653              1.792              1.865
 Vibration    13          0.661              1.768              1.753
 Vibration    14          0.682              1.706              1.518
 Vibration    15          0.691              1.679              1.432
 Vibration    16          0.708              1.629              1.294
 Vibration    17          0.743              1.532              1.076
 Vibration    18          0.769              1.463              0.950
 Vibration    19          0.782              1.429              0.895
 Vibration    20          0.825              1.321              0.743
 Vibration    21          0.881              1.193              0.597
 Vibration    22          0.893              1.167              0.570
 Vibration    23          0.956              1.035              0.453

                           ! Non-Optimized Parameters !
 Normal termination of Gaussian 16 at Thu Dec 10 18:19:21 2020.

 ----------------------------------------------------------------------
 # B3LYP/6-311++G(d,p) empiricaldispersion=gd3bj scf=xqc pop=npa geom=c
 heck
 ----------------------------------------------------------------------

 --------------------------------------
 CID_43647184_JID_5998_Energie_neutraal
 --------------------------------------
 Structure from the checkpoint file:  "JID_5998.chk"
 Charge =  0 Multiplicity = 1

 SCF Done:  E(RB3LYP) =  -705.060927506     A.U. after   17 cycles
 Normal termination of Gaussian 16 at Thu Dec 10 18:23:24 2020.

 ----------------------------------------------------------------------
 # B3LYP/6-311++G(d,p) empiricaldispersion=gd3bj scf=xqc pop=npa geom=c
 heck
 ----------------------------------------------------------------------

 ------------------------------------
 CID_43647184_JID_5998_Energie_kation
 ------------------------------------
 Structure from the checkpoint file:  "JID_5998.chk"
 Charge =  1 Multiplicity = 2

 SCF Done:  E(UB3LYP) =  -704.737914798     A.U. after   33 cycles
 SCF Done:  E(UB3LYP) =  -704.737933684     a.u. after    3 cycles
 Normal termination of Gaussian 16 at Thu Dec 10 18:54:28 2020.
 Gaussian 16:  ES64L-G16RevA.03 25-Dec-2016

 ----------------------------------------------------------------------
 # B3LYP/6-311++G(d,p) empiricaldispersion=gd3bj scf=xqc pop=npa geom=c
 heck
 ----------------------------------------------------------------------

 -----------------------------------
 CID_43647184_JID_5998_Energie_anion
 -----------------------------------
 Structure from the checkpoint file:  "JID_5998.chk"
 Charge = -1 Multiplicity = 2

                         Standard orientation:
 ---------------------------------------------------------------------
 Center     Atomic      Atomic             Coordinates (Angstroms)
 Number     Number       Type             X           Y           Z
 ---------------------------------------------------------------------
      1          6           0        1.031376    1.789894    1.782956
      2          6           0        2.092736    1.713074    0.684186
      3          7           0        2.736523    0.404351    0.610945
      4          6           0        2.507077   -0.632037   -0.240272
      5          8           0        3.072963   -1.712921   -0.120395
      6          6           0        1.511942   -0.415027   -1.395170
      7          7           0        0.155360   -0.138603   -0.955402
      8          6           0       -0.668481   -0.957658   -0.261222
      9          6           0       -1.840247   -0.219649   -0.047168
     10          6           0       -1.605790    1.046675   -0.667104
     11          7           0       -0.399111    1.088919   -1.215075
     12          6           0       -2.515688    2.232302   -0.748255
     13          6           0       -3.041146   -0.641288    0.653825
     14          8           0       -3.218985   -1.731631    1.178887
     15          6           0       -0.310281   -2.353482    0.123476
     16          1           0        0.231033    1.066812    1.602370
     17          1           0        0.589372    2.791863    1.811794
     18          1           0        1.466736    1.581918    2.767128
     19          1           0        1.639012    1.940027   -0.281186
     20          1           0        2.875804    2.460677    0.858309
     21          1           0        3.362242    0.151934    1.367716
     22          1           0        1.804630    0.422803   -2.030844
     23          1           0        1.534430   -1.334410   -1.983514
     24          1           0       -3.447399    1.988293   -1.271128
     25          1           0       -2.785857    2.597906    0.249041
     26          1           0       -2.016712    3.039504   -1.290027
     27          1           0       -3.841979    0.129212    0.692677
     28          1           0        0.604719   -2.387889    0.723247
     29          1           0       -1.137424   -2.782878    0.688377
     30          1           0       -0.128834   -2.968850   -0.766674
 ---------------------------------------------------------------------

 SCF Done:  E(UB3LYP) =  -705.060441217     A.U. after   33 cycles
 SCF Done:  E(UB3LYP) =  -705.060441217     a.u. after    3 cycles

 The electronic state is 2-A.
 Alpha  occ. eigenvalues --  -18.99454 -18.94455 -14.27200 -14.24256 -14.21348
 Alpha  occ. eigenvalues --  -10.18073 -10.12394 -10.10712 -10.08700 -10.08560
 Alpha  occ. eigenvalues --  -10.08396 -10.06676 -10.06016 -10.05561 -10.03853
 Alpha  occ. eigenvalues --   -0.94799  -0.93239  -0.87893  -0.82873  -0.74875
 Alpha  occ. eigenvalues --   -0.68953  -0.65837  -0.64389  -0.59730  -0.58395
 Alpha  occ. eigenvalues --   -0.54234  -0.51810  -0.48868  -0.44960  -0.42063
 Alpha  occ. eigenvalues --   -0.40480  -0.39950  -0.37984  -0.35943  -0.34779
 Alpha  occ. eigenvalues --   -0.33133  -0.32664  -0.31881  -0.31449  -0.30761
 Alpha  occ. eigenvalues --   -0.30550  -0.29262  -0.28925  -0.28389  -0.27917
 Alpha  occ. eigenvalues --   -0.27242  -0.26841  -0.25508  -0.24865  -0.24376
 Alpha  occ. eigenvalues --   -0.18505  -0.17121  -0.16156  -0.13705  -0.12498
 Alpha  occ. eigenvalues --   -0.10460   0.04482
 Alpha virt. eigenvalues --    0.06002   0.07887   0.08391   0.08797   0.09724
 Alpha virt. eigenvalues --    0.10295   0.10630   0.11053   0.11395   0.11915
 Alpha virt. eigenvalues --    0.12501   0.13333   0.13878   0.14180   0.14807

  Beta  occ. eigenvalues --  -18.99449 -18.94014 -14.27137 -14.24245 -14.21421
  Beta  occ. eigenvalues --  -10.18066 -10.12396 -10.10688 -10.08398 -10.08321
  Beta  occ. eigenvalues --  -10.08251 -10.06674 -10.06001 -10.05585 -10.03908
  Beta  occ. eigenvalues --   -0.94777  -0.93152  -0.87076  -0.82850  -0.74807
  Beta  occ. eigenvalues --   -0.68644  -0.65795  -0.64328  -0.59595  -0.58348
  Beta  occ. eigenvalues --   -0.54168  -0.51395  -0.48761  -0.44735  -0.41732
  Beta  occ. eigenvalues --   -0.40381  -0.39844  -0.37856  -0.35711  -0.34733
  Beta  occ. eigenvalues --   -0.33028  -0.32574  -0.31796  -0.31340  -0.30589
  Beta  occ. eigenvalues --   -0.30363  -0.29224  -0.28866  -0.28033  -0.27777
  Beta  occ. eigenvalues --   -0.27169  -0.26704  -0.25468  -0.24737  -0.22306
  Beta  occ. eigenvalues --   -0.18532  -0.17063  -0.16137  -0.13235  -0.11586
  Beta  occ. eigenvalues --   -0.10095
  Beta virt. eigenvalues --    0.07054   0.08051   0.08424   0.09113   0.09666
  Beta virt. eigenvalues --    0.09949   0.10517   0.10893   0.11020   0.11622
  Beta virt. eigenvalues --    0.11892   0.12819   0.13462   0.13859   0.14347

 Mulliken charges and spin densities:
               1          2
     1  C    0.381204  -0.812619
     2  C   -0.023584  -0.282050
     3  N   -0.050276  -0.086216
     4  C   -0.138657   0.073531
     5  O   -0.309700   0.006069
     6  C    0.039979  -0.323315
     7  N    0.172925   0.057508
     8  C    0.173029  -0.009042
     9  C    0.705823   0.118696
    10  C   -0.930641   0.086601
    11  N   -0.009356  -0.049253
    12  C   -0.524292  -0.117716
    13  C   -0.370022   0.318107
    14  O   -0.376266   0.140369
    15  C   -0.303973  -0.105090
    16  H    0.143192   0.047007
    17  H   -0.004699   0.126785
    18  H   -0.001508   0.136131
    19  H    0.292602  -0.132134
    20  H   -1.159248   1.363503
    21  H    0.122842   0.164843
    22  H    0.104137   0.088895
    23  H    0.189798   0.003120
    24  H    0.162986  -0.007944
    25  H    0.037554   0.136957
    26  H    0.096163   0.041167
    27  H    0.064091  -0.016253
    28  H    0.163382   0.027906
    29  H    0.210690  -0.002760
    30  H    0.141826   0.007197
 Sum of Mulliken charges =  -1.00000   1.00000

 Dipole moment (field-independent basis, Debye):
    X=              0.0955    Y=              0.4642    Z=             -4.0113  Tot=              4.0392
 Quadrupole moment (field-independent basis, Debye-Ang):
   XX=           -153.9699   YY=           -130.0745   ZZ=           -110.6342
   XY=            -16.3635   XZ=              1.5520   YZ=             -0.9532

 Summary of Natural Population Analysis:

                                       Natural Population
                Natural  -----------------------------------------------
    Atom  No    Charge         Core      Valence    Rydberg      Total
 -----------------------------------------------------------------------
      C    1   -0.28991      0.99965     2.28450    0.00575     3.28991
      C    2   -0.09686      0.99962     2.08615    0.01109     3.09686
      N    3   -0.31116      0.99966     2.80138    0.01012     3.81116
      C    4    0.33417      0.99968     1.64227    0.02389     2.66583
      O    5   -0.32599      0.99988     3.32023    0.00589     4.32599
      C    6   -0.12511      0.99958     2.11615    0.00939     3.12511
      N    7   -0.11235      0.99960     2.60125    0.01150     3.61235
      C    8    0.17342      0.99950     1.81572    0.01136     2.82658
      C    9   -0.13559      0.99941     2.12569    0.01049     3.13559
      C   10    0.10521      0.99957     1.88114    0.01408     2.89479
      N   11   -0.19275      0.99969     2.68198    0.01107     3.69275
      C   12   -0.30133      0.99963     2.29608    0.00562     3.30133
      C   13    0.24152      0.99967     1.73942    0.01938     2.75848
      O   14   -0.26232      0.99989     3.25551    0.00693     4.26232
      C   15   -0.31622      0.99963     2.31235    0.00424     3.31622
      H   16    0.10798      0.00000     0.39043    0.00159     0.39202
      H   17    0.10043      0.00000     0.39861    0.00096     0.39957
      H   18    0.09476      0.00000     0.40420    0.00104     0.40524
      H   19    0.10883      0.00000     0.38920    0.00197     0.39117
      H   20    0.09505      0.00000     0.40136    0.00359     0.40495
      H   21    0.19316      0.00000     0.30451    0.00233     0.30684
      H   22    0.11487      0.00000     0.38394    0.00119     0.38513
      H   23    0.10930      0.00000     0.38958    0.00112     0.39070
      H   24    0.10231      0.00000     0.39688    0.00081     0.39769
      H   25    0.10584      0.00000     0.39304    0.00112     0.39416
      H   26    0.10471      0.00000     0.39439    0.00089     0.39529
      H   27    0.03512      0.00000     0.46259    0.00229     0.46488
      H   28    0.11173      0.00000     0.38718    0.00109     0.38827
      H   29    0.12760      0.00000     0.37129    0.00111     0.37240
      H   30    0.10357      0.00000     0.39554    0.00088     0.39643
 =======================================================================
   * Total *    0.00000     14.99467    40.82256    0.18277    56.00000

 Normal termination of Gaussian 16 at Thu Dec 10 19:22:21 2020.
