 Gaussian 16, Revision A.03,

 -----------------------------------------------------------
 # opt freq B3LYP/6-31G(d) empiricaldispersion=gd3bj scf=xqc
 -----------------------------------------------------------

 -------------------------------
 CID_146883633_JID_2161_neutraal
 -------------------------------
 Symbolic Z-matrix:
 Charge =  0 Multiplicity = 1

 SCF Done:  E(RB3LYP) =  -542.378310280     A.U. after   12 cycles
 SCF Done:  E(RB3LYP) =  -542.381561882     A.U. after   10 cycles
 SCF Done:  E(RB3LYP) =  -542.381971882     A.U. after   10 cycles
 SCF Done:  E(RB3LYP) =  -542.381793908     A.U. after   10 cycles
 SCF Done:  E(RB3LYP) =  -542.382147587     A.U. after   10 cycles
 SCF Done:  E(RB3LYP) =  -542.382155017     A.U. after    8 cycles
 SCF Done:  E(RB3LYP) =  -542.382156996     A.U. after    8 cycles
 SCF Done:  E(RB3LYP) =  -542.382157879     A.U. after    7 cycles
 SCF Done:  E(RB3LYP) =  -542.382158584     A.U. after    7 cycles
 SCF Done:  E(RB3LYP) =  -542.382158715     A.U. after    6 cycles
 Optimization completed.
    -- Stationary point found.
 Normal termination of Gaussian 16 at Wed Dec  9 16:51:04 2020.

 --------------------------------------------------------------------
 #N Geom=AllCheck Guess=TCheck SCRF=Check GenChk RB3LYP/6-31G(d) Freq
 --------------------------------------------------------------------

 Structure from the checkpoint file:  "JID_2161.chk"
 -------------------------------
 CID_146883633_JID_2161_neutraal
 -------------------------------
 Charge =  0 Multiplicity = 1

 SCF Done:  E(RB3LYP) =  -542.382158715     A.U. after    1 cycles

  Exact polarizability: 115.919   1.222 101.727  -0.245  -0.089  95.116
 Approx polarizability: 146.226  -0.025 146.687   1.910   1.004 147.440

                      1                      2                      3
                      A                      A                      A
 Frequencies --     61.4028                77.9418               111.4786
 Red. masses --      3.2459                 2.8621                 3.0319
 Frc consts  --      0.0072                 0.0102                 0.0222
 IR Inten    --      0.8802                 0.3469                 0.0673

                      4                      5                      6
                      A                      A                      A
 Frequencies --    191.2418               230.1292               240.2775
 Red. masses --      1.7408                 2.7727                 2.5191
 Frc consts  --      0.0375                 0.0865                 0.0857
 IR Inten    --      0.1340                 0.8552                 1.0315

                      7                      8                      9
                      A                      A                      A
 Frequencies --    259.9782               299.1714               302.0307
 Red. masses --      1.6513                 2.6516                 1.9238
 Frc consts  --      0.0658                 0.1398                 0.1034
 IR Inten    --      1.6971                46.6264                18.7450

                     10                     11                     12
                      A                      A                      A
 Frequencies --    333.6612               363.3334               400.4008
 Red. masses --      1.3733                 2.9172                 1.2247
 Frc consts  --      0.0901                 0.2269                 0.1157
 IR Inten    --     38.8368                 7.0005               138.9631

                     13                     14                     15
                      A                      A                      A
 Frequencies --    413.4497               439.7776               472.8182
 Red. masses --      2.3694                 2.9228                 2.1323
 Frc consts  --      0.2386                 0.3331                 0.2809
 IR Inten    --      0.2077                 3.3447                11.8000

                     16                     17                     18
                      A                      A                      A
 Frequencies --    502.2160               551.4215               571.3557
 Red. masses --      2.3541                 3.6889                 3.5151
 Frc consts  --      0.3498                 0.6609                 0.6761
 IR Inten    --     19.1164                 6.5118                 1.7447

                     19                     20                     21
                      A                      A                      A
 Frequencies --    643.2173               741.5240               775.9849
 Red. masses --      3.8461                 3.0551                 1.6615
 Frc consts  --      0.9375                 0.9898                 0.5894
 IR Inten    --      6.9222                 4.9907                 5.5670

                     22                     23                     24
                      A                      A                      A
 Frequencies --    809.9003               832.2398               845.9271
 Red. masses --      2.6172                 1.3547                 2.4959
 Frc consts  --      1.0115                 0.5528                 1.0523
 IR Inten    --      3.1451                 2.2258                 3.2055

                     25                     26                     27
                      A                      A                      A
 Frequencies --    862.2173               895.3201               908.1025
 Red. masses --      2.1636                 2.7068                 1.5555
 Frc consts  --      0.9477                 1.2784                 0.7558
 IR Inten    --      2.9129                 3.5233                 2.6082

                     28                     29                     30
                      A                      A                      A
 Frequencies --    940.3366               959.0134               968.7901
 Red. masses --      1.9376                 2.2463                 2.0213
 Frc consts  --      1.0095                 1.2172                 1.1178
 IR Inten    --      5.3103                 9.1649                 5.9349

                     31                     32                     33
                      A                      A                      A
 Frequencies --    999.6233              1013.7826              1049.7865
 Red. masses --      1.9261                 1.7424                 1.9736
 Frc consts  --      1.1339                 1.0551                 1.2815
 IR Inten    --      5.1200                 1.8541                 2.0791

                     34                     35                     36
                      A                      A                      A
 Frequencies --   1067.8606              1093.7107              1104.5177
 Red. masses --      1.4661                 1.7292                 2.1952
 Frc consts  --      0.9850                 1.2187                 1.5779
 IR Inten    --     16.0948                15.4264                22.7760

                     37                     38                     39
                      A                      A                      A
 Frequencies --   1108.3458              1138.2876              1149.0156
 Red. masses --      2.2443                 1.5162                 1.9596
 Frc consts  --      1.6243                 1.1575                 1.5243
 IR Inten    --      4.9588                14.2261                27.4763

                     40                     41                     42
                      A                      A                      A
 Frequencies --   1164.2212              1175.1550              1215.3177
 Red. masses --      1.4927                 2.5149                 1.6953
 Frc consts  --      1.1921                 2.0462                 1.4753
 IR Inten    --     39.3312                58.0459                14.2002

                     43                     44                     45
                      A                      A                      A
 Frequencies --   1239.3550              1253.7584              1268.5244
 Red. masses --      1.4048                 1.3772                 1.6207
 Frc consts  --      1.2714                 1.2755                 1.5366
 IR Inten    --      7.3551                18.4673                 6.9541

                     46                     47                     48
                      A                      A                      A
 Frequencies --   1277.9229              1282.9232              1294.8417
 Red. masses --      1.3551                 1.5875                 1.2803
 Frc consts  --      1.3038                 1.5394                 1.2647
 IR Inten    --      2.8709                10.3867                 3.3837

                     49                     50                     51
                      A                      A                      A
 Frequencies --   1315.9387              1333.4468              1341.1705
 Red. masses --      1.3405                 1.5829                 1.6280
 Frc consts  --      1.3677                 1.6583                 1.7254
 IR Inten    --      3.1422                 7.3021                31.5403

                     52                     53                     54
                      A                      A                      A
 Frequencies --   1359.7987              1366.3432              1372.5052
 Red. masses --      1.2733                 1.5189                 1.5341
 Frc consts  --      1.3872                 1.6707                 1.7027
 IR Inten    --      2.0639                11.5177                24.9190

                     55                     56                     57
                      A                      A                      A
 Frequencies --   1401.9659              1413.2522              1414.8303
 Red. masses --      1.3800                 1.7181                 1.4684
 Frc consts  --      1.5981                 2.0218                 1.7319
 IR Inten    --      6.4059                16.1140                 0.5133

                     58                     59                     60
                      A                      A                      A
 Frequencies --   1449.8474              1462.1497              1514.1708
 Red. masses --      1.2662                 1.2143                 1.0536
 Frc consts  --      1.5681                 1.5296                 1.4233
 IR Inten    --      6.0224                43.1380                 2.0109

                     61                     62                     63
                      A                      A                      A
 Frequencies --   1515.9545              1527.5298              1530.4815
 Red. masses --      1.0787                 1.0802                 1.1015
 Frc consts  --      1.4606                 1.4851                 1.5202
 IR Inten    --      3.3971                 3.1654                 5.5639

                     64                     65                     66
                      A                      A                      A
 Frequencies --   1532.6023              1535.4629              1555.9670
 Red. masses --      1.0780                 1.0570                 1.1085
 Frc consts  --      1.4919                 1.4683                 1.5812
 IR Inten    --      6.6285                 7.5820                 5.5145

                     67                     68                     69
                      A                      A                      A
 Frequencies --   3022.5035              3024.8526              3034.6123
 Red. masses --      1.0631                 1.0652                 1.0836
 Frc consts  --      5.7224                 5.7425                 5.8796
 IR Inten    --     17.6220                21.6837                23.9861

                     70                     71                     72
                      A                      A                      A
 Frequencies --   3055.6584              3056.2253              3058.4692
 Red. masses --      1.0764                 1.0533                 1.0656
 Frc consts  --      5.9217                 5.7968                 5.8726
 IR Inten    --     43.4162                13.6311                42.5189

                     73                     74                     75
                      A                      A                      A
 Frequencies --   3064.1798              3070.6073              3072.5507
 Red. masses --      1.1027                 1.0592                 1.0660
 Frc consts  --      6.1002                 5.8841                 5.9292
 IR Inten    --     43.4222                36.5711                27.1063

                     76                     77                     78
                      A                      A                      A
 Frequencies --   3094.7481              3102.3234              3103.4187
 Red. masses --      1.0867                 1.0974                 1.0883
 Frc consts  --      6.1323                 6.2228                 6.1755
 IR Inten    --     33.4430                17.7423                31.1041

                     79                     80                     81
                      A                      A                      A
 Frequencies --   3117.9830              3118.2635              3121.1010
 Red. masses --      1.1029                 1.1038                 1.1053
 Frc consts  --      6.3176                 6.3237                 6.3438
 IR Inten    --     31.6059                54.3050                57.3986

                     82                     83                     84
                      A                      A                      A
 Frequencies --   3134.4390              3711.5315              3751.9197
 Red. masses --      1.1016                 1.0656                 1.0652
 Frc consts  --      6.3768                 8.6490                 8.8346
 IR Inten    --     34.3363                18.4765                 5.6663

 - Thermochemistry -
 -------------------
 Temperature   298.150 Kelvin.  Pressure   1.00000 Atm.
 Atom     1 has atomic number  6 and mass  12.00000

 Molecular mass:   170.13068 amu.
 Principal axes and moments of inertia in atomic units:
                           1         2         3
     Eigenvalues --  1160.690272534.617143012.49020
           X            0.99977   0.01976  -0.00795
           Y           -0.01986   0.99972  -0.01268
           Z            0.00769   0.01283   0.99989
 This molecule is an asymmetric top.
 Rotational symmetry number  1.
 Warning -- assumption of classical behavior for rotation
           may cause significant error
 Rotational temperatures (Kelvin)      0.07462     0.03417     0.02875
 Rotational constants (GHZ):           1.55489     0.71204     0.59909
 Zero-point vibrational energy     715130.1 (Joules/Mol)
                                  170.92019 (Kcal/Mol)
 Warning -- explicit consideration of  18 degrees of freedom as
           vibrations may cause significant error
 Vibrational temperatures:     88.34   112.14   160.39   275.15   331.10
          (Kelvin)            345.71   374.05   430.44   434.55   480.06
                              522.76   576.09   594.86   632.74   680.28
                              722.58   793.37   822.05   925.45  1066.89
                             1116.47  1165.27  1197.41  1217.10  1240.54
                             1288.17  1306.56  1352.93  1379.81  1393.87
                             1438.23  1458.61  1510.41  1536.41  1573.61
                             1589.15  1594.66  1637.74  1653.18  1675.05
                             1690.79  1748.57  1783.16  1803.88  1825.12
                             1838.65  1845.84  1862.99  1893.34  1918.53
                             1929.65  1956.45  1965.86  1974.73  2017.12
                             2033.35  2035.63  2086.01  2103.71  2178.55
                             2181.12  2197.77  2202.02  2205.07  2209.19
                             2238.69  4348.71  4352.09  4366.13  4396.41
                             4397.23  4400.46  4408.67  4417.92  4420.72
                             4452.65  4463.55  4465.13  4486.08  4486.49
                             4490.57  4509.76  5340.07  5398.18

 Zero-point correction=                           0.272379 (Hartree/Particle)
 Thermal correction to Energy=                    0.284179
 Thermal correction to Enthalpy=                  0.285123
 Thermal correction to Gibbs Free Energy=         0.235355
 Sum of electronic and zero-point Energies=           -542.109780
 Sum of electronic and thermal Energies=              -542.097979
 Sum of electronic and thermal Enthalpies=            -542.097035
 Sum of electronic and thermal Free Energies=         -542.146804

                     E (Thermal)             CV                S
                      KCal/Mol        Cal/Mol-Kelvin    Cal/Mol-Kelvin
 Total                  178.325             47.661            104.747
 Electronic               0.000              0.000              0.000
 Translational            0.889              2.981             41.302
 Rotational               0.889              2.981             30.561
 Vibrational            176.548             41.700             32.883
 Vibration     1          0.597              1.973              4.412
 Vibration     2          0.599              1.964              3.942
 Vibration     3          0.607              1.940              3.243
 Vibration     4          0.634              1.852              2.216
 Vibration     5          0.652              1.795              1.878
 Vibration     6          0.657              1.779              1.801
 Vibration     7          0.668              1.746              1.662
 Vibration     8          0.692              1.675              1.422
 Vibration     9          0.694              1.670              1.406
 Vibration    10          0.715              1.608              1.242
 Vibration    11          0.737              1.548              1.108
 Vibration    12          0.766              1.469              0.961
 Vibration    13          0.777              1.441              0.915
 Vibration    14          0.800              1.383              0.827
 Vibration    15          0.830              1.310              0.730
 Vibration    16          0.858              1.245              0.653
 Vibration    17          0.907              1.137              0.541
 Vibration    18          0.928              1.093              0.502

                           ! Non-Optimized Parameters !
 Normal termination of Gaussian 16 at Wed Dec  9 16:58:46 2020.

 ----------------------------------------------------------------------
 # B3LYP/6-311++G(d,p) empiricaldispersion=gd3bj scf=xqc pop=npa geom=c
 heck
 ----------------------------------------------------------------------

 ---------------------------------------
 CID_146883633_JID_2161_Energie_neutraal
 ---------------------------------------
 Structure from the checkpoint file:  "JID_2161.chk"
 Charge =  0 Multiplicity = 1

 SCF Done:  E(RB3LYP) =  -542.549968120     A.U. after   13 cycles
 Normal termination of Gaussian 16 at Wed Dec  9 17:02:03 2020.

 ----------------------------------------------------------------------
 # B3LYP/6-311++G(d,p) empiricaldispersion=gd3bj scf=xqc pop=npa geom=c
 heck
 ----------------------------------------------------------------------

 -------------------------------------
 CID_146883633_JID_2161_Energie_kation
 -------------------------------------
 Structure from the checkpoint file:  "JID_2161.chk"
 Charge =  1 Multiplicity = 2

 SCF Done:  E(UB3LYP) =  -542.217809473     A.U. after   22 cycles
 Normal termination of Gaussian 16 at Wed Dec  9 17:11:14 2020.
 Gaussian 16:  ES64L-G16RevA.03 25-Dec-2016

 ----------------------------------------------------------------------
 # B3LYP/6-311++G(d,p) empiricaldispersion=gd3bj scf=xqc pop=npa geom=c
 heck
 ----------------------------------------------------------------------

 ------------------------------------
 CID_146883633_JID_2161_Energie_anion
 ------------------------------------
 Structure from the checkpoint file:  "JID_2161.chk"
 Charge = -1 Multiplicity = 2

                         Standard orientation:
 ---------------------------------------------------------------------
 Center     Atomic      Atomic             Coordinates (Angstroms)
 Number     Number       Type             X           Y           Z
 ---------------------------------------------------------------------
      1          6           0        3.302629    0.977512   -0.225140
      2          6           0        3.102274   -0.532822   -0.075040
      3          6           0        1.702095   -0.962330    0.388867
      4          6           0        0.564797   -0.536000   -0.550721
      5          6           0       -0.666866   -1.483135   -0.580207
      6          6           0       -1.241869   -1.653068    0.846071
      7          6           0       -1.882513   -0.263035    1.127130
      8          6           0       -1.613101    0.523493   -0.179266
      9          6           0       -1.734417   -0.582924   -1.236532
     10          6           0       -0.106754    0.862222   -0.274445
     11          8           0        0.364605    1.626365    0.829403
     12          8           0       -2.449366    1.640819   -0.376322
     13          1           0        2.642569    1.396529   -0.991991
     14          1           0        4.335381    1.202677   -0.514640
     15          1           0        3.081859    1.505649    0.707252
     16          1           0        3.312756   -1.022534   -1.036569
     17          1           0        3.840843   -0.928240    0.634993
     18          1           0        1.688610   -2.057392    0.472048
     19          1           0        1.532082   -0.590568    1.408906
     20          1           0        0.975261   -0.509063   -1.568253
     21          1           0       -0.458516   -2.431508   -1.083487
     22          1           0       -0.478088   -1.931857    1.578017
     23          1           0       -1.999346   -2.443557    0.857901
     24          1           0       -1.475257    0.237256    2.013792
     25          1           0       -2.964389   -0.327390    1.274300
     26          1           0       -2.733694   -1.029593   -1.267600
     27          1           0       -1.465372   -0.236861   -2.240257
     28          1           0        0.034086    1.528166   -1.130254
     29          1           0        0.352966    1.060257    1.615969
     30          1           0       -2.101317    2.341084    0.200923
 ---------------------------------------------------------------------

 SCF Done:  E(UB3LYP) =  -542.535912234     A.U. after   28 cycles

 The electronic state is 2-A.
 Alpha  occ. eigenvalues --  -19.02529 -19.02403 -10.12028 -10.11544 -10.06970
 Alpha  occ. eigenvalues --  -10.06940 -10.06293 -10.06079 -10.06012 -10.05981
 Alpha  occ. eigenvalues --  -10.05963 -10.05032  -0.93832  -0.91868  -0.76626
 Alpha  occ. eigenvalues --   -0.68945  -0.63897  -0.61700  -0.59630  -0.56490
 Alpha  occ. eigenvalues --   -0.51254  -0.47624  -0.46500  -0.44208  -0.43555
 Alpha  occ. eigenvalues --   -0.39348  -0.36633  -0.35947  -0.35126  -0.32827
 Alpha  occ. eigenvalues --   -0.32577  -0.30643  -0.29531  -0.28965  -0.27964
 Alpha  occ. eigenvalues --   -0.27243  -0.25725  -0.25288  -0.24372  -0.24093
 Alpha  occ. eigenvalues --   -0.23295  -0.22743  -0.21950  -0.20571  -0.19486
 Alpha  occ. eigenvalues --   -0.17902  -0.15450   0.04599
 Alpha virt. eigenvalues --    0.07144   0.07176   0.07871   0.08977   0.09555
 Alpha virt. eigenvalues --    0.09997   0.10191   0.10308   0.11700   0.12060
 Alpha virt. eigenvalues --    0.12271   0.13193   0.13667   0.14344   0.14561

  Beta  occ. eigenvalues --  -19.02521 -19.02374 -10.12031 -10.11536 -10.06958
  Beta  occ. eigenvalues --  -10.06932 -10.06282 -10.06048 -10.05988 -10.05956
  Beta  occ. eigenvalues --  -10.05931 -10.05014  -0.93801  -0.91823  -0.76594
  Beta  occ. eigenvalues --   -0.68905  -0.63853  -0.61662  -0.59586  -0.56438
  Beta  occ. eigenvalues --   -0.51195  -0.47545  -0.46459  -0.44146  -0.43509
  Beta  occ. eigenvalues --   -0.39296  -0.36602  -0.35905  -0.35089  -0.32787
  Beta  occ. eigenvalues --   -0.32540  -0.30610  -0.29497  -0.28937  -0.27930
  Beta  occ. eigenvalues --   -0.27206  -0.25696  -0.25244  -0.24340  -0.24062
  Beta  occ. eigenvalues --   -0.23252  -0.22711  -0.21895  -0.20535  -0.19460
  Beta  occ. eigenvalues --   -0.17873  -0.15429
  Beta virt. eigenvalues --    0.06931   0.07850   0.08126   0.08386   0.09591
  Beta virt. eigenvalues --    0.09889   0.10449   0.10689   0.10896   0.12157
  Beta virt. eigenvalues --    0.12482   0.12746   0.13573   0.13996   0.14694

 Mulliken charges and spin densities:
               1          2
     1  C    0.304005  -0.877137
     2  C    0.648655  -0.923682
     3  C   -0.540052   0.164090
     4  C    0.054908   0.055893
     5  C   -0.522654   0.985227
     6  C    0.388498  -0.896187
     7  C    0.930644  -1.213398
     8  C   -1.768590   1.595165
     9  C    1.061887  -1.609492
    10  C    1.473740  -2.154509
    11  O   -0.193456   0.047110
    12  O   -0.210143  -0.003329
    13  H    0.037086   0.099711
    14  H   -0.163668   0.307464
    15  H    0.043234   0.097704
    16  H   -0.102713   0.228907
    17  H   -0.366493   0.522675
    18  H   -0.232290   0.390009
    19  H   -0.324785   0.471258
    20  H   -0.066674   0.280819
    21  H   -0.595843   0.843982
    22  H   -0.295169   0.455145
    23  H   -0.373168   0.539563
    24  H   -0.430505   0.580593
    25  H   -0.068298   0.240323
    26  H   -0.029717   0.207559
    27  H   -0.017278   0.156328
    28  H    0.196099   0.047213
    29  H   -0.056813   0.311445
    30  H    0.219554   0.049551
 Sum of Mulliken charges =  -1.00000   1.00000

 Dipole moment (field-independent basis, Debye):
    X=             -1.1905    Y=              3.3073    Z=             -2.2934  Tot=              4.1971
 Quadrupole moment (field-independent basis, Debye-Ang):
   XX=           -133.0212   YY=           -118.8187   ZZ=           -115.0510
   XY=             -0.9869   XZ=             -1.5562   YZ=              0.6402

 Summary of Natural Population Analysis:

                                       Natural Population
                Natural  -----------------------------------------------
    Atom  No    Charge         Core      Valence    Rydberg      Total
 -----------------------------------------------------------------------
      C    1   -0.28534      0.99966     2.28106    0.00462     3.28534
      C    2   -0.18362      0.99964     2.17618    0.00780     3.18362
      C    3   -0.19083      0.99960     2.18039    0.01084     3.19083
      C    4   -0.12143      0.99956     2.10925    0.01261     3.12143
      C    5   -0.10261      0.99960     2.08995    0.01306     3.10261
      C    6   -0.19502      0.99963     2.18592    0.00947     3.19502
      C    7   -0.20617      0.99958     2.19537    0.01121     3.20617
      C    8    0.12180      0.99940     1.86152    0.01728     2.87820
      C    9   -0.19400      0.99958     2.18436    0.01006     3.19400
      C   10    0.06059      0.99944     1.92420    0.01577     2.93941
      O   11   -0.37639      0.99990     3.36879    0.00769     4.37639
      O   12   -0.37261      0.99988     3.36619    0.00654     4.37261
      H   13    0.09515      0.00000     0.40376    0.00109     0.40485
      H   14    0.09392      0.00000     0.40512    0.00097     0.40608
      H   15    0.10206      0.00000     0.39674    0.00120     0.39794
      H   16    0.09064      0.00000     0.40804    0.00132     0.40936
      H   17    0.09515      0.00000     0.40358    0.00127     0.40485
      H   18    0.10307      0.00000     0.39511    0.00182     0.39693
      H   19    0.09317      0.00000     0.40448    0.00235     0.40683
      H   20    0.10134      0.00000     0.39716    0.00150     0.39866
      H   21    0.10375      0.00000     0.39454    0.00171     0.39625
      H   22    0.10341      0.00000     0.39454    0.00205     0.39659
      H   23    0.10120      0.00000     0.39719    0.00161     0.39880
      H   24    0.09766      0.00000     0.40046    0.00188     0.40234
      H   25    0.10537      0.00000     0.39334    0.00129     0.39463
      H   26    0.10289      0.00000     0.39610    0.00101     0.39711
      H   27    0.10147      0.00000     0.39746    0.00107     0.39853
      H   28    0.09131      0.00000     0.40727    0.00142     0.40869
      H   29    0.23254      0.00000     0.26298    0.00448     0.26746
      H   30    0.23151      0.00000     0.26580    0.00268     0.26849
 =======================================================================
   * Total *    0.00000     11.99546    34.84686    0.15768    47.00000

 Normal termination of Gaussian 16 at Wed Dec  9 17:22:55 2020.
