 Gaussian 16, Revision A.03,

 -----------------------------------------------------------
 # opt freq B3LYP/6-31G(d) empiricaldispersion=gd3bj scf=xqc
 -----------------------------------------------------------

 ------------------------------
 CID_89395466_JID_3358_neutraal
 ------------------------------
 Symbolic Z-matrix:
 Charge =  0 Multiplicity = 1

 SCF Done:  E(RB3LYP) =  -560.385166548     A.U. after   12 cycles
 SCF Done:  E(RB3LYP) =  -560.390060737     A.U. after   11 cycles
 SCF Done:  E(RB3LYP) =  -560.390772361     A.U. after   10 cycles
 SCF Done:  E(RB3LYP) =  -560.391621957     A.U. after   11 cycles
 SCF Done:  E(RB3LYP) =  -560.391893522     A.U. after   11 cycles
 SCF Done:  E(RB3LYP) =  -560.392015463     A.U. after   11 cycles
 SCF Done:  E(RB3LYP) =  -560.392412169     A.U. after   11 cycles
 SCF Done:  E(RB3LYP) =  -560.392608785     A.U. after   11 cycles
 SCF Done:  E(RB3LYP) =  -560.392695350     A.U. after   10 cycles
 SCF Done:  E(RB3LYP) =  -560.392700656     A.U. after    9 cycles
 SCF Done:  E(RB3LYP) =  -560.392705202     A.U. after    8 cycles
 SCF Done:  E(RB3LYP) =  -560.392706299     A.U. after    8 cycles
 SCF Done:  E(RB3LYP) =  -560.392707311     A.U. after    8 cycles
 SCF Done:  E(RB3LYP) =  -560.392708188     A.U. after    8 cycles
 SCF Done:  E(RB3LYP) =  -560.392708481     A.U. after    8 cycles
 SCF Done:  E(RB3LYP) =  -560.392708500     A.U. after    5 cycles
 Optimization completed.
    -- Stationary point found.
 Normal termination of Gaussian 16 at Wed Dec  9 23:08:09 2020.

 --------------------------------------------------------------------
 #N Geom=AllCheck Guess=TCheck SCRF=Check GenChk RB3LYP/6-31G(d) Freq
 --------------------------------------------------------------------

 Structure from the checkpoint file:  "JID_3358.chk"
 ------------------------------
 CID_89395466_JID_3358_neutraal
 ------------------------------
 Charge =  0 Multiplicity = 1

 SCF Done:  E(RB3LYP) =  -560.392708500     A.U. after    1 cycles

  Exact polarizability: 145.221   2.012 131.744   2.383   0.143 109.885
 Approx polarizability: 178.888  -1.414 173.857   2.544   1.527 169.319

                      1                      2                      3
                      A                      A                      A
 Frequencies --     24.0225                36.9694                43.1700
 Red. masses --      2.6659                 3.3232                 2.7416
 Frc consts  --      0.0009                 0.0027                 0.0030
 IR Inten    --      0.1380                 0.2317                 0.0216

                      4                      5                      6
                      A                      A                      A
 Frequencies --     58.8442                79.6639               113.2019
 Red. masses --      3.0315                 2.9039                 2.2231
 Frc consts  --      0.0062                 0.0109                 0.0168
 IR Inten    --      0.1619                 0.6235                 0.1530

                      7                      8                      9
                      A                      A                      A
 Frequencies --    149.7457               183.9906               202.9796
 Red. masses --      2.8288                 2.5109                 1.1193
 Frc consts  --      0.0374                 0.0501                 0.0272
 IR Inten    --      0.2733                 0.3090                 0.3179

                     10                     11                     12
                      A                      A                      A
 Frequencies --    221.6861               256.7301               261.0639
 Red. masses --      2.3443                 1.1780                 1.2309
 Frc consts  --      0.0679                 0.0457                 0.0494
 IR Inten    --      0.6835                 0.0618                 0.0756

                     13                     14                     15
                      A                      A                      A
 Frequencies --    278.9177               287.8658               298.9443
 Red. masses --      1.2597                 1.4493                 1.3525
 Frc consts  --      0.0577                 0.0708                 0.0712
 IR Inten    --      1.2959                 1.8226                 0.6538

                     16                     17                     18
                      A                      A                      A
 Frequencies --    315.9019               345.8968               360.8364
 Red. masses --      2.4003                 2.2396                 2.2460
 Frc consts  --      0.1411                 0.1579                 0.1723
 IR Inten    --      0.2255                 1.2872                 6.6390

                     19                     20                     21
                      A                      A                      A
 Frequencies --    365.3375               404.9723               409.1564
 Red. masses --      2.7043                 1.7956                 2.4035
 Frc consts  --      0.2127                 0.1735                 0.2371
 IR Inten    --      8.2254                 1.9867                 0.6002

                     22                     23                     24
                      A                      A                      A
 Frequencies --    437.1413               454.7474               490.5714
 Red. masses --      2.0305                 2.0371                 2.0248
 Frc consts  --      0.2286                 0.2482                 0.2871
 IR Inten    --      0.0871                 2.2328                 1.5638

                     25                     26                     27
                      A                      A                      A
 Frequencies --    528.8445               633.3441               752.9799
 Red. masses --      2.5560                 2.5119                 2.7195
 Frc consts  --      0.4212                 0.5937                 0.9085
 IR Inten    --      1.2030                 6.5413                39.0108

                     28                     29                     30
                      A                      A                      A
 Frequencies --    762.9917               819.4946               856.6433
 Red. masses --      1.9429                 2.4789                 2.0557
 Frc consts  --      0.6664                 0.9809                 0.8888
 IR Inten    --      3.3026                43.1070                19.2840

                     31                     32                     33
                      A                      A                      A
 Frequencies --    876.5275               905.4925               936.4596
 Red. masses --      2.7506                 2.4314                 1.6630
 Frc consts  --      1.2451                 1.1746                 0.8593
 IR Inten    --      6.2525                19.8841                 1.1139

                     34                     35                     36
                      A                      A                      A
 Frequencies --    966.2900               983.7217              1032.5450
 Red. masses --      1.6619                 1.7319                 1.8772
 Frc consts  --      0.9143                 0.9874                 1.1792
 IR Inten    --      1.9473                 7.8579                26.8402

                     37                     38                     39
                      A                      A                      A
 Frequencies --   1055.9262              1072.8173              1075.2623
 Red. masses --      1.9639                 1.7355                 1.6692
 Frc consts  --      1.2901                 1.1768                 1.1371
 IR Inten    --     28.6554                20.8982                10.3010

                     40                     41                     42
                      A                      A                      A
 Frequencies --   1080.2595              1095.8268              1120.8607
 Red. masses --      2.0642                 2.0634                 1.8269
 Frc consts  --      1.4193                 1.4599                 1.3523
 IR Inten    --      4.0812                10.2659                 6.8556

                     43                     44                     45
                      A                      A                      A
 Frequencies --   1132.0944              1135.9540              1136.5167
 Red. masses --      1.5320                 1.4120                 1.2936
 Frc consts  --      1.1568                 1.0735                 0.9845
 IR Inten    --      6.7057                22.1836                 3.4175

                     46                     47                     48
                      A                      A                      A
 Frequencies --   1160.0737              1166.5390              1193.8269
 Red. masses --      2.3584                 1.8934                 1.5494
 Frc consts  --      1.8700                 1.5181                 1.3010
 IR Inten    --     54.6742                 5.5450                30.4624

                     49                     50                     51
                      A                      A                      A
 Frequencies --   1202.2145              1236.4612              1246.0952
 Red. masses --      1.5674                 2.1152                 1.6486
 Frc consts  --      1.3347                 1.9053                 1.5082
 IR Inten    --     13.4176                 9.1495                 7.2600

                     52                     53                     54
                      A                      A                      A
 Frequencies --   1252.0743              1286.4194              1311.5284
 Red. masses --      1.7255                 1.4482                 2.1720
 Frc consts  --      1.5938                 1.4121                 2.2013
 IR Inten    --      0.3518                15.2207                 7.3061

                     55                     56                     57
                      A                      A                      A
 Frequencies --   1316.0615              1342.0239              1355.1518
 Red. masses --      2.2465                 1.4260                 1.2985
 Frc consts  --      2.2925                 1.5132                 1.4050
 IR Inten    --     16.0033                16.4167                13.0885

                     58                     59                     60
                      A                      A                      A
 Frequencies --   1371.5062              1389.2354              1409.1583
 Red. masses --      1.3335                 1.3391                 1.2653
 Frc consts  --      1.4779                 1.5227                 1.4803
 IR Inten    --     11.1887                18.7590                 5.0020

                     61                     62                     63
                      A                      A                      A
 Frequencies --   1412.4845              1421.0039              1438.8208
 Red. masses --      1.2452                 1.3113                 1.3570
 Frc consts  --      1.4637                 1.5600                 1.6551
 IR Inten    --      5.8976                 3.7010                15.2173

                     64                     65                     66
                      A                      A                      A
 Frequencies --   1441.5783              1466.4713              1468.4599
 Red. masses --      1.2946                 1.1625                 1.1584
 Frc consts  --      1.5851                 1.4729                 1.4717
 IR Inten    --      6.4716                 1.8895                 1.6844

                     67                     68                     69
                      A                      A                      A
 Frequencies --   1494.1831              1500.2200              1506.1573
 Red. masses --      1.1502                 1.1921                 1.0823
 Frc consts  --      1.5130                 1.5808                 1.4465
 IR Inten    --      3.9298                 0.7962                13.9123

                     70                     71                     72
                      A                      A                      A
 Frequencies --   1508.5319              1512.7737              1513.4111
 Red. masses --      1.0805                 1.0453                 1.0545
 Frc consts  --      1.4487                 1.4094                 1.4231
 IR Inten    --      2.5632                 7.4816                 8.2681

                     73                     74                     75
                      A                      A                      A
 Frequencies --   1516.2181              1518.2857              1523.9260
 Red. masses --      1.0653                 1.0656                 1.0608
 Frc consts  --      1.4429                 1.4473                 1.4515
 IR Inten    --      9.5437                 6.1205                 6.7333

                     76                     77                     78
                      A                      A                      A
 Frequencies --   1524.7656              1530.5044              1532.1263
 Red. masses --      1.1036                 1.0790                 1.0480
 Frc consts  --      1.5116                 1.4892                 1.4494
 IR Inten    --      0.4326                 8.6632                13.7072

                     79                     80                     81
                      A                      A                      A
 Frequencies --   1537.8667              1540.3733              1543.7616
 Red. masses --      1.0545                 1.0780                 1.0624
 Frc consts  --      1.4694                 1.5071                 1.4918
 IR Inten    --      3.3206                14.0672                 7.9776

                     82                     83                     84
                      A                      A                      A
 Frequencies --   1544.0100              1551.6524              2920.4980
 Red. masses --      1.0829                 1.1198                 1.0620
 Frc consts  --      1.5211                 1.5884                 5.3370
 IR Inten    --     20.2266                42.1902                41.1066

                     85                     86                     87
                      A                      A                      A
 Frequencies --   2923.2631              2935.9020              2938.6766
 Red. masses --      1.0701                 1.0660                 1.0709
 Frc consts  --      5.3879                 5.4134                 5.4487
 IR Inten    --     27.6167               153.5465                34.3002

                     88                     89                     90
                      A                      A                      A
 Frequencies --   2944.7823              2955.8721              3020.5291
 Red. masses --      1.0613                 1.0633                 1.0835
 Frc consts  --      5.4224                 5.4735                 5.8242
 IR Inten    --     38.2163               193.3840                15.3468

                     91                     92                     93
                      A                      A                      A
 Frequencies --   3036.0976              3043.6040              3049.3640
 Red. masses --      1.0655                 1.0669                 1.0416
 Frc consts  --      5.7868                 5.8229                 5.7066
 IR Inten    --     11.3229                54.2153                43.8261

                     94                     95                     96
                      A                      A                      A
 Frequencies --   3059.3122              3073.3931              3075.4800
 Red. masses --      1.0816                 1.0719                 1.0970
 Frc consts  --      5.9644                 5.9654                 6.1133
 IR Inten    --     21.2236                51.8740                34.2630

                     97                     98                     99
                      A                      A                      A
 Frequencies --   3082.1378              3086.2036              3088.0379
 Red. masses --      1.0754                 1.0849                 1.0728
 Frc consts  --      6.0192                 6.0884                 6.0276
 IR Inten    --     12.0740                37.1983                34.4069

                    100                    101                    102
                      A                      A                      A
 Frequencies --   3094.4566              3097.3094              3117.3588
 Red. masses --      1.0984                 1.0764                 1.0989
 Frc consts  --      6.1969                 6.0843                 6.2919
 IR Inten    --     84.8926                25.7882                28.9209

                    103                    104                    105
                      A                      A                      A
 Frequencies --   3118.0699              3128.9669              3138.0454
 Red. masses --      1.1037                 1.1030                 1.0998
 Frc consts  --      6.3223                 6.3624                 6.3808
 IR Inten    --     46.3213                30.3693                25.1033

                    106                    107                    108
                      A                      A                      A
 Frequencies --   3138.5708              3164.8494              3481.7393
 Red. masses --      1.1014                 1.0952                 1.0731
 Frc consts  --      6.3924                 6.4632                 7.6646
 IR Inten    --     56.5251                17.2566                20.6513

 - Thermochemistry -
 -------------------
 Temperature   298.150 Kelvin.  Pressure   1.00000 Atm.
 Atom     1 has atomic number  6 and mass  12.00000

 Molecular mass:   187.20485 amu.
 Principal axes and moments of inertia in atomic units:
                           1         2         3
     Eigenvalues --  1755.555994012.416615084.67517
           X            0.99998   0.00288   0.00489
           Y           -0.00288   1.00000   0.00046
           Z           -0.00489  -0.00048   0.99999
 This molecule is an asymmetric top.
 Rotational symmetry number  1.
 Warning -- assumption of classical behavior for rotation
           may cause significant error
 Rotational temperatures (Kelvin)      0.04934     0.02159     0.01703
 Rotational constants (GHZ):           1.02802     0.44979     0.35494
 Zero-point vibrational energy     936327.2 (Joules/Mol)
                                  223.78757 (Kcal/Mol)
 Warning -- explicit consideration of  25 degrees of freedom as
           vibrations may cause significant error
 Vibrational temperatures:     34.56    53.19    62.11    84.66   114.62
          (Kelvin)            162.87   215.45   264.72   292.04   318.96
                              369.38   375.61   401.30   414.17   430.11
                              454.51   497.67   519.16   525.64   582.66
                              588.68   628.95   654.28   705.82   760.89
                              911.24  1083.37  1097.77  1179.07  1232.52
                             1261.13  1302.80  1347.36  1390.28  1415.36
                             1485.60  1519.24  1543.54  1547.06  1554.25
                             1576.65  1612.67  1628.83  1634.38  1635.19
                             1669.09  1678.39  1717.65  1729.72  1778.99
                             1792.85  1801.46  1850.87  1887.00  1893.52
                             1930.87  1949.76  1973.29  1998.80  2027.46
                             2032.25  2044.51  2070.14  2074.11  2109.93
                             2112.79  2149.80  2158.48  2167.02  2170.44
                             2176.54  2177.46  2181.50  2184.47  2192.59
                             2193.80  2202.05  2204.39  2212.65  2216.25
                             2221.13  2221.49  2232.48  4201.95  4205.92
                             4224.11  4228.10  4236.88  4252.84  4345.87
                             4368.27  4379.07  4387.35  4401.67  4421.93
                             4424.93  4434.51  4440.36  4443.00  4452.23
                             4456.34  4485.18  4486.21  4501.89  4514.95
                             4515.70  4553.51  5009.45

 Zero-point correction=                           0.356628 (Hartree/Particle)
 Thermal correction to Energy=                    0.373227
 Thermal correction to Enthalpy=                  0.374172
 Thermal correction to Gibbs Free Energy=         0.311702
 Sum of electronic and zero-point Energies=           -560.036080
 Sum of electronic and thermal Energies=              -560.019481
 Sum of electronic and thermal Enthalpies=            -560.018537
 Sum of electronic and thermal Free Energies=         -560.081007

                     E (Thermal)             CV                S
                      KCal/Mol        Cal/Mol-Kelvin    Cal/Mol-Kelvin
 Total                  234.204             61.099            131.479
 Electronic               0.000              0.000              0.000
 Translational            0.889              2.981             41.587
 Rotational               0.889              2.981             31.949
 Vibrational            232.426             55.138             57.943
 Vibration     1          0.593              1.985              6.270
 Vibration     2          0.594              1.982              5.415
 Vibration     3          0.595              1.980              5.108
 Vibration     4          0.596              1.974              4.496
 Vibration     5          0.600              1.963              3.899
 Vibration     6          0.607              1.939              3.213
 Vibration     7          0.618              1.903              2.675
 Vibration     8          0.631              1.862              2.288
 Vibration     9          0.639              1.836              2.106
 Vibration    10          0.648              1.808              1.945
 Vibration    11          0.666              1.751              1.684
 Vibration    12          0.669              1.744              1.655
 Vibration    13          0.679              1.713              1.540
 Vibration    14          0.685              1.696              1.486
 Vibration    15          0.692              1.676              1.423
 Vibration    16          0.703              1.643              1.331
 Vibration    17          0.724              1.584              1.185
 Vibration    18          0.735              1.553              1.118
 Vibration    19          0.739              1.544              1.099
 Vibration    20          0.770              1.459              0.945
 Vibration    21          0.774              1.450              0.930
 Vibration    22          0.797              1.389              0.836
 Vibration    23          0.813              1.350              0.782
 Vibration    24          0.846              1.271              0.682
 Vibration    25          0.884              1.186              0.590

 Optimization completed.
    -- Stationary point found.
 Normal termination of Gaussian 16 at Wed Dec  9 23:20:41 2020.

 ----------------------------------------------------------------------
 # B3LYP/6-311++G(d,p) empiricaldispersion=gd3bj scf=xqc pop=npa geom=c
 heck
 ----------------------------------------------------------------------

 --------------------------------------
 CID_89395466_JID_3358_Energie_neutraal
 --------------------------------------
 Structure from the checkpoint file:  "JID_3358.chk"
 Charge =  0 Multiplicity = 1

 SCF Done:  E(RB3LYP) =  -560.555183934     A.U. after   13 cycles
 Normal termination of Gaussian 16 at Wed Dec  9 23:26:44 2020.

 ----------------------------------------------------------------------
 # B3LYP/6-311++G(d,p) empiricaldispersion=gd3bj scf=xqc pop=npa geom=c
 heck
 ----------------------------------------------------------------------

 ------------------------------------
 CID_89395466_JID_3358_Energie_kation
 ------------------------------------
 Structure from the checkpoint file:  "JID_3358.chk"
 Charge =  1 Multiplicity = 2

 SCF Done:  E(UB3LYP) =  -560.281967944     A.U. after   22 cycles
 Normal termination of Gaussian 16 at Wed Dec  9 23:41:26 2020.
 Gaussian 16:  ES64L-G16RevA.03 25-Dec-2016

 ----------------------------------------------------------------------
 # B3LYP/6-311++G(d,p) empiricaldispersion=gd3bj scf=xqc pop=npa geom=c
 heck
 ----------------------------------------------------------------------

 -----------------------------------
 CID_89395466_JID_3358_Energie_anion
 -----------------------------------
 Structure from the checkpoint file:  "JID_3358.chk"
 Charge = -1 Multiplicity = 2

                         Standard orientation:
 ---------------------------------------------------------------------
 Center     Atomic      Atomic             Coordinates (Angstroms)
 Number     Number       Type             X           Y           Z
 ---------------------------------------------------------------------
      1          6           0       -3.213879   -1.672526    0.127545
      2          6           0       -1.868285   -1.132431   -0.380377
      3          6           0       -1.909940    0.343329   -0.866659
      4          7           0       -1.638242    1.337114    0.174599
      5          6           0       -1.198488    2.600799   -0.403918
      6          6           0       -2.758085    1.550017    1.083937
      7          7           0       -0.818261   -1.349869    0.619792
      8          6           0        0.401069   -2.005500    0.156678
      9          6           0        1.206846   -1.293504   -0.952724
     10          6           0        1.742941    0.104924   -0.599285
     11          7           0        3.143484    0.122142   -0.171196
     12          6           0        3.608144    1.492666   -0.021254
     13          6           0        3.374070   -0.633151    1.050718
     14          1           0       -3.499528   -1.228066    1.084330
     15          1           0       -3.134660   -2.752812    0.285684
     16          1           0       -4.017741   -1.484976   -0.595577
     17          1           0       -1.622351   -1.723116   -1.273904
     18          1           0       -1.123474    0.465975   -1.618189
     19          1           0       -2.872182    0.542812   -1.376685
     20          1           0       -1.968894    3.080494   -1.037744
     21          1           0       -0.938609    3.299196    0.398588
     22          1           0       -0.305228    2.437128   -1.014343
     23          1           0       -3.680442    1.867141    0.560349
     24          1           0       -2.976593    0.637551    1.640405
     25          1           0       -2.492333    2.327219    1.807712
     26          1           0       -0.597714   -0.447210    1.037964
     27          1           0        1.031973   -2.159816    1.038916
     28          1           0        0.129249   -3.006810   -0.203146
     29          1           0        2.051470   -1.923572   -1.260589
     30          1           0        0.562680   -1.207903   -1.836724
     31          1           0        1.686022    0.744202   -1.488537
     32          1           0        1.085455    0.578152    0.157680
     33          1           0        3.060127    2.056934    0.760455
     34          1           0        4.671270    1.496083    0.242399
     35          1           0        3.489878    2.029132   -0.969181
     36          1           0        2.766488   -0.274330    1.906419
     37          1           0        3.149721   -1.691072    0.893480
     38          1           0        4.430201   -0.555795    1.329900
 ---------------------------------------------------------------------

 SCF Done:  E(UB3LYP) =  -560.540079942     A.U. after   28 cycles

 The electronic state is 2-A.
 Alpha  occ. eigenvalues --  -14.21163 -14.20731 -14.18618 -10.09960 -10.09228
 Alpha  occ. eigenvalues --  -10.09179 -10.09008 -10.08849 -10.08825 -10.08562
 Alpha  occ. eigenvalues --  -10.08484 -10.06516 -10.05762  -0.83256  -0.82562
 Alpha  occ. eigenvalues --   -0.79706  -0.67937  -0.64603  -0.61116  -0.60994
 Alpha  occ. eigenvalues --   -0.59678  -0.57989  -0.52335  -0.50883  -0.47903
 Alpha  occ. eigenvalues --   -0.45992  -0.40111  -0.38884  -0.38346  -0.37492
 Alpha  occ. eigenvalues --   -0.37081  -0.35747  -0.34380  -0.33816  -0.32579
 Alpha  occ. eigenvalues --   -0.31476  -0.30765  -0.30186  -0.29465  -0.29140
 Alpha  occ. eigenvalues --   -0.29071  -0.28487  -0.27214  -0.26740  -0.26451
 Alpha  occ. eigenvalues --   -0.25739  -0.24455  -0.23490  -0.22656  -0.22529
 Alpha  occ. eigenvalues --   -0.12947  -0.12283  -0.11647   0.04419
 Alpha virt. eigenvalues --    0.06412   0.06834   0.07450   0.08331   0.08591
 Alpha virt. eigenvalues --    0.09320   0.09440   0.09676   0.10493   0.10763
 Alpha virt. eigenvalues --    0.11695   0.11798   0.12078   0.12521   0.12987

  Beta  occ. eigenvalues --  -14.21154 -14.20724 -14.18616 -10.09950 -10.09210
  Beta  occ. eigenvalues --  -10.09171 -10.08987 -10.08835 -10.08797 -10.08532
  Beta  occ. eigenvalues --  -10.08448 -10.06505 -10.05743  -0.83236  -0.82543
  Beta  occ. eigenvalues --   -0.79694  -0.67911  -0.64576  -0.61069  -0.60952
  Beta  occ. eigenvalues --   -0.59630  -0.57951  -0.52285  -0.50831  -0.47849
  Beta  occ. eigenvalues --   -0.45947  -0.40073  -0.38861  -0.38310  -0.37450
  Beta  occ. eigenvalues --   -0.37051  -0.35716  -0.34342  -0.33786  -0.32556
  Beta  occ. eigenvalues --   -0.31444  -0.30730  -0.30158  -0.29434  -0.29111
  Beta  occ. eigenvalues --   -0.29044  -0.28453  -0.27184  -0.26703  -0.26426
  Beta  occ. eigenvalues --   -0.25715  -0.24428  -0.23460  -0.22625  -0.22498
  Beta  occ. eigenvalues --   -0.12903  -0.12251  -0.11621
  Beta virt. eigenvalues --    0.06432   0.07074   0.07425   0.08056   0.08711
  Beta virt. eigenvalues --    0.09100   0.09559   0.09888   0.10139   0.10813
  Beta virt. eigenvalues --    0.11053   0.11934   0.12067   0.12280   0.12875

 Mulliken charges and spin densities:
               1          2
     1  C    0.973503  -1.487983
     2  C   -1.170191   0.692558
     3  C   -0.041542  -0.263871
     4  N   -0.100232   0.148064
     5  C    0.682173  -1.017335
     6  C    0.255797  -0.615604
     7  N    0.116534   0.029255
     8  C   -0.346769  -0.107945
     9  C   -0.145775  -0.047887
    10  C   -0.671067   0.053499
    11  N    0.090994   0.084521
    12  C    0.723110  -1.000699
    13  C    0.244947  -0.626571
    14  H    0.065857   0.050393
    15  H   -0.044480   0.186593
    16  H   -0.115250   0.236873
    17  H   -0.145706   0.295775
    18  H    0.025010   0.098878
    19  H   -0.342025   0.500211
    20  H   -0.383219   0.504587
    21  H   -0.077248   0.219028
    22  H   -0.184941   0.319463
    23  H   -0.030352   0.158303
    24  H    0.016749   0.130834
    25  H   -0.265739   0.402384
    26  H    0.195767   0.059551
    27  H    0.030660   0.130525
    28  H    0.038557   0.104570
    29  H    0.035719   0.144177
    30  H   -0.122650   0.249168
    31  H   -0.092875   0.270059
    32  H    0.588098  -0.445006
    33  H   -0.166158   0.282606
    34  H   -0.141623   0.268581
    35  H   -0.312233   0.441272
    36  H   -0.087789   0.199368
    37  H   -0.038101   0.154336
    38  H   -0.057510   0.197472
 Sum of Mulliken charges =  -1.00000   1.00000

 Dipole moment (field-independent basis, Debye):
    X=              0.1539    Y=             -3.7639    Z=              1.0801  Tot=              3.9188
 Quadrupole moment (field-independent basis, Debye-Ang):
   XX=           -159.5849   YY=           -138.7471   ZZ=           -124.8311
   XY=             -2.1317   XZ=             -1.9476   YZ=              1.9802

 Summary of Natural Population Analysis:

                                       Natural Population
                Natural  -----------------------------------------------
    Atom  No    Charge         Core      Valence    Rydberg      Total
 -----------------------------------------------------------------------
      C    1   -0.28278      0.99964     2.27666    0.00648     3.28278
      C    2   -0.01759      0.99960     2.00517    0.01282     3.01759
      C    3   -0.08777      0.99958     2.07588    0.01231     3.08777
      N    4   -0.28898      0.99973     2.77616    0.01309     3.78898
      C    5   -0.17347      0.99964     2.16496    0.00887     3.17347
      C    6   -0.17596      0.99963     2.16803    0.00830     3.17596
      N    7   -0.35245      0.99974     2.84128    0.01143     3.85245
      C    8   -0.08367      0.99962     2.07296    0.01109     3.08367
      C    9   -0.21000      0.99962     2.20249    0.00790     3.21000
      C   10   -0.09159      0.99960     2.07928    0.01271     3.09159
      N   11   -0.27623      0.99973     2.76368    0.01282     3.77623
      C   12   -0.17635      0.99965     2.16795    0.00875     3.17635
      C   13   -0.17906      0.99964     2.17085    0.00857     3.17906
      H   14    0.09593      0.00000     0.40274    0.00133     0.40407
      H   15    0.09920      0.00000     0.39975    0.00105     0.40080
      H   16    0.09484      0.00000     0.40422    0.00094     0.40516
      H   17    0.09010      0.00000     0.40823    0.00167     0.40990
      H   18    0.09794      0.00000     0.39997    0.00210     0.40206
      H   19    0.08538      0.00000     0.41301    0.00161     0.41462
      H   20    0.08183      0.00000     0.41661    0.00155     0.41817
      H   21    0.09622      0.00000     0.40242    0.00136     0.40378
      H   22    0.09785      0.00000     0.40050    0.00166     0.40215
      H   23    0.08198      0.00000     0.41665    0.00137     0.41802
      H   24    0.09507      0.00000     0.40372    0.00122     0.40493
      H   25    0.09645      0.00000     0.40251    0.00103     0.40355
      H   26    0.18332      0.00000     0.31283    0.00385     0.31668
      H   27    0.09163      0.00000     0.40724    0.00113     0.40837
      H   28    0.08909      0.00000     0.40993    0.00099     0.41091
      H   29    0.10213      0.00000     0.39651    0.00136     0.39787
      H   30    0.09864      0.00000     0.40006    0.00130     0.40136
      H   31    0.09688      0.00000     0.40118    0.00194     0.40312
      H   32    0.08189      0.00000     0.41462    0.00349     0.41811
      H   33    0.08122      0.00000     0.41725    0.00153     0.41878
      H   34    0.09302      0.00000     0.40578    0.00120     0.40698
      H   35    0.09690      0.00000     0.40169    0.00140     0.40310
      H   36    0.08003      0.00000     0.41856    0.00141     0.41997
      H   37    0.09364      0.00000     0.40509    0.00128     0.40636
      H   38    0.09473      0.00000     0.40429    0.00098     0.40527
 =======================================================================
   * Total *   -0.00000     12.99542    39.83072    0.17386    53.00000

 Normal termination of Gaussian 16 at Wed Dec  9 23:59:32 2020.
