 Gaussian 16, Revision A.03,

 -----------------------------------------------------------
 # opt freq B3LYP/6-31G(d) empiricaldispersion=gd3bj scf=xqc
 -----------------------------------------------------------

 -------------------------------
 CID_137500344_JID_3469_neutraal
 -------------------------------
 Symbolic Z-matrix:
 Charge =  0 Multiplicity = 1

 SCF Done:  E(RB3LYP) =  -930.664293968     A.U. after   16 cycles
 SCF Done:  E(RB3LYP) =  -930.668314699     A.U. after   14 cycles
 SCF Done:  E(RB3LYP) =  -930.668669962     A.U. after   12 cycles
 SCF Done:  E(RB3LYP) =  -930.667939954     A.U. after   13 cycles
 SCF Done:  E(RB3LYP) =  -930.668749893     A.U. after   11 cycles
 SCF Done:  E(RB3LYP) =  -930.668757023     A.U. after   10 cycles
 SCF Done:  E(RB3LYP) =  -930.668760226     A.U. after    9 cycles
 SCF Done:  E(RB3LYP) =  -930.668761152     A.U. after    9 cycles
 SCF Done:  E(RB3LYP) =  -930.668761676     A.U. after    8 cycles
 SCF Done:  E(RB3LYP) =  -930.668762071     A.U. after    8 cycles
 SCF Done:  E(RB3LYP) =  -930.668762287     A.U. after    8 cycles
 SCF Done:  E(RB3LYP) =  -930.668762362     A.U. after    7 cycles
 Optimization completed.
    -- Stationary point found.
 Normal termination of Gaussian 16 at Wed Dec  9 23:20:44 2020.

 --------------------------------------------------------------------
 #N Geom=AllCheck Guess=TCheck SCRF=Check GenChk RB3LYP/6-31G(d) Freq
 --------------------------------------------------------------------

 Structure from the checkpoint file:  "JID_3469.chk"
 -------------------------------
 CID_137500344_JID_3469_neutraal
 -------------------------------
 Charge =  0 Multiplicity = 1

 SCF Done:  E(RB3LYP) =  -930.668762362     A.U. after    1 cycles

  Exact polarizability: 161.373   3.029 141.250   6.073   1.186  62.397
 Approx polarizability: 248.720  25.236 268.320  15.039   5.523 101.078

                      1                      2                      3
                      A                      A                      A
 Frequencies --     47.0957                78.1609               121.2505
 Red. masses --      2.8527                 6.5218                 6.8236
 Frc consts  --      0.0037                 0.0235                 0.0591
 IR Inten    --      0.1462                 0.0420                 3.4652

                      4                      5                      6
                      A                      A                      A
 Frequencies --    144.5965               184.4993               196.1166
 Red. masses --      3.3247                 5.6916                 4.7368
 Frc consts  --      0.0410                 0.1141                 0.1073
 IR Inten    --      0.5053                 3.5804                 2.9953

                      7                      8                      9
                      A                      A                      A
 Frequencies --    228.8307               270.8264               357.4351
 Red. masses --      6.3266                 3.5249                 3.4924
 Frc consts  --      0.1952                 0.1523                 0.2629
 IR Inten    --      0.7614                 3.2416                 0.7356

                     10                     11                     12
                      A                      A                      A
 Frequencies --    386.4981               406.6686               455.3934
 Red. masses --      5.2211                 8.1866                 8.3585
 Frc consts  --      0.4595                 0.7977                 1.0213
 IR Inten    --      3.7793                 0.5256                 3.0490

                     13                     14                     15
                      A                      A                      A
 Frequencies --    516.1040               552.5730               619.1486
 Red. masses --      4.3301                11.3702                 4.4734
 Frc consts  --      0.6796                 2.0455                 1.0104
 IR Inten    --      1.2439                 1.3390                 2.6381

                     16                     17                     18
                      A                      A                      A
 Frequencies --    657.9443               668.6197               679.4142
 Red. masses --      5.8576                 5.3095                 5.0222
 Frc consts  --      1.4940                 1.3985                 1.3659
 IR Inten    --      3.5400                12.4325                27.1524

                     19                     20                     21
                      A                      A                      A
 Frequencies --    790.7816               797.3930               801.1927
 Red. masses --      1.2153                 1.3489                 1.3022
 Frc consts  --      0.4478                 0.5053                 0.4925
 IR Inten    --     31.5813                 2.0489                 5.2253

                     22                     23                     24
                      A                      A                      A
 Frequencies --    810.6731               852.5903               892.4988
 Red. masses --      1.5262                 2.1440                 3.9224
 Frc consts  --      0.5909                 0.9182                 1.8408
 IR Inten    --      8.4547                20.7986                13.5005

                     25                     26                     27
                      A                      A                      A
 Frequencies --    936.5961               958.2177              1002.1815
 Red. masses --      4.9447                 4.4493                 1.6841
 Frc consts  --      2.5556                 2.4069                 0.9966
 IR Inten    --     65.2334                 4.3875                 0.1886

                     28                     29                     30
                      A                      A                      A
 Frequencies --   1035.0422              1069.2578              1075.9203
 Red. masses --      2.9899                 4.1687                 1.2532
 Frc consts  --      1.8872                 2.8081                 0.8547
 IR Inten    --      3.9418                40.2283                10.6669

                     31                     32                     33
                      A                      A                      A
 Frequencies --   1096.0564              1129.0735              1130.7148
 Red. masses --      1.3020                 1.3140                 1.5636
 Frc consts  --      0.9215                 0.9869                 1.1779
 IR Inten    --      2.1892                 3.9873                 8.9093

                     34                     35                     36
                      A                      A                      A
 Frequencies --   1161.3326              1213.9348              1222.1196
 Red. masses --      2.3364                 1.3838                 3.1418
 Frc consts  --      1.8566                 1.2015                 2.7648
 IR Inten    --      1.7497                 3.2370                30.8841

                     37                     38                     39
                      A                      A                      A
 Frequencies --   1244.9522              1252.9917              1340.7581
 Red. masses --      2.1109                 1.4923                 3.3478
 Frc consts  --      1.9276                 1.3804                 3.5458
 IR Inten    --     45.9854                21.2259                15.3653

                     40                     41                     42
                      A                      A                      A
 Frequencies --   1345.4173              1397.2559              1428.9203
 Red. masses --      3.5437                 1.7660                 2.1429
 Frc consts  --      3.7794                 2.0314                 2.5779
 IR Inten    --     13.5691                46.6965                13.0061

                     43                     44                     45
                      A                      A                      A
 Frequencies --   1441.5297              1484.8751              1494.7359
 Red. masses --      3.6900                 4.5953                 1.0896
 Frc consts  --      4.5178                 5.9696                 1.4343
 IR Inten    --     15.8493                85.2255                 3.8903

                     46                     47                     48
                      A                      A                      A
 Frequencies --   1531.0213              1536.4398              1627.6898
 Red. masses --      1.3931                 4.8192                 8.8680
 Frc consts  --      1.9239                 6.7028                13.8427
 IR Inten    --      5.5589                27.9476                50.9480

                     49                     50                     51
                      A                      A                      A
 Frequencies --   1762.0977              2995.3387              3147.2532
 Red. masses --      9.2246                 1.0856                 1.0861
 Frc consts  --     16.8756                 5.7384                 6.3387
 IR Inten    --    284.4650                73.0512                 4.6714

                     52                     53                     54
                      A                      A                      A
 Frequencies --   3158.5346              3162.4806              3237.1523
 Red. masses --      1.0508                 1.0598                 1.1205
 Frc consts  --      6.1762                 6.2452                 6.9181
 IR Inten    --      9.2820                 5.1741                 0.4451

                     55                     56                     57
                      A                      A                      A
 Frequencies --   3250.1844              3280.9104              3322.4687
 Red. masses --      1.1170                 1.0969                 1.0978
 Frc consts  --      6.9523                 6.9566                 7.1396
 IR Inten    --     14.0292                 3.7799                 3.1566

 - Thermochemistry -
 -------------------
 Temperature   298.150 Kelvin.  Pressure   1.00000 Atm.
 Atom     1 has atomic number  6 and mass  12.00000

 Molecular mass:   192.03573 amu.
 Principal axes and moments of inertia in atomic units:
                           1         2         3
     Eigenvalues --  1511.545732953.716194334.41002
           X            0.99996  -0.00805  -0.00252
           Y            0.00804   0.99997  -0.00226
           Z            0.00254   0.00224   0.99999
 This molecule is an asymmetric top.
 Rotational symmetry number  1.
 Warning -- assumption of classical behavior for rotation
           may cause significant error
 Rotational temperatures (Kelvin)      0.05730     0.02932     0.01998
 Rotational constants (GHZ):           1.19397     0.61101     0.41638
 Zero-point vibrational energy     412650.4 (Joules/Mol)
                                   98.62581 (Kcal/Mol)
 Warning -- explicit consideration of  15 degrees of freedom as
           vibrations may cause significant error
 Vibrational temperatures:     67.76   112.46   174.45   208.04   265.45
          (Kelvin)            282.17   329.24   389.66   514.27   556.08
                              585.11   655.21   742.56   795.03   890.82
                              946.64   961.99   977.53  1137.76  1147.27
                             1152.74  1166.38  1226.69  1284.11  1347.55
                             1378.66  1441.92  1489.19  1538.42  1548.01
                             1576.98  1624.48  1626.85  1670.90  1746.58
                             1758.36  1791.21  1802.78  1929.05  1935.76
                             2010.34  2055.90  2074.04  2136.40  2150.59
                             2202.80  2210.59  2341.88  2535.27  4309.62
                             4528.20  4544.43  4550.10  4657.54  4676.29
                             4720.50  4780.29

 Zero-point correction=                           0.157170 (Hartree/Particle)
 Thermal correction to Energy=                    0.168120
 Thermal correction to Enthalpy=                  0.169065
 Thermal correction to Gibbs Free Energy=         0.119505
 Sum of electronic and zero-point Energies=           -930.511592
 Sum of electronic and thermal Energies=              -930.500642
 Sum of electronic and thermal Enthalpies=            -930.499698
 Sum of electronic and thermal Free Energies=         -930.549257

                     E (Thermal)             CV                S
                      KCal/Mol        Cal/Mol-Kelvin    Cal/Mol-Kelvin
 Total                  105.497             41.411            104.307
 Electronic               0.000              0.000              0.000
 Translational            0.889              2.981             41.663
 Rotational               0.889              2.981             31.337
 Vibrational            103.720             35.450             31.307
 Vibration     1          0.595              1.979              4.936
 Vibration     2          0.599              1.964              3.937
 Vibration     3          0.609              1.931              3.080
 Vibration     4          0.616              1.909              2.742
 Vibration     5          0.631              1.861              2.282
 Vibration     6          0.636              1.845              2.169
 Vibration     7          0.652              1.797              1.888
 Vibration     8          0.675              1.727              1.591
 Vibration     9          0.733              1.560              1.133
 Vibration    10          0.755              1.499              1.014
 Vibration    11          0.771              1.456              0.938
 Vibration    12          0.814              1.349              0.780
 Vibration    13          0.871              1.214              0.619
 Vibration    14          0.908              1.134              0.539
 Vibration    15          0.979              0.991              0.418

 Optimization completed.
    -- Stationary point found.
 Normal termination of Gaussian 16 at Wed Dec  9 23:25:18 2020.

 ----------------------------------------------------------------------
 # B3LYP/6-311++G(d,p) empiricaldispersion=gd3bj scf=xqc pop=npa geom=c
 heck
 ----------------------------------------------------------------------

 ---------------------------------------
 CID_137500344_JID_3469_Energie_neutraal
 ---------------------------------------
 Structure from the checkpoint file:  "JID_3469.chk"
 Charge =  0 Multiplicity = 1

 SCF Done:  E(RB3LYP) =  -930.836531563     A.U. after   16 cycles
 Normal termination of Gaussian 16 at Wed Dec  9 23:27:21 2020.

 ----------------------------------------------------------------------
 # B3LYP/6-311++G(d,p) empiricaldispersion=gd3bj scf=xqc pop=npa geom=c
 heck
 ----------------------------------------------------------------------

 -------------------------------------
 CID_137500344_JID_3469_Energie_kation
 -------------------------------------
 Structure from the checkpoint file:  "JID_3469.chk"
 Charge =  1 Multiplicity = 2

 SCF Done:  E(UB3LYP) =  -930.545312284     A.U. after   23 cycles
 Normal termination of Gaussian 16 at Wed Dec  9 23:31:26 2020.
 Gaussian 16:  ES64L-G16RevA.03 25-Dec-2016

 ----------------------------------------------------------------------
 # B3LYP/6-311++G(d,p) empiricaldispersion=gd3bj scf=xqc pop=npa geom=c
 heck
 ----------------------------------------------------------------------

 ------------------------------------
 CID_137500344_JID_3469_Energie_anion
 ------------------------------------
 Structure from the checkpoint file:  "JID_3469.chk"
 Charge = -1 Multiplicity = 2

                         Standard orientation:
 ---------------------------------------------------------------------
 Center     Atomic      Atomic             Coordinates (Angstroms)
 Number     Number       Type             X           Y           Z
 ---------------------------------------------------------------------
      1          6           0       -3.366986   -0.913466    0.393866
      2          6           0       -3.285771    0.582096    0.520816
      3          6           0       -2.407847   -0.138076   -0.483663
      4          6           0       -0.946039   -0.248706   -0.269527
      5          6           0       -0.030277    0.762225   -0.149780
      6          7           0        1.276382    0.282464   -0.001861
      7          6           0        2.545854    0.785547    0.162143
      8          7           0        3.424157   -0.194310    0.254992
      9          6           0        2.729524   -1.379874    0.152402
     10          6           0        1.392124   -1.106464   -0.008595
     11         16           0       -0.189525   -1.841128   -0.204198
     12          6           0       -0.311591    2.192244   -0.174636
     13          8           0        0.551654    3.049949   -0.073738
     14          1           0       -4.239038   -1.350871   -0.081614
     15          1           0       -2.941595   -1.509972    1.195335
     16          1           0       -4.100811    1.185487    0.133016
     17          1           0       -2.804479    0.986745    1.405633
     18          1           0       -2.698115   -0.042439   -1.528829
     19          1           0        2.738876    1.845059    0.199701
     20          1           0        3.225580   -2.338032    0.199062
     21          1           0       -1.378972    2.452255   -0.295303
 ---------------------------------------------------------------------

 SCF Done:  E(UB3LYP) =  -930.867285650     A.U. after   26 cycles

 The electronic state is 2-A.
 Alpha  occ. eigenvalues --  -88.74155 -18.92602 -14.24465 -14.16651 -10.09570
 Alpha  occ. eigenvalues --  -10.08551 -10.07422 -10.06844 -10.06754 -10.06683
 Alpha  occ. eigenvalues --  -10.06101 -10.05816 -10.05292  -7.82756  -5.79113
 Alpha  occ. eigenvalues --   -5.78729  -5.78257  -0.89886  -0.86417  -0.77740
 Alpha  occ. eigenvalues --   -0.75313  -0.68121  -0.63280  -0.57876  -0.52703
 Alpha  occ. eigenvalues --   -0.49911  -0.48590  -0.45876  -0.43961  -0.41569
 Alpha  occ. eigenvalues --   -0.38759  -0.35461  -0.34868  -0.32673  -0.31515
 Alpha  occ. eigenvalues --   -0.29350  -0.28525  -0.26596  -0.26316  -0.26138
 Alpha  occ. eigenvalues --   -0.24130  -0.23116  -0.21614  -0.19301  -0.18261
 Alpha  occ. eigenvalues --   -0.16813  -0.14648  -0.11558  -0.09188  -0.07467
 Alpha  occ. eigenvalues --    0.03031
 Alpha virt. eigenvalues --    0.07714   0.09634   0.09902   0.10125   0.11499
 Alpha virt. eigenvalues --    0.12521   0.13083   0.13283   0.13790   0.13983
 Alpha virt. eigenvalues --    0.14279   0.14822   0.15850   0.16451   0.17420

  Beta  occ. eigenvalues --  -88.74127 -18.91970 -14.24458 -14.16631 -10.09569
  Beta  occ. eigenvalues --  -10.08569 -10.07466 -10.06829 -10.06656 -10.06445
  Beta  occ. eigenvalues --  -10.06087 -10.05826 -10.04666  -7.82731  -5.79105
  Beta  occ. eigenvalues --   -5.78728  -5.78146  -0.89819  -0.85329  -0.77571
  Beta  occ. eigenvalues --   -0.75214  -0.67838  -0.62861  -0.57714  -0.52317
  Beta  occ. eigenvalues --   -0.49845  -0.48023  -0.45705  -0.43528  -0.41403
  Beta  occ. eigenvalues --   -0.38585  -0.35310  -0.34652  -0.32451  -0.31271
  Beta  occ. eigenvalues --   -0.29222  -0.28416  -0.26444  -0.25889  -0.25724
  Beta  occ. eigenvalues --   -0.22842  -0.22416  -0.20212  -0.18817  -0.18221
  Beta  occ. eigenvalues --   -0.16124  -0.14615  -0.10216  -0.08637  -0.06579
  Beta virt. eigenvalues --    0.07455   0.09494   0.09839   0.09905   0.11197
  Beta virt. eigenvalues --    0.11505   0.12534   0.13273   0.13443   0.13800
  Beta virt. eigenvalues --    0.14102   0.14317   0.14952   0.15827   0.16443

 Mulliken charges and spin densities:
               1          2
     1  C   -0.497917  -0.021872
     2  C   -0.223778  -0.223825
     3  C   -0.595671   0.216708
     4  C    1.199602   0.112941
     5  C   -0.341955   0.155487
     6  N    0.193310  -0.002939
     7  C   -0.088207  -0.005367
     8  N   -0.168101   0.010256
     9  C    0.038986  -0.001480
    10  C    0.226298  -0.017578
    11  S   -0.570481   0.079428
    12  C   -0.635556   0.199150
    13  O   -0.406801   0.208757
    14  H    0.012850   0.114693
    15  H    0.160392  -0.022267
    16  H    0.081985   0.037168
    17  H    0.141262   0.004433
    18  H    0.060243   0.162970
    19  H    0.206715  -0.001553
    20  H    0.122593   0.000628
    21  H    0.084229  -0.005737
 Sum of Mulliken charges =  -1.00000   1.00000

 Dipole moment (field-independent basis, Debye):
    X=             -4.0266    Y=             -4.1654    Z=              0.4940  Tot=              5.8145
 Quadrupole moment (field-independent basis, Debye-Ang):
   XX=           -118.7314   YY=           -112.0514   ZZ=            -91.8994
   XY=             -3.5969   XZ=             -2.2349   YZ=              0.3206

 Summary of Natural Population Analysis:

                                       Natural Population
                Natural  -----------------------------------------------
    Atom  No    Charge         Core      Valence    Rydberg      Total
 -----------------------------------------------------------------------
      C    1   -0.19870      0.99963     2.19055    0.00853     3.19870
      C    2   -0.19052      0.99963     2.18183    0.00906     3.19052
      C    3   -0.13313      0.99956     2.12140    0.01217     3.13313
      C    4    0.03660      0.99944     1.95121    0.01275     2.96340
      C    5    0.01644      0.99940     1.97119    0.01297     2.98356
      N    6   -0.19526      0.99958     2.68408    0.01160     3.69526
      C    7    0.08833      0.99966     1.89484    0.01717     2.91167
      N    8   -0.25898      0.99973     2.74738    0.01188     3.75898
      C    9   -0.06619      0.99949     2.05157    0.01513     3.06619
      C   10   -0.02228      0.99948     2.01146    0.01135     3.02228
      S   11    0.17806      4.99945     2.80299    0.01950     7.82194
      C   12    0.22462      0.99968     1.75634    0.01936     2.77538
      O   13   -0.24086      0.99989     3.23321    0.00776     4.24086
      H   14    0.09717      0.00000     0.40189    0.00094     0.40283
      H   15    0.10365      0.00000     0.39543    0.00092     0.39635
      H   16    0.09802      0.00000     0.40092    0.00106     0.40198
      H   17    0.10618      0.00000     0.39286    0.00096     0.39382
      H   18    0.11301      0.00000     0.38503    0.00196     0.38699
      H   19    0.10817      0.00000     0.39063    0.00120     0.39183
      H   20    0.09286      0.00000     0.40613    0.00101     0.40714
      H   21    0.04284      0.00000     0.45513    0.00203     0.45716
 =======================================================================
   * Total *   -0.00000     16.99460    32.82608    0.17932    50.00000

 Normal termination of Gaussian 16 at Wed Dec  9 23:36:03 2020.
