 Gaussian 16, Revision A.03,

 -----------------------------------------------------------
 # opt freq B3LYP/6-31G(d) empiricaldispersion=gd3bj scf=xqc
 -----------------------------------------------------------

 -------------------------------
 CID_131059717_JID_1563_neutraal
 -------------------------------
 Symbolic Z-matrix:
 Charge =  0 Multiplicity = 1

 SCF Done:  E(RB3LYP) =  -519.127281524     A.U. after   14 cycles
 SCF Done:  E(RB3LYP) =  -519.130981834     A.U. after   12 cycles
 SCF Done:  E(RB3LYP) =  -519.131333485     A.U. after   11 cycles
 SCF Done:  E(RB3LYP) =  -519.131468149     A.U. after   10 cycles
 SCF Done:  E(RB3LYP) =  -519.131534435     A.U. after   11 cycles
 SCF Done:  E(RB3LYP) =  -519.131545711     A.U. after    9 cycles
 SCF Done:  E(RB3LYP) =  -519.131548298     A.U. after    8 cycles
 SCF Done:  E(RB3LYP) =  -519.131548602     A.U. after    6 cycles
 SCF Done:  E(RB3LYP) =  -519.131548701     A.U. after    7 cycles
 SCF Done:  E(RB3LYP) =  -519.131548755     A.U. after    7 cycles
 SCF Done:  E(RB3LYP) =  -519.131548779     A.U. after    6 cycles
 Optimization completed.
    -- Stationary point found.
 Normal termination of Gaussian 16 at Tue Dec  8 20:25:10 2020.

 --------------------------------------------------------------------
 #N Geom=AllCheck Guess=TCheck SCRF=Check GenChk RB3LYP/6-31G(d) Freq
 --------------------------------------------------------------------

 Structure from the checkpoint file:  "JID_1563.chk"
 -------------------------------
 CID_131059717_JID_1563_neutraal
 -------------------------------
 Charge =  0 Multiplicity = 1

 SCF Done:  E(RB3LYP) =  -519.131548779     A.U. after    1 cycles

  Exact polarizability: 108.863  -4.641  95.266   1.800  -1.415  73.313
 Approx polarizability: 144.472 -12.023 130.974   2.023  -2.174 114.200

                      1                      2                      3
                      A                      A                      A
 Frequencies --     54.6410                67.7491                94.2689
 Red. masses --      3.3716                 4.1086                 1.9332
 Frc consts  --      0.0059                 0.0111                 0.0101
 IR Inten    --      1.0716                 2.4246                 1.6280

                      4                      5                      6
                      A                      A                      A
 Frequencies --    150.2811               159.7557               209.9520
 Red. masses --      2.5484                 2.7233                 1.0647
 Frc consts  --      0.0339                 0.0410                 0.0277
 IR Inten    --      1.2024                 2.9633                 0.3339

                      7                      8                      9
                      A                      A                      A
 Frequencies --    219.4713               243.7067               260.2581
 Red. masses --      1.8269                 1.5870                 2.6121
 Frc consts  --      0.0518                 0.0555                 0.1042
 IR Inten    --      4.7190                 5.7397                 3.6089

                     10                     11                     12
                      A                      A                      A
 Frequencies --    291.6920               310.4385               330.3659
 Red. masses --      1.5771                 3.0090                 2.8275
 Frc consts  --      0.0791                 0.1709                 0.1818
 IR Inten    --      1.0637                 0.8100                 4.9336

                     13                     14                     15
                      A                      A                      A
 Frequencies --    370.3191               474.3419               521.4481
 Red. masses --      3.5288                 2.6015                 2.6294
 Frc consts  --      0.2851                 0.3449                 0.4212
 IR Inten    --      3.9656                14.5598                18.7917

                     16                     17                     18
                      A                      A                      A
 Frequencies --    525.8249               551.6738               619.1066
 Red. masses --      2.1316                 1.9142                 3.3571
 Frc consts  --      0.3472                 0.3432                 0.7581
 IR Inten    --     22.4457                64.4379                12.1623

                     19                     20                     21
                      A                      A                      A
 Frequencies --    699.8425               715.0174               820.1160
 Red. masses --      3.9225                 5.3381                 3.1899
 Frc consts  --      1.1319                 1.6079                 1.2641
 IR Inten    --      4.5651                11.4859                 7.5484

                     22                     23                     24
                      A                      A                      A
 Frequencies --    841.7814               871.7375               958.1901
 Red. masses --      2.1139                 2.2550                 1.5486
 Frc consts  --      0.8825                 1.0096                 0.8377
 IR Inten    --      5.2152                12.6798                 3.7211

                     25                     26                     27
                      A                      A                      A
 Frequencies --    995.8563              1010.7816              1049.7171
 Red. masses --      1.6914                 2.1806                 2.0766
 Frc consts  --      0.9883                 1.3126                 1.3482
 IR Inten    --      3.3433                 4.7822                 9.7344

                     28                     29                     30
                      A                      A                      A
 Frequencies --   1081.3339              1089.9650              1097.8368
 Red. masses --      1.9713                 2.0842                 2.3896
 Frc consts  --      1.3580                 1.4589                 1.6969
 IR Inten    --     20.3121                32.3276                10.9403

                     31                     32                     33
                      A                      A                      A
 Frequencies --   1134.4884              1153.9181              1176.3131
 Red. masses --      2.3012                 2.3641                 2.4249
 Frc consts  --      1.7450                 1.8547                 1.9769
 IR Inten    --     24.4853                 2.0153                48.2780

                     34                     35                     36
                      A                      A                      A
 Frequencies --   1182.3491              1191.4770              1231.0560
 Red. masses --      2.2004                 1.3124                 1.3723
 Frc consts  --      1.8124                 1.0977                 1.2253
 IR Inten    --     64.3381                 6.9016                11.5773

                     37                     38                     39
                      A                      A                      A
 Frequencies --   1247.7372              1267.1712              1284.8347
 Red. masses --      1.4460                 1.6823                 1.6460
 Frc consts  --      1.3264                 1.5916                 1.6009
 IR Inten    --     14.6286                44.0879                32.7082

                     40                     41                     42
                      A                      A                      A
 Frequencies --   1329.1267              1346.8321              1363.0487
 Red. masses --      1.3487                 1.6237                 1.4603
 Frc consts  --      1.4038                 1.7353                 1.5985
 IR Inten    --      4.1073                29.9240                 9.0758

                     43                     44                     45
                      A                      A                      A
 Frequencies --   1387.3866              1404.3351              1419.3050
 Red. masses --      1.5899                 1.2637                 1.4555
 Frc consts  --      1.8030                 1.4684                 1.7275
 IR Inten    --      3.7771                 0.3497                22.2121

                     46                     47                     48
                      A                      A                      A
 Frequencies --   1433.5276              1437.9285              1469.6141
 Red. masses --      1.2618                 1.2483                 2.0471
 Frc consts  --      1.5278                 1.5207                 2.6050
 IR Inten    --      6.5709                11.8885                36.9700

                     49                     50                     51
                      A                      A                      A
 Frequencies --   1501.3878              1519.9077              1521.3256
 Red. masses --      1.1236                 1.0607                 1.0482
 Frc consts  --      1.4923                 1.4437                 1.4294
 IR Inten    --      0.0333                 3.0947                 1.6865

                     52                     53                     54
                      A                      A                      A
 Frequencies --   1525.9022              1533.5090              1536.2117
 Red. masses --      1.0483                 1.0492                 1.0608
 Frc consts  --      1.4381                 1.4537                 1.4750
 IR Inten    --      6.5074                 8.9629                 0.3322

                     55                     56                     57
                      A                      A                      A
 Frequencies --   1541.6180              1554.9873              1831.5100
 Red. masses --      1.0518                 1.0902                10.1610
 Frc consts  --      1.4728                 1.5532                20.0820
 IR Inten    --     11.1246                 8.2984               400.0778

                     58                     59                     60
                      A                      A                      A
 Frequencies --   3010.2723              3012.0042              3031.1898
 Red. masses --      1.0779                 1.0423                 1.0708
 Frc consts  --      5.7551                 5.5711                 5.7965
 IR Inten    --     20.9500                25.3831                41.9240

                     61                     62                     63
                      A                      A                      A
 Frequencies --   3040.0298              3053.6885              3057.6652
 Red. masses --      1.0794                 1.0804                 1.0410
 Frc consts  --      5.8777                 5.9358                 5.7342
 IR Inten    --      1.8462                29.0503                 2.3574

                     64                     65                     66
                      A                      A                      A
 Frequencies --   3061.6226              3066.3978              3099.1563
 Red. masses --      1.0493                 1.0902                 1.0968
 Frc consts  --      5.7952                 6.0399                 6.2066
 IR Inten    --     53.9786                65.0872                39.4309

                     67                     68                     69
                      A                      A                      A
 Frequencies --   3125.9763              3128.9364              3136.3613
 Red. masses --      1.0994                 1.1018                 1.0991
 Frc consts  --      6.3296                 6.3553                 6.3701
 IR Inten    --     19.3382                34.7566                49.5537

                     70                     71                     72
                      A                      A                      A
 Frequencies --   3138.2075              3146.7961              3627.3477
 Red. masses --      1.1011                 1.1026                 1.0776
 Frc consts  --      6.3892                 6.4330                 8.3537
 IR Inten    --     18.3418                 8.1369                23.5757

 - Thermochemistry -
 -------------------
 Temperature   298.150 Kelvin.  Pressure   1.00000 Atm.
 Atom     1 has atomic number  6 and mass  12.00000

 Molecular mass:   157.11028 amu.
 Principal axes and moments of inertia in atomic units:
                           1         2         3
     Eigenvalues --   913.571122528.209153147.84761
           X            0.99997  -0.00161   0.00790
           Y            0.00164   0.99999  -0.00355
           Z           -0.00790   0.00356   0.99996
 This molecule is an asymmetric top.
 Rotational symmetry number  1.
 Warning -- assumption of classical behavior for rotation
           may cause significant error
 Rotational temperatures (Kelvin)      0.09481     0.03426     0.02752
 Rotational constants (GHZ):           1.97548     0.71384     0.57333
 Zero-point vibrational energy     603814.7 (Joules/Mol)
                                  144.31517 (Kcal/Mol)
 Warning -- explicit consideration of  18 degrees of freedom as
           vibrations may cause significant error
 Vibrational temperatures:     78.62    97.48   135.63   216.22   229.85
          (Kelvin)            302.07   315.77   350.64   374.45   419.68
                              446.65   475.32   532.81   682.47   750.25
                              756.54   793.74   890.76  1006.92  1028.75
                             1179.96  1211.14  1254.24  1378.62  1432.82
                             1454.29  1510.31  1555.80  1568.22  1579.54
                             1632.28  1660.23  1692.45  1701.14  1714.27
                             1771.22  1795.22  1823.18  1848.59  1912.32
                             1937.79  1961.12  1996.14  2020.52  2042.06
                             2062.53  2068.86  2114.45  2160.16  2186.81
                             2188.85  2195.43  2206.38  2210.27  2218.04
                             2237.28  2635.13  4331.11  4333.60  4361.21
                             4373.92  4393.58  4399.30  4404.99  4411.86
                             4458.99  4497.58  4501.84  4512.52  4515.18
                             4527.54  5218.94

 Zero-point correction=                           0.229981 (Hartree/Particle)
 Thermal correction to Energy=                    0.241950
 Thermal correction to Enthalpy=                  0.242894
 Thermal correction to Gibbs Free Energy=         0.192114
 Sum of electronic and zero-point Energies=           -518.901568
 Sum of electronic and thermal Energies=              -518.889599
 Sum of electronic and thermal Enthalpies=            -518.888654
 Sum of electronic and thermal Free Energies=         -518.939435

                     E (Thermal)             CV                S
                      KCal/Mol        Cal/Mol-Kelvin    Cal/Mol-Kelvin
 Total                  151.826             44.218            106.876
 Electronic               0.000              0.000              0.000
 Translational            0.889              2.981             41.065
 Rotational               0.889              2.981             30.365
 Vibrational            150.049             38.257             35.447
 Vibration     1          0.596              1.976              4.642
 Vibration     2          0.598              1.970              4.218
 Vibration     3          0.603              1.953              3.569
 Vibration     4          0.618              1.902              2.669
 Vibration     5          0.622              1.892              2.553
 Vibration     6          0.642              1.826              2.044
 Vibration     7          0.647              1.811              1.963
 Vibration     8          0.659              1.773              1.776
 Vibration     9          0.668              1.745              1.660
 Vibration    10          0.687              1.689              1.464
 Vibration    11          0.699              1.654              1.360
 Vibration    12          0.713              1.615              1.258
 Vibration    13          0.742              1.533              1.078
 Vibration    14          0.831              1.307              0.725
 Vibration    15          0.876              1.203              0.607
 Vibration    16          0.881              1.193              0.597
 Vibration    17          0.907              1.136              0.541
 Vibration    18          0.979              0.992              0.418

 Optimization completed.
    -- Stationary point found.
 Normal termination of Gaussian 16 at Tue Dec  8 20:31:41 2020.

 ----------------------------------------------------------------------
 # B3LYP/6-311++G(d,p) empiricaldispersion=gd3bj scf=xqc pop=npa geom=c
 heck
 ----------------------------------------------------------------------

 ---------------------------------------
 CID_131059717_JID_1563_Energie_neutraal
 ---------------------------------------
 Structure from the checkpoint file:  "JID_1563.chk"
 Charge =  0 Multiplicity = 1

 SCF Done:  E(RB3LYP) =  -519.286639170     A.U. after   14 cycles
 Normal termination of Gaussian 16 at Tue Dec  8 20:34:40 2020.

 ----------------------------------------------------------------------
 # B3LYP/6-311++G(d,p) empiricaldispersion=gd3bj scf=xqc pop=npa geom=c
 heck
 ----------------------------------------------------------------------

 -------------------------------------
 CID_131059717_JID_1563_Energie_kation
 -------------------------------------
 Structure from the checkpoint file:  "JID_1563.chk"
 Charge =  1 Multiplicity = 2

 SCF Done:  E(UB3LYP) =  -518.961903120     A.U. after   27 cycles
 Normal termination of Gaussian 16 at Tue Dec  8 20:42:39 2020.
 Gaussian 16:  ES64L-G16RevA.03 25-Dec-2016

 ----------------------------------------------------------------------
 # B3LYP/6-311++G(d,p) empiricaldispersion=gd3bj scf=xqc pop=npa geom=c
 heck
 ----------------------------------------------------------------------

 ------------------------------------
 CID_131059717_JID_1563_Energie_anion
 ------------------------------------
 Structure from the checkpoint file:  "JID_1563.chk"
 Charge = -1 Multiplicity = 2

                         Standard orientation:
 ---------------------------------------------------------------------
 Center     Atomic      Atomic             Coordinates (Angstroms)
 Number     Number       Type             X           Y           Z
 ---------------------------------------------------------------------
      1          6           0       -1.400274    1.948248    0.622011
      2          6           0       -1.106154    0.703062   -0.212784
      3          6           0        0.167644   -0.093511    0.146304
      4          6           0       -0.219221   -1.572689   -0.098174
      5          7           0       -1.664841   -1.557222    0.046728
      6          6           0       -2.241981   -0.324583   -0.074346
      7          8           0       -3.437698   -0.084290   -0.072218
      8          6           0        1.426265    0.288686   -0.640907
      9          6           0        1.908366    1.716575   -0.384944
     10          8           0        2.462218   -0.683548   -0.456198
     11          6           0        3.058116   -0.728042    0.826393
     12          1           0       -2.401947    2.316909    0.383780
     13          1           0       -0.676672    2.746965    0.436545
     14          1           0       -1.376945    1.709015    1.691530
     15          1           0       -1.078885    0.980726   -1.278279
     16          1           0        0.352017    0.042147    1.219982
     17          1           0        0.249340   -2.246593    0.625240
     18          1           0        0.088845   -1.898880   -1.101406
     19          1           0       -2.239162   -2.388594    0.021058
     20          1           0        1.190739    0.191072   -1.708376
     21          1           0        2.015859    1.932390    0.683485
     22          1           0        2.876035    1.873885   -0.872105
     23          1           0        1.197898    2.438067   -0.798824
     24          1           0        3.576424    0.206647    1.080974
     25          1           0        2.333423   -0.951817    1.622976
     26          1           0        3.794189   -1.535162    0.792323
 ---------------------------------------------------------------------

 SCF Done:  E(UB3LYP) =  -519.273490975     A.U. after   32 cycles

 The electronic state is 2-A.
 Alpha  occ. eigenvalues --  -19.02158 -18.98964 -14.23590 -10.16840 -10.12588
 Alpha  occ. eigenvalues --  -10.10648 -10.10346 -10.08878 -10.08317 -10.06637
 Alpha  occ. eigenvalues --  -10.06290  -0.93880  -0.93259  -0.83912  -0.71724
 Alpha  occ. eigenvalues --   -0.66446  -0.62826  -0.58899  -0.57452  -0.52594
 Alpha  occ. eigenvalues --   -0.47535  -0.46780  -0.40943  -0.40139  -0.37542
 Alpha  occ. eigenvalues --   -0.36286  -0.35118  -0.34822  -0.33179  -0.32338
 Alpha  occ. eigenvalues --   -0.31282  -0.30658  -0.29446  -0.28945  -0.27233
 Alpha  occ. eigenvalues --   -0.26357  -0.25859  -0.24592  -0.23339  -0.20558
 Alpha  occ. eigenvalues --   -0.16477  -0.16027  -0.15115   0.04476
 Alpha virt. eigenvalues --    0.06662   0.07168   0.08091   0.09075   0.10068
 Alpha virt. eigenvalues --    0.10273   0.10462   0.10832   0.11731   0.12245
 Alpha virt. eigenvalues --    0.13192   0.13606   0.14024   0.14623   0.14771

  Beta  occ. eigenvalues --  -19.02153 -18.98958 -14.23564 -10.16837 -10.12578
  Beta  occ. eigenvalues --  -10.10624 -10.10292 -10.08868 -10.08305 -10.06620
  Beta  occ. eigenvalues --  -10.06254  -0.93867  -0.93240  -0.83878  -0.71693
  Beta  occ. eigenvalues --   -0.66412  -0.62778  -0.58818  -0.57403  -0.52528
  Beta  occ. eigenvalues --   -0.47479  -0.46716  -0.40909  -0.40088  -0.37502
  Beta  occ. eigenvalues --   -0.36241  -0.35074  -0.34789  -0.33150  -0.32309
  Beta  occ. eigenvalues --   -0.31241  -0.30614  -0.29407  -0.28900  -0.27205
  Beta  occ. eigenvalues --   -0.26329  -0.25820  -0.24550  -0.23310  -0.20521
  Beta  occ. eigenvalues --   -0.16455  -0.15990  -0.15097
  Beta virt. eigenvalues --    0.06918   0.07776   0.08102   0.08538   0.09810
  Beta virt. eigenvalues --    0.10620   0.10744   0.11086   0.11319   0.11841
  Beta virt. eigenvalues --    0.12771   0.13510   0.14181   0.14556   0.14830

 Mulliken charges and spin densities:
               1          2
     1  C   -0.046158  -0.633167
     2  C    0.430031  -0.185034
     3  C    1.111617  -0.973776
     4  C    0.474981  -0.895634
     5  N   -0.286509   0.096322
     6  C   -0.157880   0.109467
     7  O   -0.412310   0.019155
     8  C   -2.466832   2.051653
     9  C    1.634509  -2.260303
    10  O   -0.108639   0.049153
    11  C    1.433207  -1.690879
    12  H    0.082120   0.083284
    13  H    0.076755   0.058844
    14  H   -0.077228   0.229137
    15  H   -0.055899   0.248374
    16  H    0.069197   0.132998
    17  H   -0.508124   0.710105
    18  H    0.044487   0.176795
    19  H   -0.212205   0.527262
    20  H   -0.202072   0.383006
    21  H   -0.268280   0.440845
    22  H   -0.243879   0.410025
    23  H   -0.088177   0.229057
    24  H   -0.439159   0.579451
    25  H   -0.519518   0.675831
    26  H   -0.264037   0.428033
 Sum of Mulliken charges =  -1.00000   1.00000

 Dipole moment (field-independent basis, Debye):
    X=             -2.3128    Y=              1.6438    Z=             -2.4164  Tot=              3.7270
 Quadrupole moment (field-independent basis, Debye-Ang):
   XX=           -139.9703   YY=           -111.4263   ZZ=           -100.9380
   XY=             -2.7957   XZ=             -6.2083   YZ=              4.0798

 Summary of Natural Population Analysis:

                                       Natural Population
                Natural  -----------------------------------------------
    Atom  No    Charge         Core      Valence    Rydberg      Total
 -----------------------------------------------------------------------
      C    1   -0.28240      0.99965     2.27752    0.00523     3.28240
      C    2   -0.14646      0.99955     2.13749    0.00942     3.14646
      C    3   -0.12371      0.99956     2.11287    0.01128     3.12371
      C    4   -0.07958      0.99961     2.06802    0.01196     3.07958
      N    5   -0.31558      0.99967     2.80623    0.00968     3.81558
      C    6    0.34983      0.99965     1.62717    0.02335     2.65017
      O    7   -0.32606      0.99987     3.32011    0.00609     4.32606
      C    8    0.07366      0.99952     1.91161    0.01521     2.92634
      C    9   -0.30213      0.99964     2.29655    0.00594     3.30213
      O   10   -0.30475      0.99989     3.29424    0.01062     4.30475
      C   11   -0.10182      0.99960     2.09201    0.01021     3.10182
      H   12    0.10740      0.00000     0.39151    0.00109     0.39260
      H   13    0.09979      0.00000     0.39915    0.00106     0.40021
      H   14    0.09909      0.00000     0.39977    0.00114     0.40091
      H   15    0.10692      0.00000     0.39168    0.00140     0.39308
      H   16    0.10165      0.00000     0.39587    0.00247     0.39835
      H   17    0.10272      0.00000     0.39516    0.00212     0.39728
      H   18    0.09097      0.00000     0.40733    0.00170     0.40903
      H   19    0.19761      0.00000     0.29841    0.00398     0.30239
      H   20    0.08809      0.00000     0.41003    0.00188     0.41191
      H   21    0.10160      0.00000     0.39691    0.00150     0.39840
      H   22    0.10612      0.00000     0.39280    0.00108     0.39388
      H   23    0.10333      0.00000     0.39559    0.00108     0.39667
      H   24    0.08173      0.00000     0.41627    0.00200     0.41827
      H   25    0.08011      0.00000     0.41763    0.00225     0.41989
      H   26    0.09187      0.00000     0.40675    0.00138     0.40813
 =======================================================================
   * Total *    0.00000     10.99620    31.85866    0.14513    43.00000

 Normal termination of Gaussian 16 at Tue Dec  8 20:53:09 2020.
