 Gaussian 16, Revision A.03,

 -----------------------------------------------------------
 # opt freq B3LYP/6-31G(d) empiricaldispersion=gd3bj scf=xqc
 -----------------------------------------------------------

 --------------------------------
 CID_106499019_JID_10029_neutraal
 --------------------------------
 Symbolic Z-matrix:
 Charge =  0 Multiplicity = 1

 SCF Done:  E(RB3LYP) =  -939.956239762     A.U. after   14 cycles
 SCF Done:  E(RB3LYP) =  -939.961483377     A.U. after   12 cycles
 SCF Done:  E(RB3LYP) =  -939.962123369     A.U. after   12 cycles
 SCF Done:  E(RB3LYP) =  -939.962320948     A.U. after   12 cycles
 SCF Done:  E(RB3LYP) =  -939.962483806     A.U. after   12 cycles
 SCF Done:  E(RB3LYP) =  -939.962524848     A.U. after   12 cycles
 SCF Done:  E(RB3LYP) =  -939.962683643     A.U. after   10 cycles
 SCF Done:  E(RB3LYP) =  -939.963217518     A.U. after   11 cycles
 SCF Done:  E(RB3LYP) =  -939.962664895     A.U. after   12 cycles
 SCF Done:  E(RB3LYP) =  -939.931710859     A.U. after   15 cycles
 SCF Done:  E(RB3LYP) =  -939.967303139     A.U. after    8 cycles
 SCF Done:  E(RB3LYP) =  -939.967303366     A.U. after    7 cycles
 SCF Done:  E(RB3LYP) =  -939.967303446     A.U. after    7 cycles
 SCF Done:  E(RB3LYP) =  -939.967303557     A.U. after    7 cycles
 SCF Done:  E(RB3LYP) =  -939.967303563     A.U. after    6 cycles
 Optimization completed.
    -- Stationary point found.
 Normal termination of Gaussian 16 at Sun Dec 13 20:58:19 2020.

 --------------------------------------------------------------------
 #N Geom=AllCheck Guess=TCheck SCRF=Check GenChk RB3LYP/6-31G(d) Freq
 --------------------------------------------------------------------

 Structure from the checkpoint file:  "JID_10029.chk"
 --------------------------------
 CID_106499019_JID_10029_neutraal
 --------------------------------
 Charge =  0 Multiplicity = 1

 SCF Done:  E(RB3LYP) =  -939.967303563     A.U. after    1 cycles

  Exact polarizability: 234.989   1.518 178.338   2.674  -1.139 112.441
 Approx polarizability: 311.245   0.485 273.562  -1.331  -4.954 173.270

                      1                      2                      3
                      A                      A                      A
 Frequencies --     15.5032                27.7616                35.1558
 Red. masses --      5.3886                 7.3411                 5.4936
 Frc consts  --      0.0008                 0.0033                 0.0040
 IR Inten    --      0.5340                 0.7014                 1.1990

                      4                      5                      6
                      A                      A                      A
 Frequencies --     37.0431                83.6518                93.7296
 Red. masses --      5.1924                 4.4300                 3.5353
 Frc consts  --      0.0042                 0.0183                 0.0183
 IR Inten    --      0.4069                 0.7004                 2.4827

                      7                      8                      9
                      A                      A                      A
 Frequencies --    142.1721               161.9123               167.1334
 Red. masses --      4.7285                 4.1050                 4.1236
 Frc consts  --      0.0563                 0.0634                 0.0679
 IR Inten    --      1.0745                 0.5464                 0.2410

                     10                     11                     12
                      A                      A                      A
 Frequencies --    174.4718               211.9877               226.1991
 Red. masses --      3.2623                 2.1746                 2.8192
 Frc consts  --      0.0585                 0.0576                 0.0850
 IR Inten    --      0.5354                 0.4630                 2.6116

                     13                     14                     15
                      A                      A                      A
 Frequencies --    248.9515               256.6953               282.3152
 Red. masses --      1.6553                 1.7124                 2.1017
 Frc consts  --      0.0604                 0.0665                 0.0987
 IR Inten    --     36.3884                54.8591                 0.4575

                     16                     17                     18
                      A                      A                      A
 Frequencies --    289.9382               305.5795               313.8156
 Red. masses --      2.0220                 3.0640                 3.5160
 Frc consts  --      0.1001                 0.1686                 0.2040
 IR Inten    --      0.2274                 4.4959                 2.3369

                     19                     20                     21
                      A                      A                      A
 Frequencies --    354.0058               367.0592               417.7691
 Red. masses --      2.3524                 2.9471                 2.0789
 Frc consts  --      0.1737                 0.2339                 0.2138
 IR Inten    --      0.7207                10.5736                20.3926

                     22                     23                     24
                      A                      A                      A
 Frequencies --    435.7770               462.3643               463.1476
 Red. masses --      2.4279                 2.7113                 2.3992
 Frc consts  --      0.2716                 0.3415                 0.3032
 IR Inten    --     40.3601                17.1767                40.3938

                     25                     26                     27
                      A                      A                      A
 Frequencies --    475.1927               483.1824               519.9011
 Red. masses --      3.3686                 3.4367                 3.0625
 Frc consts  --      0.4482                 0.4727                 0.4877
 IR Inten    --      7.4851                 1.7449                 2.8422

                     28                     29                     30
                      A                      A                      A
 Frequencies --    544.9035               554.5870               588.1733
 Red. masses --      3.3030                 4.2757                 4.3319
 Frc consts  --      0.5778                 0.7748                 0.8830
 IR Inten    --     19.1383                 8.1990                 4.7280

                     31                     32                     33
                      A                      A                      A
 Frequencies --    618.1586               628.8570               637.6579
 Red. masses --      1.2542                 3.5119                 3.2146
 Frc consts  --      0.2824                 0.8183                 0.7701
 IR Inten    --     69.6123                15.9841                 6.4381

                     34                     35                     36
                      A                      A                      A
 Frequencies --    655.5541               698.8568               740.6451
 Red. masses --      3.1460                 2.2377                 3.7403
 Frc consts  --      0.7966                 0.6439                 1.2089
 IR Inten    --     42.2595                 5.8772                 8.1615

                     37                     38                     39
                      A                      A                      A
 Frequencies --    747.1804               771.5659               781.0647
 Red. masses --      4.5702                 4.6635                 1.2563
 Frc consts  --      1.5033                 1.6357                 0.4515
 IR Inten    --      1.3348                35.6941                17.2050

                     40                     41                     42
                      A                      A                      A
 Frequencies --    802.7615               821.2816               822.7679
 Red. masses --      1.4750                 2.0292                 2.3384
 Frc consts  --      0.5600                 0.8064                 0.9327
 IR Inten    --      2.4279                29.3871                42.6818

                     43                     44                     45
                      A                      A                      A
 Frequencies --    869.5812               904.0474               918.2605
 Red. masses --      1.3895                 2.8303                 2.6776
 Frc consts  --      0.6191                 1.3629                 1.3302
 IR Inten    --      2.5338                 1.5883                13.7038

                     46                     47                     48
                      A                      A                      A
 Frequencies --    946.8789               960.3656               964.5114
 Red. masses --      1.7958                 2.7273                 1.2541
 Frc consts  --      0.9486                 1.4820                 0.6874
 IR Inten    --      4.6234                12.4867                 2.2562

                     49                     50                     51
                      A                      A                      A
 Frequencies --    984.9288               992.8367              1008.2855
 Red. masses --      2.1546                 2.0368                 2.2086
 Frc consts  --      1.2315                 1.1829                 1.3229
 IR Inten    --     43.3515                 2.5250                 0.5494

                     52                     53                     54
                      A                      A                      A
 Frequencies --   1013.7560              1042.0732              1089.4686
 Red. masses --      5.3445                 2.1620                 4.7349
 Frc consts  --      3.2361                 1.3833                 3.3112
 IR Inten    --      0.8817                 5.1013                35.7109

                     55                     56                     57
                      A                      A                      A
 Frequencies --   1096.5471              1109.5554              1125.3599
 Red. masses --      2.3972                 1.9644                 1.6450
 Frc consts  --      1.6983                 1.4249                 1.2274
 IR Inten    --      0.5926                62.5301                12.1948

                     58                     59                     60
                      A                      A                      A
 Frequencies --   1129.0827              1165.2411              1172.3446
 Red. masses --      2.3923                 1.2984                 2.8044
 Frc consts  --      1.7968                 1.0387                 2.2709
 IR Inten    --      9.2728                 4.3319                71.1657

                     61                     62                     63
                      A                      A                      A
 Frequencies --   1185.4557              1186.8419              1200.8864
 Red. masses --      2.4105                 1.2722                 1.8204
 Frc consts  --      1.9959                 1.0558                 1.5468
 IR Inten    --     35.4973                 0.6208               147.0870

                     64                     65                     66
                      A                      A                      A
 Frequencies --   1204.6832              1216.9034              1246.0905
 Red. masses --      1.2072                 1.4291                 1.3687
 Frc consts  --      1.0322                 1.2469                 1.2521
 IR Inten    --     66.6542                37.4039                10.9411

                     67                     68                     69
                      A                      A                      A
 Frequencies --   1258.7360              1274.8184              1297.4858
 Red. masses --      2.2016                 1.4263                 1.3218
 Frc consts  --      2.0552                 1.3657                 1.3110
 IR Inten    --    303.9182                 8.8055                 9.2606

                     70                     71                     72
                      A                      A                      A
 Frequencies --   1314.9658              1322.9163              1333.5950
 Red. masses --      1.7968                 1.5666                 1.6018
 Frc consts  --      1.8305                 1.6153                 1.6784
 IR Inten    --     21.2769                61.6855                10.8806

                     73                     74                     75
                      A                      A                      A
 Frequencies --   1349.4440              1364.5043              1370.7519
 Red. masses --      1.2998                 1.4644                 1.4303
 Frc consts  --      1.3946                 1.6064                 1.5834
 IR Inten    --      1.2720                17.8952                 0.4724

                     76                     77                     78
                      A                      A                      A
 Frequencies --   1376.6220              1389.1764              1390.3348
 Red. masses --      2.5901                 1.3462                 2.9025
 Frc consts  --      2.8920                 1.5307                 3.3057
 IR Inten    --     43.9951                 1.1511                49.6164

                     79                     80                     81
                      A                      A                      A
 Frequencies --   1397.7439              1414.9661              1424.8578
 Red. masses --      1.6522                 1.5905                 1.4754
 Frc consts  --      1.9019                 1.8762                 1.7648
 IR Inten    --     23.5653                 6.0311                15.1588

                     82                     83                     84
                      A                      A                      A
 Frequencies --   1435.7109              1463.6587              1500.2228
 Red. masses --      1.5490                 1.9656                 1.1713
 Frc consts  --      1.8812                 2.4810                 1.5532
 IR Inten    --     22.8639                10.6040                12.1813

                     85                     86                     87
                      A                      A                      A
 Frequencies --   1502.6464              1505.4620              1519.7502
 Red. masses --      1.1003                 1.1145                 1.0509
 Frc consts  --      1.4637                 1.4882                 1.4300
 IR Inten    --      5.2538                 9.2275                 4.1713

                     88                     89                     90
                      A                      A                      A
 Frequencies --   1520.0445              1524.3252              1535.1069
 Red. masses --      1.0934                 1.0912                 1.1340
 Frc consts  --      1.4884                 1.4939                 1.5745
 IR Inten    --     25.0093                 6.6679                75.4252

                     91                     92                     93
                      A                      A                      A
 Frequencies --   1537.8791              1554.8685              1572.6474
 Red. masses --      1.0927                 2.2174                 1.7939
 Frc consts  --      1.5226                 3.1585                 2.6140
 IR Inten    --     18.2636               105.4476                41.3195

                     94                     95                     96
                      A                      A                      A
 Frequencies --   1657.8294              1668.1798              1848.6666
 Red. masses --      5.2354                 5.3770                 9.5120
 Frc consts  --      8.4778                 8.8161                19.1532
 IR Inten    --     63.6118               336.7651               332.7524

                     97                     98                     99
                      A                      A                      A
 Frequencies --   3011.7591              3018.3470              3030.5432
 Red. masses --      1.0718                 1.0352                 1.0659
 Frc consts  --      5.7279                 5.5568                 5.7680
 IR Inten    --     24.8584                50.4942                36.8793

                    100                    101                    102
                      A                      A                      A
 Frequencies --   3053.0352              3057.3730              3059.1143
 Red. masses --      1.0623                 1.0600                 1.0642
 Frc consts  --      5.8338                 5.8377                 5.8677
 IR Inten    --     27.5625                23.0019                15.3959

                    103                    104                    105
                      A                      A                      A
 Frequencies --   3070.2112              3073.8997              3080.7037
 Red. masses --      1.0866                 1.1062                 1.0959
 Frc consts  --      6.0346                 6.1582                 6.1278
 IR Inten    --      4.4968                48.4947                36.1662

                    106                    107                    108
                      A                      A                      A
 Frequencies --   3096.5768              3102.0068              3114.4776
 Red. masses --      1.1039                 1.1019                 1.0994
 Frc consts  --      6.2364                 6.2472                 6.2831
 IR Inten    --     11.1285                68.6923                26.2383

                    109                    110                    111
                      A                      A                      A
 Frequencies --   3119.0807              3152.7496              3186.4244
 Red. masses --      1.0914                 1.0990                 1.0884
 Frc consts  --      6.2556                 6.4360                 6.5112
 IR Inten    --     15.0577                33.3517                22.5197

                    112                    113                    114
                      A                      A                      A
 Frequencies --   3201.0475              3222.2583              3250.9075
 Red. masses --      1.0887                 1.0930                 1.0916
 Frc consts  --      6.5725                 6.6867                 6.7974
 IR Inten    --     10.9457                 9.5823                 2.9555

                    115                    116                    117
                      A                      A                      A
 Frequencies --   3600.0209              3687.0162              3735.9449
 Red. masses --      1.0759                 1.0641                 1.0659
 Frc consts  --      8.2158                 8.5226                 8.7653
 IR Inten    --      6.8406                54.3728                 9.5684

 - Thermochemistry -
 -------------------
 Temperature   298.150 Kelvin.  Pressure   1.00000 Atm.
 Atom     1 has atomic number  6 and mass  12.00000

 Molecular mass:   279.14706 amu.
 Principal axes and moments of inertia in atomic units:
                           1         2         3
     Eigenvalues --  2537.76249********************
           X            0.99993   0.01194   0.00122
           Y           -0.01194   0.99993   0.00246
           Z           -0.00119  -0.00248   1.00000
 This molecule is an asymmetric top.
 Rotational symmetry number  1.
 Warning -- assumption of classical behavior for rotation
           may cause significant error
 Rotational temperatures (Kelvin)      0.03413     0.00653     0.00577
 Rotational constants (GHZ):           0.71115     0.13614     0.12015
 Zero-point vibrational energy     919640.2 (Joules/Mol)
                                  219.79928 (Kcal/Mol)
 Warning -- explicit consideration of  31 degrees of freedom as
           vibrations may cause significant error
 Vibrational temperatures:     22.31    39.94    50.58    53.30   120.36
          (Kelvin)            134.86   204.55   232.96   240.47   251.03
                              305.00   325.45   358.19   369.33   406.19
                              417.16   439.66   451.51   509.34   528.12
                              601.08   626.99   665.24   666.37   683.70
                              695.19   748.02   783.99   797.93   846.25
                              889.39   904.78   917.45   943.20  1005.50
                             1065.62  1075.03  1110.11  1123.78  1154.99
                             1181.64  1183.78  1251.13  1300.72  1321.17
                             1362.35  1381.75  1387.72  1417.09  1428.47
                             1450.70  1458.57  1499.31  1567.50  1577.69
                             1596.40  1619.14  1624.50  1676.52  1686.74
                             1705.61  1707.60  1727.81  1733.27  1750.85
                             1792.85  1811.04  1834.18  1866.79  1891.94
                             1903.38  1918.75  1941.55  1963.22  1972.21
                             1980.65  1998.71  2000.38  2011.04  2035.82
                             2050.05  2065.67  2105.88  2158.49  2161.97
                             2166.02  2186.58  2187.01  2193.16  2208.68
                             2212.67  2237.11  2262.69  2385.25  2400.14
                             2659.82  4333.25  4342.73  4360.28  4392.64
                             4398.88  4401.38  4417.35  4422.66  4432.45
                             4455.28  4463.10  4481.04  4487.66  4536.10
                             4584.55  4605.59  4636.11  4677.33  5179.63
                             5304.79  5375.19

 Zero-point correction=                           0.350272 (Hartree/Particle)
 Thermal correction to Energy=                    0.369561
 Thermal correction to Enthalpy=                  0.370505
 Thermal correction to Gibbs Free Energy=         0.300714
 Sum of electronic and zero-point Energies=           -939.617031
 Sum of electronic and thermal Energies=              -939.597742
 Sum of electronic and thermal Enthalpies=            -939.596798
 Sum of electronic and thermal Free Energies=         -939.666590

                     E (Thermal)             CV                S
                      KCal/Mol        Cal/Mol-Kelvin    Cal/Mol-Kelvin
 Total                  231.903             74.878            146.889
 Electronic               0.000              0.000              0.000
 Translational            0.889              2.981             42.778
 Rotational               0.889              2.981             34.579
 Vibrational            230.126             68.916             69.532
 Vibration     1          0.593              1.986              7.140
 Vibration     2          0.593              1.984              5.983
 Vibration     3          0.594              1.982              5.515
 Vibration     4          0.594              1.982              5.411
 Vibration     5          0.601              1.960              3.803
 Vibration     6          0.603              1.954              3.581
 Vibration     7          0.616              1.911              2.774
 Vibration     8          0.622              1.889              2.527
 Vibration     9          0.624              1.883              2.467
 Vibration    10          0.627              1.874              2.387
 Vibration    11          0.643              1.823              2.026
 Vibration    12          0.650              1.801              1.909
 Vibration    13          0.662              1.765              1.738
 Vibration    14          0.666              1.751              1.684
 Vibration    15          0.681              1.706              1.520
 Vibration    16          0.686              1.692              1.474
 Vibration    17          0.696              1.663              1.386
 Vibration    18          0.702              1.647              1.342
 Vibration    19          0.730              1.567              1.148
 Vibration    20          0.740              1.540              1.092
 Vibration    21          0.781              1.432              0.900
 Vibration    22          0.796              1.392              0.840
 Vibration    23          0.820              1.334              0.759
 Vibration    24          0.821              1.332              0.757
 Vibration    25          0.832              1.305              0.723
 Vibration    26          0.839              1.287              0.702
 Vibration    27          0.875              1.206              0.610
 Vibration    28          0.900              1.151              0.555
 Vibration    29          0.910              1.130              0.535
 Vibration    30          0.945              1.057              0.470
 Vibration    31          0.978              0.994              0.419

                           ! Non-Optimized Parameters !
 Normal termination of Gaussian 16 at Sun Dec 13 21:17:10 2020.

 ----------------------------------------------------------------------
 # B3LYP/6-311++G(d,p) empiricaldispersion=gd3bj scf=xqc pop=npa geom=c
 heck
 ----------------------------------------------------------------------

 ----------------------------------------
 CID_106499019_JID_10029_Energie_neutraal
 ----------------------------------------
 Structure from the checkpoint file:  "JID_10029.chk"
 Charge =  0 Multiplicity = 1

 SCF Done:  E(RB3LYP) =  -940.250949862     A.U. after   15 cycles
 Normal termination of Gaussian 16 at Sun Dec 13 21:25:07 2020.

 ----------------------------------------------------------------------
 # B3LYP/6-311++G(d,p) empiricaldispersion=gd3bj scf=xqc pop=npa geom=c
 heck
 ----------------------------------------------------------------------

 --------------------------------------
 CID_106499019_JID_10029_Energie_kation
 --------------------------------------
 Structure from the checkpoint file:  "JID_10029.chk"
 Charge =  1 Multiplicity = 2

 SCF Done:  E(UB3LYP) =  -939.990199619     A.U. after   22 cycles
 Normal termination of Gaussian 16 at Sun Dec 13 21:41:05 2020.
 Gaussian 16:  ES64L-G16RevA.03 25-Dec-2016

 ----------------------------------------------------------------------
 # B3LYP/6-311++G(d,p) empiricaldispersion=gd3bj scf=xqc pop=npa geom=c
 heck
 ----------------------------------------------------------------------

 -------------------------------------
 CID_106499019_JID_10029_Energie_anion
 -------------------------------------
 Structure from the checkpoint file:  "JID_10029.chk"
 Charge = -1 Multiplicity = 2

                         Standard orientation:
 ---------------------------------------------------------------------
 Center     Atomic      Atomic             Coordinates (Angstroms)
 Number     Number       Type             X           Y           Z
 ---------------------------------------------------------------------
      1          6           0        5.124350    2.763703    0.114800
      2          8           0        5.459908    1.389735    0.091268
      3          6           0        4.441093    0.479991    0.006936
      4          6           0        4.829791   -0.866596   -0.004050
      5          6           0        3.847257   -1.845021   -0.085634
      6          6           0        2.489974   -1.524298   -0.156959
      7          6           0        2.106553   -0.176385   -0.159946
      8          6           0        3.093246    0.826646   -0.076730
      9          7           0        0.767115    0.217587   -0.218833
     10          6           0       -0.270142   -0.576274   -0.857825
     11          6           0       -1.191621   -1.362802    0.101832
     12          6           0       -1.569346   -0.544107    1.342376
     13          6           0       -2.515024    0.618814    1.023971
     14          6           0       -3.796774    0.111033    0.332645
     15          6           0       -3.447246   -0.681029   -0.944177
     16          6           0       -2.462413   -1.819004   -0.641829
     17          6           0       -4.752160    1.243497    0.029651
     18          8           0       -5.878530    1.357996    0.458749
     19          8           0       -4.203015    2.163320   -0.810367
     20          8           0       -0.433370   -2.516184    0.487405
     21          1           0        6.069296    3.304188    0.196755
     22          1           0        4.489381    3.010818    0.976562
     23          1           0        4.610605    3.071334   -0.806438
     24          1           0        5.884673   -1.110201    0.057043
     25          1           0        4.139848   -2.891857   -0.083134
     26          1           0        1.736301   -2.300564   -0.164447
     27          1           0        2.785834    1.867220   -0.085035
     28          1           0        0.657156    1.212048   -0.358147
     29          1           0       -0.886334    0.101856   -1.454970
     30          1           0        0.173487   -1.301625   -1.551039
     31          1           0       -2.065703   -1.216712    2.058984
     32          1           0       -0.651209   -0.180455    1.811768
     33          1           0       -2.018060    1.345881    0.371220
     34          1           0       -2.774682    1.151710    1.946060
     35          1           0       -4.333862   -0.547864    1.024262
     36          1           0       -3.025300    0.008452   -1.683801
     37          1           0       -4.361322   -1.091655   -1.388946
     38          1           0       -2.174988   -2.332799   -1.567280
     39          1           0       -2.962766   -2.568964   -0.012893
     40          1           0       -4.889925    2.842766   -0.945256
     41          1           0       -0.897421   -2.944632    1.223745
 ---------------------------------------------------------------------

 SCF Done:  E(UB3LYP) =  -940.244750971     A.U. after   33 cycles
 SCF Done:  E(UB3LYP) =  -940.244750972     a.u. after    1 cycles

 The electronic state is 2-A.
 Alpha  occ. eigenvalues --  -19.07946 -19.06790 -19.03863 -19.02892 -14.23142
 Alpha  occ. eigenvalues --  -10.21722 -10.14447 -10.14296 -10.13905 -10.12485
 Alpha  occ. eigenvalues --  -10.11475 -10.10357 -10.09133 -10.08799 -10.08614
 Alpha  occ. eigenvalues --  -10.08529 -10.08045 -10.07634 -10.07154 -10.06501
 Alpha  occ. eigenvalues --   -1.02064  -0.98360  -0.94404  -0.93223  -0.84487
 Alpha  occ. eigenvalues --   -0.76069  -0.75080  -0.68796  -0.66824  -0.66381
 Alpha  occ. eigenvalues --   -0.65379  -0.61123  -0.60114  -0.55331  -0.54140
 Alpha  occ. eigenvalues --   -0.52290  -0.50980  -0.49765  -0.47423  -0.45080
 Alpha  occ. eigenvalues --   -0.43869  -0.42355  -0.40534  -0.39984  -0.39554
 Alpha  occ. eigenvalues --   -0.38568  -0.38549  -0.38047  -0.37018  -0.36888
 Alpha  occ. eigenvalues --   -0.34867  -0.34538  -0.34197  -0.33377  -0.32486
 Alpha  occ. eigenvalues --   -0.31262  -0.30441  -0.30032  -0.29919  -0.29618
 Alpha  occ. eigenvalues --   -0.28351  -0.28093  -0.27008  -0.26492  -0.25310
 Alpha  occ. eigenvalues --   -0.24985  -0.24822  -0.24298  -0.23644  -0.23206
 Alpha  occ. eigenvalues --   -0.19781  -0.19126  -0.18912  -0.14318  -0.11107
 Alpha  occ. eigenvalues --    0.03565
 Alpha virt. eigenvalues --    0.05258   0.05689   0.07074   0.07255   0.07399
 Alpha virt. eigenvalues --    0.07989   0.08312   0.08412   0.09051   0.09137
 Alpha virt. eigenvalues --    0.09578   0.09891   0.10279   0.10389   0.10561

  Beta  occ. eigenvalues --  -19.07898 -19.06785 -19.03850 -19.02882 -14.23120
  Beta  occ. eigenvalues --  -10.21716 -10.14447 -10.14298 -10.13877 -10.12487
  Beta  occ. eigenvalues --  -10.11460 -10.10344 -10.09117 -10.08779 -10.08600
  Beta  occ. eigenvalues --  -10.08529 -10.08027 -10.07620 -10.07154 -10.06496
  Beta  occ. eigenvalues --   -1.02005  -0.98346  -0.94380  -0.93173  -0.84456
  Beta  occ. eigenvalues --   -0.76046  -0.75064  -0.68766  -0.66791  -0.66362
  Beta  occ. eigenvalues --   -0.65358  -0.61085  -0.60077  -0.55274  -0.54090
  Beta  occ. eigenvalues --   -0.52261  -0.50918  -0.49726  -0.47379  -0.45045
  Beta  occ. eigenvalues --   -0.43832  -0.42316  -0.40507  -0.39956  -0.39533
  Beta  occ. eigenvalues --   -0.38548  -0.38527  -0.38020  -0.36986  -0.36862
  Beta  occ. eigenvalues --   -0.34838  -0.34516  -0.34169  -0.33338  -0.32462
  Beta  occ. eigenvalues --   -0.31238  -0.30417  -0.30006  -0.29895  -0.29592
  Beta  occ. eigenvalues --   -0.28334  -0.28066  -0.26972  -0.26464  -0.25287
  Beta  occ. eigenvalues --   -0.24959  -0.24797  -0.24267  -0.23615  -0.23187
  Beta  occ. eigenvalues --   -0.19771  -0.19090  -0.18894  -0.14308  -0.11094
  Beta virt. eigenvalues --    0.05691   0.05982   0.06684   0.07354   0.07592
  Beta virt. eigenvalues --    0.07843   0.08144   0.08362   0.08682   0.09295
  Beta virt. eigenvalues --    0.09418   0.09638   0.09924   0.10538   0.10604

 Mulliken charges and spin densities:
               1          2
     1  C    0.349096  -0.697767
     2  O   -0.193614   0.029501
     3  C   -0.176923  -0.590819
     4  C   -0.600308   0.260861
     5  C   -0.375471   0.180428
     6  C    0.110262  -0.023395
     7  C    0.362302  -0.182600
     8  C    0.456018  -0.269009
     9  N    0.075053   0.201826
    10  C    0.175312  -1.196532
    11  C   -0.274512   0.176853
    12  C   -0.783023   0.680611
    13  C    1.100230  -1.560260
    14  C    0.070047   0.216876
    15  C    0.324740  -0.699170
    16  C   -0.583874   0.301946
    17  C   -0.152280  -0.236395
    18  O   -0.260336   0.008367
    19  O   -0.179525   0.043434
    20  O   -0.138131   0.003205
    21  H   -0.009183   0.175844
    22  H   -0.089109   0.247355
    23  H   -0.127145   0.284354
    24  H    0.138988   0.012577
    25  H    0.123612   0.029492
    26  H    0.292064  -0.079456
    27  H   -0.251373   0.367260
    28  H   -0.118272   0.432065
    29  H    0.057412   0.108062
    30  H    0.160171   0.040744
    31  H   -0.293851   0.427181
    32  H    0.178509   0.041182
    33  H   -0.047858   0.248063
    34  H   -0.050814   0.240785
    35  H    0.104341   0.127320
    36  H   -0.004325   0.196346
    37  H   -0.044506   0.243107
    38  H    0.081420   0.096182
    39  H   -0.182969   0.334908
    40  H   -0.282488   0.579262
    41  H    0.060311   0.199408
 Sum of Mulliken charges =  -1.00000   1.00000

 Dipole moment (field-independent basis, Debye):
    X=              3.6391    Y=             -4.5865    Z=              0.1686  Tot=              5.8573
 Quadrupole moment (field-independent basis, Debye-Ang):
   XX=           -233.6363   YY=           -169.9379   ZZ=           -150.9132
   XY=              6.0217   XZ=              0.7098   YZ=              4.9724

 Summary of Natural Population Analysis:

                                       Natural Population
                Natural  -----------------------------------------------
    Atom  No    Charge         Core      Valence    Rydberg      Total
 -----------------------------------------------------------------------
      C    1   -0.10204      0.99960     2.09326    0.00918     3.10204
      O    2   -0.27500      0.99986     3.26589    0.00925     4.27500
      C    3    0.16538      0.99939     1.82091    0.01432     2.83462
      C    4   -0.14789      0.99952     2.13876    0.00961     3.14789
      C    5   -0.08670      0.99958     2.07820    0.00892     3.08670
      C    6   -0.14843      0.99951     2.14105    0.00787     3.14843
      C    7    0.10334      0.99949     1.88584    0.01133     2.89666
      C    8   -0.16705      0.99948     2.15891    0.00866     3.16705
      N    9   -0.31538      0.99967     2.80384    0.01186     3.81538
      C   10   -0.09446      0.99954     2.08172    0.01320     3.09446
      C   11    0.13085      0.99949     1.85518    0.01448     2.86915
      C   12   -0.20360      0.99957     2.19363    0.01040     3.20360
      C   13   -0.18748      0.99961     2.17900    0.00887     3.18748
      C   14   -0.15309      0.99954     2.14258    0.01097     3.15309
      C   15   -0.18804      0.99961     2.18015    0.00828     3.18804
      C   16   -0.19984      0.99958     2.18978    0.01048     3.19984
      C   17    0.41425      0.99967     1.55979    0.02629     2.58575
      O   18   -0.30619      0.99987     3.30033    0.00599     4.30619
      O   19   -0.34678      0.99988     3.33979    0.00712     4.34678
      O   20   -0.37912      0.99989     3.37175    0.00748     4.37912
      H   21    0.09125      0.00000     0.40787    0.00089     0.40875
      H   22    0.08604      0.00000     0.41264    0.00132     0.41396
      H   23    0.08600      0.00000     0.41258    0.00142     0.41400
      H   24    0.10318      0.00000     0.39589    0.00093     0.39682
      H   25    0.09708      0.00000     0.40219    0.00073     0.40292
      H   26    0.11757      0.00000     0.38097    0.00146     0.38243
      H   27    0.10553      0.00000     0.39267    0.00180     0.39447
      H   28    0.18832      0.00000     0.30839    0.00330     0.31168
      H   29    0.10239      0.00000     0.39632    0.00130     0.39761
      H   30    0.10176      0.00000     0.39668    0.00156     0.39824
      H   31    0.09455      0.00000     0.40412    0.00133     0.40545
      H   32    0.11560      0.00000     0.38317    0.00122     0.38440
      H   33    0.10399      0.00000     0.39359    0.00243     0.39601
      H   34    0.10387      0.00000     0.39508    0.00105     0.39613
      H   35    0.10704      0.00000     0.39134    0.00162     0.39296
      H   36    0.10315      0.00000     0.39485    0.00200     0.39685
      H   37    0.10338      0.00000     0.39565    0.00097     0.39662
      H   38    0.10436      0.00000     0.39464    0.00100     0.39564
      H   39    0.09887      0.00000     0.39989    0.00124     0.40113
      H   40    0.24362      0.00000     0.24584    0.01054     0.25638
      H   41    0.22974      0.00000     0.26761    0.00265     0.27026
 =======================================================================
   * Total *   -0.00000     19.99234    54.75235    0.25531    75.00000

 Normal termination of Gaussian 16 at Sun Dec 13 22:04:27 2020.
