 Gaussian 16, Revision A.03,

 -----------------------------------------------------------
 # opt freq B3LYP/6-31G(d) empiricaldispersion=gd3bj scf=xqc
 -----------------------------------------------------------

 --------------------------------
 CID_150818794_JID_10938_neutraal
 --------------------------------
 Symbolic Z-matrix:
 Charge =  0 Multiplicity = 1

 SCF Done:  E(RB3LYP) =  -851.970897664     A.U. after   15 cycles
 SCF Done:  E(RB3LYP) =  -851.977395815     A.U. after   13 cycles
 SCF Done:  E(RB3LYP) =  -851.978686083     A.U. after   13 cycles
 SCF Done:  E(RB3LYP) =  -851.979056594     A.U. after   12 cycles
 SCF Done:  E(RB3LYP) =  -851.979237732     A.U. after   12 cycles
 SCF Done:  E(RB3LYP) =  -851.979302054     A.U. after   11 cycles
 SCF Done:  E(RB3LYP) =  -851.979332203     A.U. after   11 cycles
 SCF Done:  E(RB3LYP) =  -851.979344217     A.U. after   10 cycles
 SCF Done:  E(RB3LYP) =  -851.979359722     A.U. after   11 cycles
 SCF Done:  E(RB3LYP) =  -851.979374230     A.U. after   11 cycles
 SCF Done:  E(RB3LYP) =  -851.979383319     A.U. after   11 cycles
 SCF Done:  E(RB3LYP) =  -851.979391235     A.U. after   11 cycles
 SCF Done:  E(RB3LYP) =  -851.979393430     A.U. after   10 cycles
 SCF Done:  E(RB3LYP) =  -851.979394189     A.U. after    8 cycles
 Optimization completed.
    -- Stationary point found.
 Normal termination of Gaussian 16 at Sat Dec 12 16:34:01 2020.

 --------------------------------------------------------------------
 #N Geom=AllCheck Guess=TCheck SCRF=Check GenChk RB3LYP/6-31G(d) Freq
 --------------------------------------------------------------------

 Structure from the checkpoint file:  "JID_10938.chk"
 --------------------------------
 CID_150818794_JID_10938_neutraal
 --------------------------------
 Charge =  0 Multiplicity = 1

 SCF Done:  E(RB3LYP) =  -851.979394189     A.U. after    1 cycles

  Exact polarizability: 278.546   6.813 176.466 -13.993  24.305 107.517
 Approx polarizability: 407.926  14.445 311.391 -33.574  54.035 186.252

                      1                      2                      3
                      A                      A                      A
 Frequencies --     21.2120                40.7707                83.0425
 Red. masses --      4.5683                 4.8409                 5.1197
 Frc consts  --      0.0012                 0.0047                 0.0208
 IR Inten    --      0.8891                 0.6713                 2.3202

                      4                      5                      6
                      A                      A                      A
 Frequencies --    108.9514               119.0148               153.1990
 Red. masses --      5.9510                 5.4931                 5.2917
 Frc consts  --      0.0416                 0.0458                 0.0732
 IR Inten    --      2.4498                 0.7348                 3.1877

                      7                      8                      9
                      A                      A                      A
 Frequencies --    210.5097               233.7123               259.1930
 Red. masses --      5.5981                 5.6316                 5.6171
 Frc consts  --      0.1462                 0.1812                 0.2223
 IR Inten    --      2.0702                 1.8304                 6.1212

                     10                     11                     12
                      A                      A                      A
 Frequencies --    301.9625               339.2077               386.0127
 Red. masses --      5.1186                 6.7301                 6.3250
 Frc consts  --      0.2750                 0.4563                 0.5553
 IR Inten    --      0.3737                 0.4770                 7.4330

                     13                     14                     15
                      A                      A                      A
 Frequencies --    416.9505               422.8122               439.3068
 Red. masses --      3.1409                 5.0491                 5.9524
 Frc consts  --      0.3217                 0.5318                 0.6768
 IR Inten    --      1.9511                 4.2289                 1.2080

                     16                     17                     18
                      A                      A                      A
 Frequencies --    457.9742               487.2416               522.8448
 Red. masses --      6.6672                 4.5697                 4.0124
 Frc consts  --      0.8239                 0.6392                 0.6463
 IR Inten    --      4.1256                 5.2311                 0.7047

                     19                     20                     21
                      A                      A                      A
 Frequencies --    548.8963               584.4066               595.9515
 Red. masses --      5.0400                 4.7678                 4.9383
 Frc consts  --      0.8947                 0.9594                 1.0334
 IR Inten    --      5.9287                 3.0320                18.5672

                     22                     23                     24
                      A                      A                      A
 Frequencies --    634.7839               660.5189               677.5659
 Red. masses --      6.3153                 6.3723                 6.5426
 Frc consts  --      1.4993                 1.6380                 1.7697
 IR Inten    --      0.5130                 6.9670                 0.1957

                     25                     26                     27
                      A                      A                      A
 Frequencies --    693.8088               703.2482               709.3426
 Red. masses --      6.3646                 2.5010                 3.7877
 Frc consts  --      1.8051                 0.7288                 1.1229
 IR Inten    --      8.0313                 6.2956                21.5223

                     28                     29                     30
                      A                      A                      A
 Frequencies --    733.9231               763.8863               771.3977
 Red. masses --      4.9471                 4.4312                 1.7175
 Frc consts  --      1.5700                 1.5235                 0.6021
 IR Inten    --     25.5294                11.9384                19.4897

                     31                     32                     33
                      A                      A                      A
 Frequencies --    777.2145               801.1365               842.9312
 Red. masses --      1.3628                 1.4064                 1.2565
 Frc consts  --      0.4850                 0.5318                 0.5260
 IR Inten    --     61.3293                 7.2509                 0.1583

                     34                     35                     36
                      A                      A                      A
 Frequencies --    868.5517               892.3998               914.7331
 Red. masses --      2.3267                 1.9867                 1.4175
 Frc consts  --      1.0342                 0.9322                 0.6988
 IR Inten    --     14.4143                 5.1591                 5.3160

                     37                     38                     39
                      A                      A                      A
 Frequencies --    923.1303               945.7880               958.8052
 Red. masses --      1.4618                 4.9305                 1.5292
 Frc consts  --      0.7340                 2.5985                 0.8283
 IR Inten    --      4.1174                26.3049                 7.3135

                     40                     41                     42
                      A                      A                      A
 Frequencies --    962.1398               980.1318               986.6862
 Red. masses --      1.3351                 5.8002                 1.2419
 Frc consts  --      0.7282                 3.2830                 0.7123
 IR Inten    --      0.6197                16.7711                 0.2466

                     43                     44                     45
                      A                      A                      A
 Frequencies --    992.2315              1019.2844              1022.0766
 Red. masses --      1.2842                 6.7243                 5.9695
 Frc consts  --      0.7449                 4.1161                 3.6741
 IR Inten    --      0.1434                14.5529                 1.6639

                     46                     47                     48
                      A                      A                      A
 Frequencies --   1040.7656              1063.0522              1082.1290
 Red. masses --     10.2503                 2.0844                 2.1580
 Frc consts  --      6.5417                 1.3878                 1.4889
 IR Inten    --      0.6459                 4.5679                 1.4841

                     49                     50                     51
                      A                      A                      A
 Frequencies --   1084.4033              1125.7859              1150.8132
 Red. masses --      4.1212                 1.6289                 1.8685
 Frc consts  --      2.8553                 1.2163                 1.4580
 IR Inten    --     32.4984                 9.6331                 9.1257

                     52                     53                     54
                      A                      A                      A
 Frequencies --   1193.0385              1200.1059              1207.5018
 Red. masses --      1.0907                 1.1026                 1.4335
 Frc consts  --      0.9147                 0.9356                 1.2315
 IR Inten    --      0.8156                 0.5419                10.0395

                     55                     56                     57
                      A                      A                      A
 Frequencies --   1218.3899              1233.9980              1260.1814
 Red. masses --      1.5319                 3.0174                 2.0042
 Frc consts  --      1.3398                 2.7071                 1.8752
 IR Inten    --     12.3416                15.6173                15.2039

                     58                     59                     60
                      A                      A                      A
 Frequencies --   1284.7775              1323.1712              1353.0630
 Red. masses --      3.8954                 1.9982                 2.6247
 Frc consts  --      3.7884                 2.0612                 2.8311
 IR Inten    --     71.2584                 5.7434                10.7719

                     61                     62                     63
                      A                      A                      A
 Frequencies --   1359.8039              1370.1747              1370.5612
 Red. masses --      4.4614                 2.4668                 5.3337
 Frc consts  --      4.8604                 2.7286                 5.9030
 IR Inten    --      5.1824                 1.1006                25.6143

                     64                     65                     66
                      A                      A                      A
 Frequencies --   1415.9789              1445.1758              1499.2282
 Red. masses --      1.3686                 4.7104                 2.7479
 Frc consts  --      1.6168                 5.7963                 3.6390
 IR Inten    --      3.3419                77.2723                34.5414

                     67                     68                     69
                      A                      A                      A
 Frequencies --   1504.1371              1534.4993              1546.3339
 Red. masses --      2.4759                 5.1781                 2.4391
 Frc consts  --      3.3003                 7.1838                 3.4363
 IR Inten    --     11.6353               100.0424                71.0441

                     70                     71                     72
                      A                      A                      A
 Frequencies --   1548.2688              1561.2669              1641.8546
 Red. masses --      3.1485                 4.6336                 6.7324
 Frc consts  --      4.4467                 6.6547                10.6928
 IR Inten    --     59.7670               195.0423                23.3240

                     73                     74                     75
                      A                      A                      A
 Frequencies --   1651.3256              1661.2715              1664.5289
 Red. masses --      6.2270                 5.9293                 5.6241
 Frc consts  --     10.0045                 9.6413                 9.1809
 IR Inten    --     10.0980                18.8124                76.0607

                     76                     77                     78
                      A                      A                      A
 Frequencies --   1701.9201              3158.7058              3185.9173
 Red. masses --      9.6205                 1.0881                 1.0854
 Frc consts  --     16.4182                 6.3965                 6.4909
 IR Inten    --      2.0311                11.4567                 2.2544

                     79                     80                     81
                      A                      A                      A
 Frequencies --   3193.4478              3195.4420              3204.7822
 Red. masses --      1.0877                 1.0900                 1.0887
 Frc consts  --      6.5357                 6.5574                 6.5878
 IR Inten    --      3.4216                19.7476                 4.4121

                     82                     83                     84
                      A                      A                      A
 Frequencies --   3210.2455              3217.3400              3225.8470
 Red. masses --      1.0952                 1.0928                 1.0972
 Frc consts  --      6.6502                 6.6649                 6.7268
 IR Inten    --     43.0445                15.0682                 9.4775

                     85                     86                     87
                      A                      A                      A
 Frequencies --   3226.8272              3254.2043              3287.4866
 Red. masses --      1.0937                 1.0914                 1.0978
 Frc consts  --      6.7095                 6.8096                 6.9907
 IR Inten    --      6.4583                 0.9319                 0.0519

 - Thermochemistry -
 -------------------
 Temperature   298.150 Kelvin.  Pressure   1.00000 Atm.
 Atom     1 has atomic number  6 and mass  12.00000

 Molecular mass:   261.10145 amu.
 Principal axes and moments of inertia in atomic units:
                           1         2         3
     Eigenvalues --  2496.264077643.848699039.97999
           X            1.00000  -0.00092  -0.00083
           Y            0.00095   0.99956   0.02954
           Z            0.00081  -0.02954   0.99956
 This molecule is an asymmetric top.
 Rotational symmetry number  1.
 Warning -- assumption of classical behavior for rotation
           may cause significant error
 Rotational temperatures (Kelvin)      0.03470     0.01133     0.00958
 Rotational constants (GHZ):           0.72298     0.23610     0.19964
 Zero-point vibrational energy     625806.3 (Joules/Mol)
                                  149.57129 (Kcal/Mol)
 Warning -- explicit consideration of  21 degrees of freedom as
           vibrations may cause significant error
 Vibrational temperatures:     30.52    58.66   119.48   156.76   171.24
          (Kelvin)            220.42   302.88   336.26   372.92   434.46
                              488.04   555.39   599.90   608.33   632.06
                              658.92   701.03   752.26   789.74   840.83
                              857.44   913.31   950.34   974.87   998.24
                             1011.82  1020.59  1055.95  1099.06  1109.87
                             1118.24  1152.66  1212.79  1249.65  1283.96
                             1316.10  1328.18  1360.78  1379.51  1384.30
                             1410.19  1419.62  1427.60  1466.52  1470.54
                             1497.43  1529.49  1556.94  1560.21  1619.75
                             1655.76  1716.52  1726.68  1737.33  1752.99
                             1775.45  1813.12  1848.51  1903.75  1946.76
                             1956.45  1971.38  1971.93  2037.28  2079.29
                             2157.05  2164.12  2207.80  2224.83  2227.61
                             2246.31  2362.26  2375.89  2390.20  2394.89
                             2448.68  4544.67  4583.82  4594.66  4597.53
                             4610.97  4618.83  4629.03  4641.27  4642.68
                             4682.07  4729.96

 Zero-point correction=                           0.238357 (Hartree/Particle)
 Thermal correction to Energy=                    0.252605
 Thermal correction to Enthalpy=                  0.253549
 Thermal correction to Gibbs Free Energy=         0.195760
 Sum of electronic and zero-point Energies=           -851.741037
 Sum of electronic and thermal Energies=              -851.726789
 Sum of electronic and thermal Enthalpies=            -851.725845
 Sum of electronic and thermal Free Energies=         -851.783634

                     E (Thermal)             CV                S
                      KCal/Mol        Cal/Mol-Kelvin    Cal/Mol-Kelvin
 Total                  158.512             58.058            121.627
 Electronic               0.000              0.000              0.000
 Translational            0.889              2.981             42.579
 Rotational               0.889              2.981             33.511
 Vibrational            156.734             52.096             45.537
 Vibration     1          0.593              1.985              6.517
 Vibration     2          0.594              1.981              5.221
 Vibration     3          0.600              1.961              3.818
 Vibration     4          0.606              1.942              3.288
 Vibration     5          0.609              1.933              3.116
 Vibration     6          0.619              1.899              2.632
 Vibration     7          0.643              1.825              2.039
 Vibration     8          0.654              1.789              1.850
 Vibration     9          0.668              1.747              1.667
 Vibration    10          0.694              1.670              1.406
 Vibration    11          0.719              1.597              1.216
 Vibration    12          0.755              1.500              1.016
 Vibration    13          0.780              1.433              0.902
 Vibration    14          0.785              1.421              0.882
 Vibration    15          0.799              1.384              0.829
 Vibration    16          0.816              1.343              0.772
 Vibration    17          0.843              1.278              0.691
 Vibration    18          0.878              1.199              0.603
 Vibration    19          0.904              1.142              0.546
 Vibration    20          0.941              1.065              0.477
 Vibration    21          0.954              1.040              0.457

                           ! Non-Optimized Parameters !
 Normal termination of Gaussian 16 at Sat Dec 12 16:48:37 2020.

 ----------------------------------------------------------------------
 # B3LYP/6-311++G(d,p) empiricaldispersion=gd3bj scf=xqc pop=npa geom=c
 heck
 ----------------------------------------------------------------------

 ----------------------------------------
 CID_150818794_JID_10938_Energie_neutraal
 ----------------------------------------
 Structure from the checkpoint file:  "JID_10938.chk"
 Charge =  0 Multiplicity = 1

 SCF Done:  E(RB3LYP) =  -852.190459550     A.U. after   16 cycles
 Normal termination of Gaussian 16 at Sat Dec 12 16:53:44 2020.

 ----------------------------------------------------------------------
 # B3LYP/6-311++G(d,p) empiricaldispersion=gd3bj scf=xqc pop=npa geom=c
 heck
 ----------------------------------------------------------------------

 --------------------------------------
 CID_150818794_JID_10938_Energie_kation
 --------------------------------------
 Structure from the checkpoint file:  "JID_10938.chk"
 Charge =  1 Multiplicity = 2

 SCF Done:  E(UB3LYP) =  -851.923318954     A.U. after   22 cycles
 Normal termination of Gaussian 16 at Sat Dec 12 17:03:19 2020.
 Gaussian 16:  ES64L-G16RevA.03 25-Dec-2016

 ----------------------------------------------------------------------
 # B3LYP/6-311++G(d,p) empiricaldispersion=gd3bj scf=xqc pop=npa geom=c
 heck
 ----------------------------------------------------------------------

 -------------------------------------
 CID_150818794_JID_10938_Energie_anion
 -------------------------------------
 Structure from the checkpoint file:  "JID_10938.chk"
 Charge = -1 Multiplicity = 2

                         Standard orientation:
 ---------------------------------------------------------------------
 Center     Atomic      Atomic             Coordinates (Angstroms)
 Number     Number       Type             X           Y           Z
 ---------------------------------------------------------------------
      1          6           0        4.847309   -0.505273    0.769300
      2          6           0        4.327738   -1.346498   -0.212923
      3          6           0        2.981053   -1.280940   -0.571281
      4          6           0        2.143971   -0.360302    0.062687
      5          6           0        2.654663    0.479699    1.058702
      6          6           0        4.001096    0.408554    1.400867
      7          7           0        0.741458   -0.305118   -0.232966
      8          6           0        0.166662    0.953610   -0.427487
      9          7           0        0.779010    2.062893   -0.764730
     10          7           0       -0.181348    3.063387   -0.821940
     11          6           0       -1.331671    2.522672   -0.527066
     12          7           0       -1.183522    1.178055   -0.249575
     13          6           0       -2.183630    0.250519    0.118722
     14          6           0       -3.280763    0.685014    0.864025
     15          6           0       -4.317548   -0.198367    1.157300
     16          6           0       -4.261698   -1.517874    0.706986
     17          6           0       -3.161566   -1.945635   -0.029520
     18          6           0       -2.097013   -1.080615   -0.324177
     19          6           0       -0.959023   -1.635494   -1.073485
     20          7           0        0.291471   -1.353692   -1.048109
     21          1           0        5.896949   -0.560609    1.042089
     22          1           0        4.972754   -2.062854   -0.714247
     23          1           0        2.574967   -1.935066   -1.331007
     24          1           0        2.003419    1.193052    1.550362
     25          1           0        4.387990    1.070561    2.170255
     26          1           0       -2.291085    3.018580   -0.532873
     27          1           0       -3.315148    1.709527    1.218396
     28          1           0       -5.165954    0.147275    1.739594
     29          1           0       -5.068734   -2.208415    0.929737
     30          1           0       -3.109327   -2.971573   -0.383483
     31          1           0       -1.192788   -2.493569   -1.703482
 ---------------------------------------------------------------------

 SCF Done:  E(UB3LYP) =  -852.219427252     A.U. after   24 cycles

 The electronic state is 2-A.
 Alpha  occ. eigenvalues --  -14.26386 -14.24882 -14.20627 -14.19641 -14.18121
 Alpha  occ. eigenvalues --  -10.14229 -10.11225 -10.10409 -10.08767 -10.07041
 Alpha  occ. eigenvalues --  -10.07026 -10.06631 -10.06379 -10.05888 -10.05805
 Alpha  occ. eigenvalues --  -10.05776 -10.04992 -10.04782 -10.04672 -10.04208
 Alpha  occ. eigenvalues --   -0.95049  -0.88150  -0.81588  -0.75671  -0.73590
 Alpha  occ. eigenvalues --   -0.72056  -0.68169  -0.64178  -0.63719  -0.63165
 Alpha  occ. eigenvalues --   -0.61507  -0.54357  -0.53093  -0.50973  -0.50454
 Alpha  occ. eigenvalues --   -0.48239  -0.47010  -0.45818  -0.42886  -0.40017
 Alpha  occ. eigenvalues --   -0.38952  -0.37497  -0.36076  -0.35770  -0.35371
 Alpha  occ. eigenvalues --   -0.33398  -0.33167  -0.32371  -0.31658  -0.31213
 Alpha  occ. eigenvalues --   -0.29360  -0.27970  -0.26284  -0.25563  -0.25391
 Alpha  occ. eigenvalues --   -0.24548  -0.24166  -0.23344  -0.20145  -0.19811
 Alpha  occ. eigenvalues --   -0.18171  -0.16157  -0.15430  -0.14799  -0.13886
 Alpha  occ. eigenvalues --   -0.13393  -0.12431  -0.07663   0.02738
 Alpha virt. eigenvalues --    0.07462   0.07931   0.08806   0.09041   0.09247
 Alpha virt. eigenvalues --    0.09303   0.09805   0.10095   0.10686   0.11341
 Alpha virt. eigenvalues --    0.11929   0.12986   0.13252   0.13739   0.14209

  Beta  occ. eigenvalues --  -14.26421 -14.24900 -14.20614 -14.19626 -14.17512
  Beta  occ. eigenvalues --  -10.14136 -10.11173 -10.10404 -10.08484 -10.07028
  Beta  occ. eigenvalues --  -10.07019 -10.06634 -10.06384 -10.05911 -10.05772
  Beta  occ. eigenvalues --  -10.05734 -10.04916 -10.04756 -10.04480 -10.03889
  Beta  occ. eigenvalues --   -0.94958  -0.87740  -0.81429  -0.75422  -0.73287
  Beta  occ. eigenvalues --   -0.71721  -0.68044  -0.64131  -0.63363  -0.62874
  Beta  occ. eigenvalues --   -0.61278  -0.53922  -0.53013  -0.50890  -0.50204
  Beta  occ. eigenvalues --   -0.48096  -0.46795  -0.45578  -0.42766  -0.39916
  Beta  occ. eigenvalues --   -0.38742  -0.37363  -0.35796  -0.35595  -0.35260
  Beta  occ. eigenvalues --   -0.33332  -0.33058  -0.32173  -0.31615  -0.31111
  Beta  occ. eigenvalues --   -0.28907  -0.27802  -0.25848  -0.25199  -0.25094
  Beta  occ. eigenvalues --   -0.24211  -0.23943  -0.23059  -0.19932  -0.19373
  Beta  occ. eigenvalues --   -0.16899  -0.15706  -0.15264  -0.14706  -0.13590
  Beta  occ. eigenvalues --   -0.12360  -0.11216  -0.07132
  Beta virt. eigenvalues --    0.07457   0.07886   0.08597   0.08925   0.09203
  Beta virt. eigenvalues --    0.09282   0.09486   0.09884   0.10272   0.10680
  Beta virt. eigenvalues --    0.11337   0.11954   0.13072   0.13311   0.13878

 Mulliken charges and spin densities:
               1          2
     1  C   -0.417971  -0.001001
     2  C   -0.165218   0.010123
     3  C    0.221753   0.064097
     4  C   -0.871840  -0.052984
     5  C    0.349603  -0.020599
     6  C   -0.257096   0.011092
     7  N    0.640894  -0.008917
     8  C   -0.653325   0.035723
     9  N   -0.147565   0.006745
    10  N   -0.040797   0.003680
    11  C   -0.127619   0.043760
    12  N    0.144760   0.000727
    13  C    0.017006   0.123277
    14  C   -0.134951  -0.082345
    15  C   -0.310403   0.270328
    16  C   -0.473554   0.022415
    17  C   -0.379031   0.076300
    18  C    0.655562   0.163449
    19  C   -0.375091   0.078611
    20  N   -0.204022   0.280016
    21  H    0.109409   0.000187
    22  H    0.147712  -0.000356
    23  H    0.205083  -0.000826
    24  H    0.173663   0.000010
    25  H    0.146735  -0.000816
    26  H    0.155469  -0.001617
    27  H    0.115735   0.009429
    28  H    0.122612  -0.020665
    29  H    0.105805  -0.003120
    30  H    0.118553   0.003147
    31  H    0.128130  -0.009870
 Sum of Mulliken charges =  -1.00000   1.00000

 Dipole moment (field-independent basis, Debye):
    X=              0.1900    Y=             -1.2671    Z=              2.0610  Tot=              2.4268
 Quadrupole moment (field-independent basis, Debye-Ang):
   XX=           -151.6365   YY=           -141.0103   ZZ=           -128.6024
   XY=             -8.0213   XZ=              3.7623   YZ=              8.6039

 Summary of Natural Population Analysis:

                                       Natural Population
                Natural  -----------------------------------------------
    Atom  No    Charge         Core      Valence    Rydberg      Total
 -----------------------------------------------------------------------
      C    1   -0.12708      0.99957     2.11772    0.00980     3.12708
      C    2   -0.09944      0.99958     2.09090    0.00896     3.09944
      C    3   -0.11562      0.99952     2.10774    0.00836     3.11562
      C    4    0.09969      0.99947     1.88872    0.01212     2.90031
      C    5   -0.10654      0.99952     2.09884    0.00818     3.10654
      C    6   -0.10034      0.99958     2.09174    0.00902     3.10034
      N    7   -0.17552      0.99959     2.66156    0.01438     3.67552
      C    8    0.29044      0.99957     1.69175    0.01824     2.70956
      N    9   -0.17674      0.99967     2.66471    0.01237     3.67674
      N   10   -0.16361      0.99972     2.64911    0.01478     3.66361
      C   11    0.10076      0.99967     1.88430    0.01528     2.89924
      N   12   -0.21523      0.99959     2.70381    0.01183     3.71523
      C   13    0.12765      0.99944     1.86251    0.01040     2.87235
      C   14   -0.13595      0.99954     2.12881    0.00759     3.13595
      C   15   -0.04414      0.99958     2.03492    0.00964     3.04414
      C   16   -0.11296      0.99957     2.10409    0.00930     3.11296
      C   17   -0.06861      0.99955     2.06052    0.00854     3.06861
      C   18   -0.02532      0.99947     2.01799    0.00786     3.02532
      C   19    0.05828      0.99963     1.92720    0.01490     2.94172
      N   20   -0.06539      0.99967     2.55106    0.01467     3.56539
      H   21    0.09391      0.00000     0.40511    0.00099     0.40609
      H   22    0.09397      0.00000     0.40505    0.00098     0.40603
      H   23    0.11863      0.00000     0.38037    0.00100     0.38137
      H   24    0.10717      0.00000     0.39161    0.00123     0.39283
      H   25    0.09500      0.00000     0.40402    0.00097     0.40500
      H   26    0.09476      0.00000     0.40408    0.00116     0.40524
      H   27    0.09683      0.00000     0.40207    0.00110     0.40317
      H   28    0.08866      0.00000     0.41035    0.00099     0.41134
      H   29    0.09157      0.00000     0.40738    0.00105     0.40843
      H   30    0.09229      0.00000     0.40604    0.00167     0.40771
      H   31    0.08289      0.00000     0.41565    0.00146     0.41711
 =======================================================================
   * Total *   -0.00000     19.99148    47.76972    0.23880    68.00000

 Normal termination of Gaussian 16 at Sat Dec 12 17:13:35 2020.
