 Gaussian 16, Revision A.03,

 -----------------------------------------------------------
 # opt freq B3LYP/6-31G(d) empiricaldispersion=gd3bj scf=xqc
 -----------------------------------------------------------

 -------------------------------
 CID_148000180_JID_1676_neutraal
 -------------------------------
 Symbolic Z-matrix:
 Charge =  0 Multiplicity = 1

 SCF Done:  E(RB3LYP) =  -463.329045110     A.U. after   14 cycles
 SCF Done:  E(RB3LYP) =  -463.333242812     A.U. after   11 cycles
 SCF Done:  E(RB3LYP) =  -463.333677347     A.U. after   11 cycles
 SCF Done:  E(RB3LYP) =  -463.333610172     A.U. after   11 cycles
 SCF Done:  E(RB3LYP) =  -463.333830545     A.U. after   10 cycles
 SCF Done:  E(RB3LYP) =  -463.333850340     A.U. after    9 cycles
 SCF Done:  E(RB3LYP) =  -463.333856268     A.U. after    9 cycles
 SCF Done:  E(RB3LYP) =  -463.333857782     A.U. after    8 cycles
 SCF Done:  E(RB3LYP) =  -463.333858439     A.U. after    8 cycles
 SCF Done:  E(RB3LYP) =  -463.333858615     A.U. after    7 cycles
 Optimization completed.
    -- Stationary point found.

 1\1\GINC-NODE105\FOpt\RB3LYP\6-31G(d)\C9H18N2\VSC10255\08-Dec-2020\0\\
 # opt freq B3LYP/6-31G(d) empiricaldispersion=gd3bj scf=xqc\\CID_14800
 0180_JID_1676_neutraal\\0,1\C,1.0128928484,-0.1053214649,-0.0747199482
 \C,0.4268692174,1.2785050563,0.2482720647\C,0.9650251708,2.3467524939,
 -0.7212153644\C,-1.0990481599,1.2868940119,0.2570974667\N,-1.811609254
 8,1.7305508173,1.2169967243\C,-1.8126819221,0.7461042124,-0.9801951743
 \C,-3.0299311623,1.5920890662,-1.3739330655\C,-3.733133909,0.988502811
 5,-2.5959057498\C,-4.0674324418,-0.4903623894,-2.3614991947\C,-2.81636

 Normal termination of Gaussian 16 at Tue Dec  8 20:53:09 2020.

 --------------------------------------------------------------------
 #N Geom=AllCheck Guess=TCheck SCRF=Check GenChk RB3LYP/6-31G(d) Freq
 --------------------------------------------------------------------

 Structure from the checkpoint file:  "JID_1676.chk"
 -------------------------------
 CID_148000180_JID_1676_neutraal
 -------------------------------
 Charge =  0 Multiplicity = 1

 SCF Done:  E(RB3LYP) =  -463.333858615     A.U. after    1 cycles

  Exact polarizability: 119.849   1.597 100.495  -1.851  -4.361  95.491
 Approx polarizability: 145.989   1.609 142.786  -1.696 -13.049 151.158

                      1                      2                      3
                      A                      A                      A
 Frequencies --     40.9944                69.3888                95.9740
 Red. masses --      3.5365                 2.6220                 3.0781
 Frc consts  --      0.0035                 0.0074                 0.0167
 IR Inten    --      0.4654                 0.3507                 0.4800

                      4                      5                      6
                      A                      A                      A
 Frequencies --    166.1729               209.7099               227.7620
 Red. masses --      3.6299                 2.7110                 1.1322
 Frc consts  --      0.0591                 0.0702                 0.0346
 IR Inten    --      0.1269                 0.0369                 0.2273

                      7                      8                      9
                      A                      A                      A
 Frequencies --    243.1465               271.0332               272.9094
 Red. masses --      1.9574                 2.1019                 1.1702
 Frc consts  --      0.0682                 0.0910                 0.0513
 IR Inten    --      1.2549                 1.3767                 0.3175

                     10                     11                     12
                      A                      A                      A
 Frequencies --    306.9726               333.7468               373.3575
 Red. masses --      3.2545                 2.2762                 2.2254
 Frc consts  --      0.1807                 0.1494                 0.1828
 IR Inten    --      3.5924                 0.9274                 0.7498

                     13                     14                     15
                      A                      A                      A
 Frequencies --    442.1035               452.5564               525.7703
 Red. masses --      2.8323                 3.1283                 2.1028
 Frc consts  --      0.3262                 0.3775                 0.3425
 IR Inten    --     11.5767                 1.6803                 2.6382

                     16                     17                     18
                      A                      A                      A
 Frequencies --    556.7723               561.8547               701.8621
 Red. masses --      2.2402                 2.2617                 4.3537
 Frc consts  --      0.4092                 0.4207                 1.2636
 IR Inten    --     14.6574                 6.3487                 6.0134

                     19                     20                     21
                      A                      A                      A
 Frequencies --    774.2926               816.1006               836.5404
 Red. masses --      1.5895                 2.1695                 3.0704
 Frc consts  --      0.5615                 0.8513                 1.2660
 IR Inten    --     51.1722                 2.6338                 7.0024

                     22                     23                     24
                      A                      A                      A
 Frequencies --    867.2043               877.9054               910.5135
 Red. masses --      1.6093                 2.1048                 1.3282
 Frc consts  --      0.7131                 0.9558                 0.6488
 IR Inten    --      8.1544                 3.5518                23.4515

                     25                     26                     27
                      A                      A                      A
 Frequencies --    927.5934               943.3706               948.1547
 Red. masses --      2.4361                 1.5296                 1.4307
 Frc consts  --      1.2350                 0.8020                 0.7578
 IR Inten    --      1.7422                 2.6371                19.3128

                     28                     29                     30
                      A                      A                      A
 Frequencies --    961.7282               979.6058              1001.7998
 Red. masses --      1.4637                 1.5161                 2.0148
 Frc consts  --      0.7976                 0.8572                 1.1914
 IR Inten    --      7.0086                 0.3898                26.5205

                     31                     32                     33
                      A                      A                      A
 Frequencies --   1072.8352              1074.3528              1095.2851
 Red. masses --      2.0643                 1.7536                 1.5918
 Frc consts  --      1.3999                 1.1925                 1.1251
 IR Inten    --      5.5840                 1.8812                 2.3430

                     34                     35                     36
                      A                      A                      A
 Frequencies --   1132.9455              1140.8258              1153.5916
 Red. masses --      2.2243                 3.5642                 1.9526
 Frc consts  --      1.6822                 2.7331                 1.5310
 IR Inten    --      3.4551                36.1763                23.9106

                     37                     38                     39
                      A                      A                      A
 Frequencies --   1166.9346              1186.4699              1207.7563
 Red. masses --      1.5864                 1.2656                 1.8522
 Frc consts  --      1.2728                 1.0497                 1.5919
 IR Inten    --     12.4714                 2.1300                 4.2960

                     40                     41                     42
                      A                      A                      A
 Frequencies --   1240.5994              1289.3419              1306.8486
 Red. masses --      1.5150                 1.2634                 1.1870
 Frc consts  --      1.3738                 1.2375                 1.1944
 IR Inten    --      2.3691                 8.3836                 1.9066

                     43                     44                     45
                      A                      A                      A
 Frequencies --   1332.0955              1354.5449              1360.2857
 Red. masses --      1.4013                 1.3449                 1.3180
 Frc consts  --      1.4651                 1.4539                 1.4369
 IR Inten    --     13.6300                 3.2441                16.0685

                     46                     47                     48
                      A                      A                      A
 Frequencies --   1369.4859              1380.7289              1389.4413
 Red. masses --      1.3394                 1.3427                 1.4386
 Frc consts  --      1.4801                 1.5082                 1.6363
 IR Inten    --     10.1929                23.7372                 8.5188

                     49                     50                     51
                      A                      A                      A
 Frequencies --   1402.0500              1421.6242              1425.8759
 Red. masses --      1.4618                 1.3364                 1.2535
 Frc consts  --      1.6930                 1.5913                 1.5016
 IR Inten    --      3.0656                20.9696                12.4913

                     52                     53                     54
                      A                      A                      A
 Frequencies --   1444.6975              1451.4185              1501.8708
 Red. masses --      1.4017                 1.4551                 1.1530
 Frc consts  --      1.7237                 1.8061                 1.5323
 IR Inten    --      2.3717                30.6592                 5.6180

                     55                     56                     57
                      A                      A                      A
 Frequencies --   1510.5651              1512.9288              1520.6596
 Red. masses --      1.2249                 1.0857                 1.0583
 Frc consts  --      1.6468                 1.4642                 1.4419
 IR Inten    --      1.0053                 6.1614                 3.2541

                     58                     59                     60
                      A                      A                      A
 Frequencies --   1522.5305              1523.3153              1533.2811
 Red. masses --      1.1019                 1.0511                 1.1016
 Frc consts  --      1.5049                 1.4370                 1.5259
 IR Inten    --      2.7749                 0.8482                 1.9497

                     61                     62                     63
                      A                      A                      A
 Frequencies --   1536.1838              1542.7887              1733.9619
 Red. masses --      1.0488                 1.0659                 8.9629
 Frc consts  --      1.4582                 1.4948                15.8774
 IR Inten    --      7.2202                11.5516                46.0503

                     64                     65                     66
                      A                      A                      A
 Frequencies --   2902.3449              2909.2104              3018.9508
 Red. masses --      1.0786                 1.0741                 1.0677
 Frc consts  --      5.3532                 5.3560                 5.7334
 IR Inten    --     25.7994               129.9537                35.2418

                     67                     68                     69
                      A                      A                      A
 Frequencies --   3024.1756              3046.3657              3047.3339
 Red. masses --      1.0845                 1.0346                 1.0615
 Frc consts  --      5.8439                 5.6571                 5.8076
 IR Inten    --     23.7391                23.4058                21.2452

                     70                     71                     72
                      A                      A                      A
 Frequencies --   3051.2086              3060.3045              3075.1212
 Red. masses --      1.0351                 1.0678                 1.0923
 Frc consts  --      5.6779                 5.8918                 6.0858
 IR Inten    --     17.2851                32.9154                64.3760

                     73                     74                     75
                      A                      A                      A
 Frequencies --   3080.3603              3092.7104              3113.9712
 Red. masses --      1.0874                 1.1053                 1.1024
 Frc consts  --      6.0789                 6.2291                 6.2985
 IR Inten    --     53.8260                41.4966                 7.4872

                     76                     77                     78
                      A                      A                      A
 Frequencies --   3115.8527              3119.4765              3124.7975
 Red. masses --      1.1028                 1.1017                 1.0985
 Frc consts  --      6.3083                 6.3168                 6.3194
 IR Inten    --     23.1362                63.9714                17.2361

                     79                     80                     81
                      A                      A                      A
 Frequencies --   3125.8782              3384.2288              3510.1331
 Red. masses --      1.1026                 1.0741                 1.0742
 Frc consts  --      6.3474                 7.2481                 7.7977
 IR Inten    --     30.7661                21.2140                 1.3186

 - Thermochemistry -
 -------------------
 Temperature   298.150 Kelvin.  Pressure   1.00000 Atm.
 Atom     1 has atomic number  6 and mass  12.00000

 Molecular mass:   154.14700 amu.
 Principal axes and moments of inertia in atomic units:
                           1         2         3
     Eigenvalues --   976.378642631.383332874.47512
           X            0.99995  -0.00817   0.00557
           Y            0.00797   0.99934   0.03540
           Z           -0.00586  -0.03535   0.99936
 This molecule is an asymmetric top.
 Rotational symmetry number  1.
 Warning -- assumption of classical behavior for rotation
           may cause significant error
 Rotational temperatures (Kelvin)      0.08871     0.03292     0.03013
 Rotational constants (GHZ):           1.84840     0.68585     0.62785
 Zero-point vibrational energy     701833.8 (Joules/Mol)
                                  167.74229 (Kcal/Mol)
 Warning -- explicit consideration of  17 degrees of freedom as
           vibrations may cause significant error
 Vibrational temperatures:     58.98    99.83   138.09   239.09   301.73
          (Kelvin)            327.70   349.83   389.96   392.66   441.67
                              480.19   537.18   636.09   651.13   756.47
                              801.07   808.38  1009.82  1114.03  1174.19
                             1203.60  1247.71  1263.11  1310.03  1334.60
                             1357.30  1364.18  1383.71  1409.43  1441.37
                             1543.57  1545.75  1575.87  1630.06  1641.39
                             1659.76  1678.96  1707.07  1737.69  1784.95
                             1855.08  1880.26  1916.59  1948.89  1957.15
                             1970.38  1986.56  1999.10  2017.24  2045.40
                             2051.52  2078.60  2088.27  2160.86  2173.37
                             2176.77  2187.89  2190.58  2191.71  2206.05
                             2210.23  2219.73  2494.78  4175.83  4185.70
                             4343.60  4351.11  4383.04  4384.43  4390.01
                             4403.10  4424.41  4431.95  4449.72  4480.31
                             4483.02  4488.23  4495.89  4497.44  4869.15
                             5050.30

 Zero-point correction=                           0.267314 (Hartree/Particle)
 Thermal correction to Energy=                    0.278991
 Thermal correction to Enthalpy=                  0.279935
 Thermal correction to Gibbs Free Energy=         0.229802
 Sum of electronic and zero-point Energies=           -463.066544
 Sum of electronic and thermal Energies=              -463.054867
 Sum of electronic and thermal Enthalpies=            -463.053923
 Sum of electronic and thermal Free Energies=         -463.104056

                     E (Thermal)             CV                S
                      KCal/Mol        Cal/Mol-Kelvin    Cal/Mol-Kelvin
 Total                  175.070             44.999            105.514
 Electronic               0.000              0.000              0.000
 Translational            0.889              2.981             41.008
 Rotational               0.889              2.981             30.380
 Vibrational            173.292             39.038             34.126
 Vibration     1          0.594              1.981              5.210
 Vibration     2          0.598              1.969              4.171
 Vibration     3          0.603              1.952              3.534
 Vibration     4          0.624              1.884              2.478
 Vibration     5          0.642              1.826              2.046
 Vibration     6          0.651              1.799              1.897
 Vibration     7          0.659              1.774              1.780
 Vibration     8          0.675              1.727              1.590
 Vibration     9          0.676              1.723              1.578
 Vibration    10          0.697              1.660              1.379
 Vibration    11          0.715              1.608              1.242
 Vibration    12          0.745              1.527              1.066
 Vibration    13          0.802              1.378              0.820
 Vibration    14          0.811              1.355              0.788
 Vibration    15          0.881              1.193              0.597
 Vibration    16          0.912              1.125              0.530
 Vibration    17          0.918              1.114              0.520

 Optimization completed.
    -- Stationary point found.

 1\1\GINC-NODE105\Freq\RB3LYP\6-31G(d)\C9H18N2\VSC10255\08-Dec-2020\0\\
 #N Geom=AllCheck Guess=TCheck SCRF=Check GenChk RB3LYP/6-31G(d) Freq\\
 CID_148000180_JID_1676_neutraal\\0,1\C,1.0128928484,-0.1053214649,-0.0
 747199482\C,0.4268692174,1.2785050563,0.2482720647\C,0.9650251708,2.34
 67524939,-0.7212153644\C,-1.0990481599,1.2868940119,0.2570974667\N,-1.
 8116092548,1.7305508173,1.2169967243\C,-1.8126819221,0.7461042124,-0.9
 801951743\C,-3.0299311623,1.5920890662,-1.3739330655\C,-3.733133909,0.
 9885028115,-2.5959057498\C,-4.0674324418,-0.4903623894,-2.3614991947\C

 Normal termination of Gaussian 16 at Tue Dec  8 21:00:36 2020.

 ----------------------------------------------------------------------
 # B3LYP/6-311++G(d,p) empiricaldispersion=gd3bj scf=xqc pop=npa geom=c
 heck
 ----------------------------------------------------------------------

 ---------------------------------------
 CID_148000180_JID_1676_Energie_neutraal
 ---------------------------------------
 Structure from the checkpoint file:  "JID_1676.chk"
 Charge =  0 Multiplicity = 1

 SCF Done:  E(RB3LYP) =  -463.468747472     A.U. after   13 cycles
 Normal termination of Gaussian 16 at Tue Dec  8 21:04:12 2020.

 ----------------------------------------------------------------------
 # B3LYP/6-311++G(d,p) empiricaldispersion=gd3bj scf=xqc pop=npa geom=c
 heck
 ----------------------------------------------------------------------

 -------------------------------------
 CID_148000180_JID_1676_Energie_kation
 -------------------------------------
 Structure from the checkpoint file:  "JID_1676.chk"
 Charge =  1 Multiplicity = 2

 SCF Done:  E(UB3LYP) =  -463.161461288     A.U. after   23 cycles
 Normal termination of Gaussian 16 at Tue Dec  8 21:13:30 2020.
 Gaussian 16:  ES64L-G16RevA.03 25-Dec-2016

 ------------------------------------
 CID_148000180_JID_1676_Energie_anion
 ------------------------------------
 Structure from the checkpoint file:  "JID_1676.chk"
 Charge = -1 Multiplicity = 2

                         Standard orientation:
 ---------------------------------------------------------------------
 Center     Atomic      Atomic             Coordinates (Angstroms)
 Number     Number       Type             X           Y           Z
 ---------------------------------------------------------------------
      1          6           0       -2.326674    1.627548   -0.119999
      2          6           0       -2.392229    0.098673    0.024801
      3          6           0       -2.715884   -0.570942   -1.323359
      4          6           0       -1.119118   -0.493684    0.622191
      5          7           0       -1.091918   -1.277078    1.627942
      6          6           0        0.205316   -0.136745   -0.049441
      7          6           0        1.156059   -1.336111   -0.149559
      8          6           0        2.483307   -0.919216   -0.795036
      9          6           0        3.093735    0.284591   -0.065672
     10          6           0        2.071437    1.418085    0.037002
     11          7           0        0.871518    0.928646    0.716258
     12          1           0       -1.535710    1.931291   -0.815106
     13          1           0       -2.144701    2.113800    0.845110
     14          1           0       -3.274079    2.011670   -0.514117
     15          1           0       -3.207831   -0.140151    0.721849
     16          1           0       -1.939778   -0.361705   -2.067846
     17          1           0       -2.796463   -1.657483   -1.214299
     18          1           0       -3.666316   -0.193849   -1.717729
     19          1           0       -2.042660   -1.418465    1.991606
     20          1           0       -0.010208    0.204498   -1.082322
     21          1           0        0.675692   -2.132930   -0.730188
     22          1           0        1.315613   -1.719208    0.862339
     23          1           0        3.184663   -1.762367   -0.800932
     24          1           0        2.307223   -0.649428   -1.847220
     25          1           0        3.388399   -0.009613    0.949107
     26          1           0        3.992840    0.638163   -0.585302
     27          1           0        2.478624    2.252490    0.619132
     28          1           0        1.855884    1.800531   -0.982209
     29          1           0        0.225907    1.698594    0.873157
 ---------------------------------------------------------------------

 SCF Done:  E(UB3LYP) =  -463.454938133     A.U. after   33 cycles
 SCF Done:  E(UB3LYP) =  -463.454938133     a.u. after    1 cycles

 The electronic state is 2-A.
 Alpha  occ. eigenvalues --  -14.19549 -14.19128 -10.11366 -10.09689 -10.08973
 Alpha  occ. eigenvalues --  -10.08172 -10.06664 -10.06575 -10.06039 -10.05946
 Alpha  occ. eigenvalues --  -10.05857  -0.82466  -0.79362  -0.69367  -0.68566
 Alpha  occ. eigenvalues --   -0.65479  -0.58685  -0.55454  -0.53022  -0.50548
 Alpha  occ. eigenvalues --   -0.46010  -0.44690  -0.40571  -0.37872  -0.35359
 Alpha  occ. eigenvalues --   -0.35042  -0.34232  -0.32199  -0.31651  -0.30844
 Alpha  occ. eigenvalues --   -0.30244  -0.28980  -0.28453  -0.27514  -0.25117
 Alpha  occ. eigenvalues --   -0.24701  -0.24387  -0.23085  -0.21692  -0.21525
 Alpha  occ. eigenvalues --   -0.19798  -0.15555  -0.12773   0.04494
 Alpha virt. eigenvalues --    0.06606   0.07595   0.07960   0.08524   0.08965
 Alpha virt. eigenvalues --    0.09268   0.09493   0.10866   0.11240   0.11341
 Alpha virt. eigenvalues --    0.11785   0.12478   0.12971   0.13287   0.14227

  Beta  occ. eigenvalues --  -14.19533 -14.19119 -10.11365 -10.09676 -10.08951
  Beta  occ. eigenvalues --  -10.08154 -10.06652 -10.06567 -10.06001 -10.05895
  Beta  occ. eigenvalues --  -10.05853  -0.82446  -0.79343  -0.69324  -0.68541
  Beta  occ. eigenvalues --   -0.65450  -0.58595  -0.55415  -0.52980  -0.50471
  Beta  occ. eigenvalues --   -0.45957  -0.44654  -0.40528  -0.37831  -0.35318
  Beta  occ. eigenvalues --   -0.35004  -0.34184  -0.32165  -0.31608  -0.30811
  Beta  occ. eigenvalues --   -0.30214  -0.28944  -0.28407  -0.27468  -0.25071
  Beta  occ. eigenvalues --   -0.24655  -0.24348  -0.23061  -0.21664  -0.21493
  Beta  occ. eigenvalues --   -0.19779  -0.15534  -0.12723
  Beta virt. eigenvalues --    0.06739   0.07545   0.08187   0.08488   0.08699
  Beta virt. eigenvalues --    0.09634   0.09748   0.09910   0.11194   0.11589
  Beta virt. eigenvalues --    0.11863   0.12264   0.12946   0.13293   0.13659

 Mulliken charges and spin densities:
               1          2
     1  C    1.415829  -2.060974
     2  C   -2.799574   3.170893
     3  C    1.383865  -2.015864
     4  C    0.627565  -1.092215
     5  N   -0.331978   0.102019
     6  C    0.750552  -0.807612
     7  C   -0.083981  -0.369546
     8  C    0.401979  -0.673457
     9  C   -0.425090   0.008699
    10  C    0.499532  -0.666437
    11  N   -0.140160   0.222412
    12  H   -0.527762   0.701357
    13  H   -0.128417   0.267510
    14  H   -0.742939   0.915344
    15  H   -0.607705   0.770444
    16  H   -0.464874   0.608801
    17  H   -0.157645   0.314799
    18  H   -0.466993   0.624053
    19  H    0.077026   0.134728
    20  H    0.873692  -0.710734
    21  H    0.066845   0.081725
    22  H    0.164304   0.011296
    23  H    0.050874   0.110272
    24  H   -0.192647   0.316656
    25  H    0.192162  -0.069997
    26  H   -0.176226   0.331626
    27  H   -0.266118   0.428215
    28  H   -0.201296   0.306022
    29  H    0.209179   0.039966
 Sum of Mulliken charges =  -1.00000   1.00000

 Dipole moment (field-independent basis, Debye):
    X=              5.1445    Y=             -2.8200    Z=              1.6727  Tot=              6.1005
 Quadrupole moment (field-independent basis, Debye-Ang):
   XX=           -139.5627   YY=           -111.7896   ZZ=           -109.2501
   XY=              3.0843   XZ=             -3.6345   YZ=              3.3350

 Summary of Natural Population Analysis:

                                       Natural Population
                Natural  -----------------------------------------------
    Atom  No    Charge         Core      Valence    Rydberg      Total
 -----------------------------------------------------------------------
      C    1   -0.28676      0.99965     2.28002    0.00709     3.28676
      C    2   -0.14050      0.99956     2.12843    0.01251     3.14050
      C    3   -0.28078      0.99964     2.27497    0.00617     3.28078
      C    4    0.16773      0.99959     1.81459    0.01809     2.83227
      N    5   -0.31571      0.99970     2.80750    0.00851     3.81571
      C    6   -0.03664      0.99953     2.02365    0.01345     3.03664
      C    7   -0.19166      0.99961     2.18215    0.00989     3.19166
      C    8   -0.19031      0.99963     2.18263    0.00805     3.19031
      C    9   -0.19389      0.99963     2.18558    0.00869     3.19389
      C   10   -0.08593      0.99962     2.07472    0.01159     3.08593
      N   11   -0.33666      0.99972     2.82641    0.01052     3.83666
      H   12    0.09970      0.00000     0.39862    0.00168     0.40030
      H   13    0.09990      0.00000     0.39848    0.00162     0.40010
      H   14    0.10684      0.00000     0.39093    0.00223     0.39316
      H   15    0.09707      0.00000     0.40043    0.00250     0.40293
      H   16    0.09881      0.00000     0.39976    0.00143     0.40119
      H   17    0.10034      0.00000     0.39833    0.00132     0.39966
      H   18    0.10441      0.00000     0.39399    0.00160     0.39559
      H   19    0.15909      0.00000     0.33867    0.00224     0.34091
      H   20    0.08331      0.00000     0.41380    0.00289     0.41669
      H   21    0.09962      0.00000     0.39962    0.00076     0.40038
      H   22    0.10816      0.00000     0.39025    0.00159     0.39184
      H   23    0.09630      0.00000     0.40290    0.00080     0.40370
      H   24    0.09378      0.00000     0.40485    0.00137     0.40622
      H   25    0.09544      0.00000     0.40328    0.00128     0.40456
      H   26    0.09700      0.00000     0.40208    0.00093     0.40300
      H   27    0.09513      0.00000     0.40387    0.00100     0.40487
      H   28    0.07792      0.00000     0.42021    0.00187     0.42208
      H   29    0.17828      0.00000     0.31867    0.00305     0.32172
 =======================================================================
   * Total *   -0.00000     10.99588    31.85939    0.14473    43.00000

 Normal termination of Gaussian 16 at Tue Dec  8 21:26:11 2020.
