 Gaussian 16, Revision A.03,

 -----------------------------------------------------------
 # opt freq B3LYP/6-31G(d) empiricaldispersion=gd3bj scf=xqc
 -----------------------------------------------------------

 ------------------------------
 CID_58518882_JID_3110_neutraal
 ------------------------------
 Symbolic Z-matrix:
 Charge =  0 Multiplicity = 1

 SCF Done:  E(RB3LYP) =  -563.048118767     A.U. after   14 cycles
 SCF Done:  E(RB3LYP) =  -563.050137023     A.U. after   13 cycles
 SCF Done:  E(RB3LYP) =  -563.045241819     A.U. after   14 cycles
 SCF Done:  E(RB3LYP) =  -563.049816057     A.U. after   12 cycles
 SCF Done:  E(RB3LYP) =  -563.051400257     A.U. after   10 cycles
 SCF Done:  E(RB3LYP) =  -563.051801246     A.U. after   12 cycles
 SCF Done:  E(RB3LYP) =  -563.052564357     A.U. after   13 cycles
 SCF Done:  E(RB3LYP) =  -563.052821826     A.U. after   12 cycles
 SCF Done:  E(RB3LYP) =  -563.052920844     A.U. after   10 cycles
 SCF Done:  E(RB3LYP) =  -563.053071409     A.U. after   11 cycles
 SCF Done:  E(RB3LYP) =  -563.059357365     A.U. after    9 cycles
 SCF Done:  E(RB3LYP) =  -563.059363367     A.U. after   10 cycles
 SCF Done:  E(RB3LYP) =  -563.059364029     A.U. after    7 cycles
 SCF Done:  E(RB3LYP) =  -563.059364259     A.U. after    7 cycles
 SCF Done:  E(RB3LYP) =  -563.059364308     A.U. after    7 cycles
 Optimization completed.
    -- Stationary point found.
 Normal termination of Gaussian 16 at Wed Dec  9 23:01:47 2020.

 --------------------------------------------------------------------
 #N Geom=AllCheck Guess=TCheck SCRF=Check GenChk RB3LYP/6-31G(d) Freq
 --------------------------------------------------------------------

 Structure from the checkpoint file:  "JID_3110.chk"
 ------------------------------
 CID_58518882_JID_3110_neutraal
 ------------------------------
 Charge =  0 Multiplicity = 1

 SCF Done:  E(RB3LYP) =  -563.059364308     A.U. after    1 cycles

  Exact polarizability: 143.234   2.441 125.654  -0.246   0.290 107.262
 Approx polarizability: 169.917   2.362 185.016  -0.094   1.153 161.308

                      1                      2                      3
                      A                      A                      A
 Frequencies --     26.0782                37.1483                43.7495
 Red. masses --      3.0153                 2.9600                 3.2672
 Frc consts  --      0.0012                 0.0024                 0.0037
 IR Inten    --      0.5171                 1.9248                 2.0353

                      4                      5                      6
                      A                      A                      A
 Frequencies --     73.9598               105.1535               116.6314
 Red. masses --      3.3840                 1.2112                 3.7385
 Frc consts  --      0.0109                 0.0079                 0.0300
 IR Inten    --      1.9838                 0.0906                 2.5489

                      7                      8                      9
                      A                      A                      A
 Frequencies --    167.9052               184.2018               221.0323
 Red. masses --      1.8003                 2.6158                 2.5451
 Frc consts  --      0.0299                 0.0523                 0.0733
 IR Inten    --      0.3435                 1.0788                 2.1052

                     10                     11                     12
                      A                      A                      A
 Frequencies --    247.0091               253.9847               258.4197
 Red. masses --      1.6038                 2.2562                 1.1135
 Frc consts  --      0.0577                 0.0858                 0.0438
 IR Inten    --      1.1057                 4.6141                 0.8684

                     13                     14                     15
                      A                      A                      A
 Frequencies --    261.3691               289.0955               319.4737
 Red. masses --      1.8707                 1.9027                 1.2929
 Frc consts  --      0.0753                 0.0937                 0.0777
 IR Inten    --      0.4995                 0.2676                 1.2343

                     16                     17                     18
                      A                      A                      A
 Frequencies --    333.3328               342.9714               390.7970
 Red. masses --      2.4197                 1.1524                 2.1968
 Frc consts  --      0.1584                 0.0799                 0.1977
 IR Inten    --      0.1607                 0.1769                 0.3104

                     19                     20                     21
                      A                      A                      A
 Frequencies --    400.3338               416.8674               430.9172
 Red. masses --      2.5060                 2.1094                 1.8700
 Frc consts  --      0.2366                 0.2160                 0.2046
 IR Inten    --      0.4044                 0.3800                 1.3733

                     22                     23                     24
                      A                      A                      A
 Frequencies --    444.2033               469.6409               491.2315
 Red. masses --      2.0448                 2.2872                 3.1014
 Frc consts  --      0.2377                 0.2972                 0.4409
 IR Inten    --      1.1827                 1.6066                12.6823

                     25                     26                     27
                      A                      A                      A
 Frequencies --    618.7496               633.4580               734.7548
 Red. masses --      3.0246                 2.7526                 3.1536
 Frc consts  --      0.6822                 0.6508                 1.0031
 IR Inten    --      2.4605                 9.2590                 6.2992

                     28                     29                     30
                      A                      A                      A
 Frequencies --    765.6531               798.3309               843.5757
 Red. masses --      2.5161                 2.0418                 2.3582
 Frc consts  --      0.8690                 0.7667                 0.9887
 IR Inten    --      3.2504                 7.1747                 4.3023

                     31                     32                     33
                      A                      A                      A
 Frequencies --    868.9729               889.2480               926.8187
 Red. masses --      1.4651                 1.9060                 1.7612
 Frc consts  --      0.6518                 0.8880                 0.8914
 IR Inten    --     27.7505                 2.1835                 9.2604

                     34                     35                     36
                      A                      A                      A
 Frequencies --    946.6338               952.8159               959.4919
 Red. masses --      1.6346                 1.6047                 1.6624
 Frc consts  --      0.8630                 0.8584                 0.9017
 IR Inten    --      0.9934                 0.7618                 4.3211

                     37                     38                     39
                      A                      A                      A
 Frequencies --    974.1053               980.1069              1009.3322
 Red. masses --      1.3065                 1.5838                 1.8809
 Frc consts  --      0.7304                 0.8964                 1.1290
 IR Inten    --      3.2073                 5.3900                 3.8516

                     40                     41                     42
                      A                      A                      A
 Frequencies --   1032.6307              1045.0163              1058.0119
 Red. masses --      1.5762                 1.5707                 1.4832
 Frc consts  --      0.9903                 1.0106                 0.9782
 IR Inten    --     10.1326                 0.7143                 1.1145

                     43                     44                     45
                      A                      A                      A
 Frequencies --   1088.1220              1112.0771              1127.0549
 Red. masses --      1.6745                 1.9852                 1.8216
 Frc consts  --      1.1682                 1.4465                 1.3633
 IR Inten    --      3.2760                 6.3459                 4.1109

                     46                     47                     48
                      A                      A                      A
 Frequencies --   1161.3717              1191.6950              1220.2934
 Red. masses --      2.8821                 2.0153                 2.2159
 Frc consts  --      2.2903                 1.6863                 1.9441
 IR Inten    --     14.3055                96.5831                22.2409

                     49                     50                     51
                      A                      A                      A
 Frequencies --   1234.7270              1243.0912              1247.8351
 Red. masses --      1.5575                 1.4191                 2.2260
 Frc consts  --      1.3990                 1.2920                 2.0421
 IR Inten    --     10.4225                10.5108                 4.0061

                     52                     53                     54
                      A                      A                      A
 Frequencies --   1287.4530              1309.8173              1341.2020
 Red. masses --      2.1851                 1.3948                 1.3910
 Frc consts  --      2.1340                 1.4099                 1.4743
 IR Inten    --     13.1597                13.4773                 6.6194

                     55                     56                     57
                      A                      A                      A
 Frequencies --   1379.2485              1385.9717              1401.4569
 Red. masses --      1.4716                 1.3545                 1.4183
 Frc consts  --      1.6494                 1.5330                 1.6413
 IR Inten    --      8.8563                33.5523                 7.6022

                     58                     59                     60
                      A                      A                      A
 Frequencies --   1416.8435              1417.4971              1418.2290
 Red. masses --      1.2902                 1.5156                 1.3112
 Frc consts  --      1.5260                 1.7942                 1.5539
 IR Inten    --     19.8546                46.8581                 1.5282

                     61                     62                     63
                      A                      A                      A
 Frequencies --   1425.0444              1432.2174              1443.9279
 Red. masses --      1.2541                 1.3376                 1.3173
 Frc consts  --      1.5005                 1.6166                 1.6181
 IR Inten    --      3.9282                 0.8710                14.1232

                     64                     65                     66
                      A                      A                      A
 Frequencies --   1458.5223              1467.0681              1494.4329
 Red. masses --      1.2401                 1.0934                 1.0575
 Frc consts  --      1.5543                 1.3866                 1.3915
 IR Inten    --     13.0943                 9.4764                15.6587

                     67                     68                     69
                      A                      A                      A
 Frequencies --   1505.0256              1507.0865              1511.6401
 Red. masses --      1.0494                 1.0597                 1.0655
 Frc consts  --      1.4005                 1.4181                 1.4345
 IR Inten    --     10.3465                 2.3536                 2.0251

                     70                     71                     72
                      A                      A                      A
 Frequencies --   1516.1582              1522.7805              1523.2388
 Red. masses --      1.0793                 1.0574                 1.0510
 Frc consts  --      1.4618                 1.4447                 1.4368
 IR Inten    --     17.7003                 2.9348                 1.1353

                     73                     74                     75
                      A                      A                      A
 Frequencies --   1531.4992              1538.1886              1540.3265
 Red. masses --      1.0957                 1.0711                 1.0576
 Frc consts  --      1.5142                 1.4931                 1.4784
 IR Inten    --      5.7171                 8.3006                 5.3354

                     76                     77                     78
                      A                      A                      A
 Frequencies --   1546.9804              1550.4153              1563.1046
 Red. masses --      1.1315                 1.0782                 1.0566
 Frc consts  --      1.5954                 1.5270                 1.5211
 IR Inten    --     19.6330                27.4197                13.8643

                     79                     80                     81
                      A                      A                      A
 Frequencies --   1805.8095              2892.6398              2954.9115
 Red. masses --      9.6690                 1.0815                 1.0739
 Frc consts  --     18.5770                 5.3319                 5.5248
 IR Inten    --    114.5568                72.9849                76.4382

                     82                     83                     84
                      A                      A                      A
 Frequencies --   3021.1893              3032.4185              3034.9461
 Red. masses --      1.0592                 1.0361                 1.0595
 Frc consts  --      5.6962                 5.6132                 5.7501
 IR Inten    --     30.6456                28.2141                15.7933

                     85                     86                     87
                      A                      A                      A
 Frequencies --   3036.7696              3045.8448              3051.2670
 Red. masses --      1.0383                 1.0390                 1.0925
 Frc consts  --      5.6417                 5.6794                 5.9927
 IR Inten    --     43.9448                24.0106                24.3564

                     88                     89                     90
                      A                      A                      A
 Frequencies --   3051.8724              3055.3764              3069.4607
 Red. masses --      1.0432                 1.0464                 1.0999
 Frc consts  --      5.7249                 5.7553                 6.1054
 IR Inten    --      2.7786                34.4365                15.6160

                     91                     92                     93
                      A                      A                      A
 Frequencies --   3089.6665              3098.3857              3098.7815
 Red. masses --      1.1007                 1.0894                 1.1016
 Frc consts  --      6.1905                 6.1620                 6.2325
 IR Inten    --     22.2773                13.2335                 8.9600

                     94                     95                     96
                      A                      A                      A
 Frequencies --   3101.3630              3105.9803              3109.5295
 Red. masses --      1.1000                 1.1012                 1.0990
 Frc consts  --      6.2338                 6.2592                 6.2611
 IR Inten    --     62.3803                90.7473                11.8207

                     97                     98                     99
                      A                      A                      A
 Frequencies --   3115.3222              3134.9630              3153.6350
 Red. masses --      1.0988                 1.1006                 1.0972
 Frc consts  --      6.2828                 6.3728                 6.4292
 IR Inten    --     36.2357                21.9970                13.8324

                    100                    101                    102
                      A                      A                      A
 Frequencies --   3159.8871              3167.8545              3502.6755
 Red. masses --      1.0973                 1.1021                 1.0734
 Frc consts  --      6.4555                 6.5165                 7.7594
 IR Inten    --     23.2092                10.0371                14.6850

 - Thermochemistry -
 -------------------
 Temperature   298.150 Kelvin.  Pressure   1.00000 Atm.
 Atom     1 has atomic number  6 and mass  12.00000

 Molecular mass:   185.17796 amu.
 Principal axes and moments of inertia in atomic units:
                           1         2         3
     Eigenvalues --  1310.184104940.425765514.72230
           X            0.99994   0.01086   0.00099
           Y           -0.01086   0.99993   0.00436
           Z           -0.00094  -0.00437   0.99999
 This molecule is an asymmetric top.
 Rotational symmetry number  1.
 Warning -- assumption of classical behavior for rotation
           may cause significant error
 Rotational temperatures (Kelvin)      0.06611     0.01753     0.01571
 Rotational constants (GHZ):           1.37747     0.36530     0.32726
 Zero-point vibrational energy     869179.2 (Joules/Mol)
                                  207.73880 (Kcal/Mol)
 Warning -- explicit consideration of  25 degrees of freedom as
           vibrations may cause significant error
 Vibrational temperatures:     37.52    53.45    62.95   106.41   151.29
          (Kelvin)            167.81   241.58   265.03   318.02   355.39
                              365.43   371.81   376.05   415.94   459.65
                              479.59   493.46   562.27   575.99   599.78
                              619.99   639.11   675.71   706.77   890.24
                              911.40  1057.15  1101.60  1148.62  1213.72
                             1250.26  1279.43  1333.49  1361.99  1370.89
                             1380.49  1401.52  1410.16  1452.20  1485.73
                             1503.55  1522.24  1565.56  1600.03  1621.58
                             1670.95  1714.58  1755.73  1776.50  1788.53
                             1795.36  1852.36  1884.53  1929.69  1984.43
                             1994.10  2016.38  2038.52  2039.46  2040.52
                             2050.32  2060.64  2077.49  2098.49  2110.78
                             2150.16  2165.40  2168.36  2174.91  2181.41
                             2190.94  2191.60  2203.49  2213.11  2216.19
                             2225.76  2230.70  2248.96  2598.16  4161.86
                             4251.46  4346.82  4362.97  4366.61  4369.23
                             4382.29  4390.09  4390.96  4396.01  4416.27
                             4445.34  4457.89  4458.46  4462.17  4468.81
                             4473.92  4482.25  4510.51  4537.38  4546.37
                             4557.84  5039.57

 Zero-point correction=                           0.331053 (Hartree/Particle)
 Thermal correction to Energy=                    0.347334
 Thermal correction to Enthalpy=                  0.348278
 Thermal correction to Gibbs Free Energy=         0.286927
 Sum of electronic and zero-point Energies=           -562.728311
 Sum of electronic and thermal Energies=              -562.712031
 Sum of electronic and thermal Enthalpies=            -562.711087
 Sum of electronic and thermal Free Energies=         -562.772437

                     E (Thermal)             CV                S
                      KCal/Mol        Cal/Mol-Kelvin    Cal/Mol-Kelvin
 Total                  217.955             60.667            129.123
 Electronic               0.000              0.000              0.000
 Translational            0.889              2.981             41.555
 Rotational               0.889              2.981             31.946
 Vibrational            216.178             54.705             55.622
 Vibration     1          0.593              1.985              6.107
 Vibration     2          0.594              1.982              5.406
 Vibration     3          0.595              1.980              5.082
 Vibration     4          0.599              1.966              4.045
 Vibration     5          0.605              1.945              3.356
 Vibration     6          0.608              1.936              3.155
 Vibration     7          0.625              1.882              2.459
 Vibration     8          0.631              1.861              2.285
 Vibration     9          0.648              1.809              1.951
 Vibration    10          0.661              1.768              1.752
 Vibration    11          0.665              1.756              1.703
 Vibration    12          0.667              1.749              1.672
 Vibration    13          0.669              1.743              1.653
 Vibration    14          0.686              1.694              1.479
 Vibration    15          0.705              1.636              1.313
 Vibration    16          0.715              1.609              1.244
 Vibration    17          0.722              1.590              1.198
 Vibration    18          0.758              1.490              0.997
 Vibration    19          0.766              1.469              0.961
 Vibration    20          0.780              1.434              0.903
 Vibration    21          0.792              1.403              0.856
 Vibration    22          0.804              1.374              0.814
 Vibration    23          0.827              1.317              0.739
 Vibration    24          0.847              1.269              0.680
 Vibration    25          0.979              0.992              0.419

 Optimization completed.
    -- Stationary point found.
 Normal termination of Gaussian 16 at Wed Dec  9 23:11:56 2020.

 ----------------------------------------------------------------------
 # B3LYP/6-311++G(d,p) empiricaldispersion=gd3bj scf=xqc pop=npa geom=c
 heck
 ----------------------------------------------------------------------

 --------------------------------------
 CID_58518882_JID_3110_Energie_neutraal
 --------------------------------------
 Structure from the checkpoint file:  "JID_3110.chk"
 Charge =  0 Multiplicity = 1

 SCF Done:  E(RB3LYP) =  -563.224688157     A.U. after   13 cycles
 Normal termination of Gaussian 16 at Wed Dec  9 23:16:47 2020.

 ----------------------------------------------------------------------
 # B3LYP/6-311++G(d,p) empiricaldispersion=gd3bj scf=xqc pop=npa geom=c
 heck
 ----------------------------------------------------------------------

 ------------------------------------
 CID_58518882_JID_3110_Energie_kation
 ------------------------------------
 Structure from the checkpoint file:  "JID_3110.chk"
 Charge =  1 Multiplicity = 2

 SCF Done:  E(UB3LYP) =  -562.927082366     A.U. after   22 cycles
 Normal termination of Gaussian 16 at Wed Dec  9 23:28:22 2020.
 Gaussian 16:  ES64L-G16RevA.03 25-Dec-2016

 ----------------------------------------------------------------------
 # B3LYP/6-311++G(d,p) empiricaldispersion=gd3bj scf=xqc pop=npa geom=c
 heck
 ----------------------------------------------------------------------

 -----------------------------------
 CID_58518882_JID_3110_Energie_anion
 -----------------------------------
 Structure from the checkpoint file:  "JID_3110.chk"
 Charge = -1 Multiplicity = 2

                         Standard orientation:
 ---------------------------------------------------------------------
 Center     Atomic      Atomic             Coordinates (Angstroms)
 Number     Number       Type             X           Y           Z
 ---------------------------------------------------------------------
      1          6           0        1.025361    2.507079    0.336537
      2          6           0        0.735491    1.320043   -0.589621
      3          6           0        1.966032    0.427855   -0.885302
      4          6           0        2.518279   -0.587197    0.152797
      5          6           0        1.605006   -1.820818    0.274011
      6          6           0        3.893019   -1.051055   -0.367955
      7          6           0        2.703725    0.024043    1.550785
      8          7           0       -0.411324    0.573800   -0.057442
      9          6           0       -1.125630   -0.198577   -1.069459
     10          6           0       -2.265254   -1.000443   -0.445674
     11          6           0       -3.386738   -0.149457    0.131635
     12          8           0       -3.305976    1.064690    0.211608
     13          6           0       -4.621765   -0.891529    0.605963
     14          1           0        1.163735    2.193303    1.373008
     15          1           0        0.188564    3.215700    0.309659
     16          1           0        1.925564    3.041387    0.015699
     17          1           0        0.475363    1.763384   -1.572680
     18          1           0        1.761671   -0.140550   -1.803520
     19          1           0        2.778313    1.117930   -1.153896
     20          1           0        1.463692   -2.304425   -0.701074
     21          1           0        2.052433   -2.562273    0.947887
     22          1           0        0.627632   -1.534765    0.667741
     23          1           0        4.603877   -0.216721   -0.411413
     24          1           0        4.317964   -1.821457    0.286733
     25          1           0        3.812500   -1.475713   -1.376372
     26          1           0        3.297124    0.945048    1.514345
     27          1           0        1.738139    0.250066    2.010995
     28          1           0        3.228059   -0.683910    2.204731
     29          1           0       -1.081311    1.240953    0.320809
     30          1           0       -1.526561    0.438140   -1.879854
     31          1           0       -0.425931   -0.899695   -1.534755
     32          1           0       -2.701159   -1.691224   -1.181035
     33          1           0       -1.874865   -1.631649    0.365385
     34          1           0       -5.128663   -1.357864   -0.248360
     35          1           0       -4.347672   -1.700281    1.293831
     36          1           0       -5.306559   -0.199171    1.099063
 ---------------------------------------------------------------------

 SCF Done:  E(UB3LYP) =  -563.211254833     A.U. after   33 cycles
 SCF Done:  E(UB3LYP) =  -563.211545901     a.u. after    6 cycles

 The electronic state is 2-A.
 Alpha  occ. eigenvalues --  -19.01753 -14.19128 -10.16526 -10.10264 -10.09182
 Alpha  occ. eigenvalues --  -10.08534 -10.07613 -10.07171 -10.06585 -10.06580
 Alpha  occ. eigenvalues --  -10.06095 -10.05851 -10.05016  -0.94980  -0.80993
 Alpha  occ. eigenvalues --   -0.72516  -0.68749  -0.65661  -0.61923  -0.59655
 Alpha  occ. eigenvalues --   -0.58550  -0.58137  -0.52931  -0.48872  -0.43023
 Alpha  occ. eigenvalues --   -0.42954  -0.40208  -0.38186  -0.36833  -0.36355
 Alpha  occ. eigenvalues --   -0.35256  -0.34806  -0.33885  -0.33429  -0.32682
 Alpha  occ. eigenvalues --   -0.30971  -0.30303  -0.29951  -0.29110  -0.28239
 Alpha  occ. eigenvalues --   -0.27646  -0.26754  -0.26706  -0.26246  -0.25570
 Alpha  occ. eigenvalues --   -0.24591  -0.23859  -0.22148  -0.21960  -0.21280
 Alpha  occ. eigenvalues --   -0.15814  -0.12847   0.04330
 Alpha virt. eigenvalues --    0.05912   0.06795   0.07317   0.07753   0.08435
 Alpha virt. eigenvalues --    0.09176   0.09392   0.09755   0.09930   0.10571
 Alpha virt. eigenvalues --    0.10944   0.11290   0.12148   0.12391   0.12917

  Beta  occ. eigenvalues --  -19.01734 -14.19116 -10.16502 -10.10259 -10.09169
  Beta  occ. eigenvalues --  -10.08533 -10.07580 -10.07118 -10.06575 -10.06568
  Beta  occ. eigenvalues --  -10.06074 -10.05835 -10.04997  -0.94934  -0.80976
  Beta  occ. eigenvalues --   -0.72501  -0.68701  -0.65607  -0.61863  -0.59628
  Beta  occ. eigenvalues --   -0.58511  -0.58103  -0.52866  -0.48844  -0.42976
  Beta  occ. eigenvalues --   -0.42872  -0.40177  -0.38140  -0.36798  -0.36310
  Beta  occ. eigenvalues --   -0.35213  -0.34765  -0.33828  -0.33401  -0.32661
  Beta  occ. eigenvalues --   -0.30930  -0.30258  -0.29928  -0.29082  -0.28207
  Beta  occ. eigenvalues --   -0.27604  -0.26727  -0.26676  -0.26214  -0.25509
  Beta  occ. eigenvalues --   -0.24549  -0.23834  -0.22127  -0.21936  -0.21259
  Beta  occ. eigenvalues --   -0.15781  -0.12800
  Beta virt. eigenvalues --    0.06214   0.07120   0.07259   0.07537   0.08097
  Beta virt. eigenvalues --    0.08812   0.09592   0.09785   0.09892   0.10266
  Beta virt. eigenvalues --    0.10879   0.11327   0.11782   0.12484   0.12652

 Mulliken charges and spin densities:
               1          2
     1  C   -0.387260  -0.320079
     2  C   -0.344847   0.254601
     3  C    0.921108  -1.425087
     4  C   -1.283926   2.256892
     5  C    0.214821  -1.020713
     6  C    0.198622  -0.718730
     7  C    0.013647  -0.711367
     8  N    0.034955  -0.051645
     9  C   -0.806652   0.638885
    10  C    1.128847  -1.547795
    11  C   -1.284243   1.588024
    12  O   -0.266159   0.004762
    13  C    1.909230  -2.560021
    14  H    0.139553   0.008950
    15  H   -0.002700   0.145297
    16  H   -0.047241   0.172988
    17  H    0.070877   0.081064
    18  H    0.001083   0.175084
    19  H    0.073722   0.084051
    20  H   -0.146871   0.298486
    21  H    0.004687   0.129692
    22  H    0.103944   0.055429
    23  H   -0.195196   0.322686
    24  H   -0.058932   0.192574
    25  H   -0.046374   0.180362
    26  H   -0.055476   0.197780
    27  H    0.112328   0.037947
    28  H    0.022579   0.118518
    29  H    0.348428  -0.086664
    30  H   -0.062944   0.192576
    31  H   -0.057725   0.186325
    32  H   -0.491142   0.679004
    33  H    0.350582  -0.169816
    34  H   -0.584771   0.766493
    35  H   -0.459330   0.618040
    36  H   -0.067226   0.225407
 Sum of Mulliken charges =  -1.00000   1.00000

 Dipole moment (field-independent basis, Debye):
    X=              4.6980    Y=              3.4798    Z=              1.4521  Tot=              6.0240
 Quadrupole moment (field-independent basis, Debye-Ang):
   XX=           -182.7888   YY=           -127.7379   ZZ=           -117.2358
   XY=            -10.6855   XZ=             -3.3567   YZ=             -4.0264

 Summary of Natural Population Analysis:

                                       Natural Population
                Natural  -----------------------------------------------
    Atom  No    Charge         Core      Valence    Rydberg      Total
 -----------------------------------------------------------------------
      C    1   -0.28656      0.99964     2.28245    0.00447     3.28656
      C    2   -0.00551      0.99961     1.99385    0.01205     3.00551
      C    3   -0.19009      0.99957     2.17886    0.01165     3.19009
      C    4   -0.04979      0.99959     2.03839    0.01181     3.04979
      C    5   -0.28826      0.99962     2.28099    0.00765     3.28826
      C    6   -0.28032      0.99963     2.27458    0.00612     3.28032
      C    7   -0.28605      0.99962     2.28045    0.00598     3.28605
      N    8   -0.35039      0.99972     2.84026    0.01041     3.85039
      C    9   -0.08708      0.99963     2.07569    0.01176     3.08708
      C   10   -0.24313      0.99957     2.23403    0.00953     3.24313
      C   11    0.30338      0.99968     1.67651    0.02043     2.69662
      O   12   -0.29785      0.99987     3.29125    0.00673     4.29785
      C   13   -0.33397      0.99962     2.32863    0.00572     3.33397
      H   14    0.10099      0.00000     0.39793    0.00108     0.39901
      H   15    0.09751      0.00000     0.40151    0.00098     0.40249
      H   16    0.09897      0.00000     0.40021    0.00083     0.40103
      H   17    0.07679      0.00000     0.42109    0.00212     0.42321
      H   18    0.09938      0.00000     0.39919    0.00143     0.40062
      H   19    0.09834      0.00000     0.40052    0.00114     0.40166
      H   20    0.09730      0.00000     0.40157    0.00113     0.40270
      H   21    0.09512      0.00000     0.40403    0.00085     0.40488
      H   22    0.11014      0.00000     0.38805    0.00180     0.38986
      H   23    0.09726      0.00000     0.40168    0.00106     0.40274
      H   24    0.09729      0.00000     0.40172    0.00099     0.40271
      H   25    0.09910      0.00000     0.39987    0.00103     0.40090
      H   26    0.09749      0.00000     0.40159    0.00092     0.40251
      H   27    0.10328      0.00000     0.39549    0.00123     0.39672
      H   28    0.09698      0.00000     0.40215    0.00088     0.40302
      H   29    0.18384      0.00000     0.31266    0.00351     0.31616
      H   30    0.08309      0.00000     0.41544    0.00146     0.41691
      H   31    0.09692      0.00000     0.40143    0.00166     0.40308
      H   32    0.11662      0.00000     0.38006    0.00333     0.38338
      H   33    0.11373      0.00000     0.38471    0.00156     0.38627
      H   34    0.11781      0.00000     0.37758    0.00462     0.38219
      H   35    0.10989      0.00000     0.38869    0.00142     0.39011
      H   36    0.10777      0.00000     0.39123    0.00100     0.39223
 =======================================================================
   * Total *   -0.00000     12.99537    38.84433    0.16030    52.00000

 Normal termination of Gaussian 16 at Thu Dec 10 00:41:26 2020.
