 Gaussian 16, Revision A.03,

 -----------------------------------------------------------
 # opt freq B3LYP/6-31G(d) empiricaldispersion=gd3bj scf=xqc
 -----------------------------------------------------------

 -------------------------------
 CID_152409996_JID_8862_neutraal
 -------------------------------
 Symbolic Z-matrix:
 Charge =  0 Multiplicity = 1

 SCF Done:  E(RB3LYP) =  -813.973783936     A.U. after   16 cycles
 SCF Done:  E(RB3LYP) =  -813.978675190     A.U. after   15 cycles
 SCF Done:  E(RB3LYP) =  -813.980981408     A.U. after   15 cycles
 SCF Done:  E(RB3LYP) =  -813.982716302     A.U. after   13 cycles
 SCF Done:  E(RB3LYP) =  -813.984059481     A.U. after   16 cycles
 SCF Done:  E(RB3LYP) =  -813.983835731     A.U. after   14 cycles
 SCF Done:  E(RB3LYP) =  -813.984410669     A.U. after   13 cycles
 SCF Done:  E(RB3LYP) =  -813.984470105     A.U. after   12 cycles
 SCF Done:  E(RB3LYP) =  -813.984515831     A.U. after   12 cycles
 SCF Done:  E(RB3LYP) =  -813.984516579     A.U. after    9 cycles
 SCF Done:  E(RB3LYP) =  -813.984516645     A.U. after    8 cycles
 SCF Done:  E(RB3LYP) =  -813.984516612     A.U. after    8 cycles
 SCF Done:  E(RB3LYP) =  -813.984516519     A.U. after    8 cycles
 SCF Done:  E(RB3LYP) =  -813.984516412     A.U. after    8 cycles
 SCF Done:  E(RB3LYP) =  -813.984516313     A.U. after    8 cycles
 Optimization completed.
    -- Stationary point found.
 Normal termination of Gaussian 16 at Fri Dec 11 22:14:35 2020.

 --------------------------------------------------------------------
 #N Geom=AllCheck Guess=TCheck SCRF=Check GenChk RB3LYP/6-31G(d) Freq
 --------------------------------------------------------------------

 Structure from the checkpoint file:  "JID_8862.chk"
 -------------------------------
 CID_152409996_JID_8862_neutraal
 -------------------------------
 Charge =  0 Multiplicity = 1

 SCF Done:  E(RB3LYP) =  -813.984516313     A.U. after    1 cycles

  Exact polarizability: 234.302  -3.261 175.164 -22.757  -4.774  98.175
 Approx polarizability: 325.060  12.424 324.478 -44.039 -17.093 147.591

                      1                      2                      3
                      A                      A                      A
 Frequencies --      8.5891                30.8326                32.5162
 Red. masses --      5.1468                 4.7519                 5.6794
 Frc consts  --      0.0002                 0.0027                 0.0035
 IR Inten    --      0.3621                 0.1039                 0.1561

                      4                      5                      6
                      A                      A                      A
 Frequencies --     70.0484                76.0354               112.0928
 Red. masses --      8.0094                 5.8239                 6.1708
 Frc consts  --      0.0232                 0.0198                 0.0457
 IR Inten    --      0.2798                 0.3383                 0.0944

                      7                      8                      9
                      A                      A                      A
 Frequencies --    141.5394               161.7882               210.5636
 Red. masses --      5.7123                 4.4987                 2.6444
 Frc consts  --      0.0674                 0.0694                 0.0691
 IR Inten    --      1.2288                 1.2707                 0.7319

                     10                     11                     12
                      A                      A                      A
 Frequencies --    234.1549               260.1941               292.3151
 Red. masses --      4.7052                 3.4221                 3.5566
 Frc consts  --      0.1520                 0.1365                 0.1791
 IR Inten    --      0.9548                 2.1204                 7.9501

                     13                     14                     15
                      A                      A                      A
 Frequencies --    341.1560               358.0421               383.6709
 Red. masses --      3.8776                 2.3333                 5.4420
 Frc consts  --      0.2659                 0.1762                 0.4720
 IR Inten    --      2.8190                 3.0438                 2.9149

                     16                     17                     18
                      A                      A                      A
 Frequencies --    406.6261               444.6753               459.6905
 Red. masses --      4.1706                 3.9168                 2.3297
 Frc consts  --      0.4063                 0.4563                 0.2901
 IR Inten    --      1.6697                 1.1615                 0.9017

                     19                     20                     21
                      A                      A                      A
 Frequencies --    480.5095               482.7827               487.9940
 Red. masses --      8.1133                 4.7284                 3.1290
 Frc consts  --      1.1037                 0.6493                 0.4390
 IR Inten    --      1.0494                 2.4540                 1.2053

                     22                     23                     24
                      A                      A                      A
 Frequencies --    534.8521               540.5474               578.0655
 Red. masses --      6.3144                13.7492                 5.6454
 Frc consts  --      1.0643                 2.3670                 1.1115
 IR Inten    --      1.5056                 7.8871                 0.9320

                     25                     26                     27
                      A                      A                      A
 Frequencies --    605.8325               628.4278               670.9511
 Red. masses --      6.1754                 1.7936                 9.3825
 Frc consts  --      1.3354                 0.4173                 2.4886
 IR Inten    --      0.0981                16.1471                 3.7360

                     28                     29                     30
                      A                      A                      A
 Frequencies --    716.0468               741.3885               804.7463
 Red. masses --      2.4570                 9.0773                 4.0866
 Frc consts  --      0.7422                 2.9397                 1.5593
 IR Inten    --      9.6458                15.1381                15.4804

                     31                     32                     33
                      A                      A                      A
 Frequencies --    854.7221               862.6417               896.4175
 Red. masses --      1.6863                 3.4208                 2.9872
 Frc consts  --      0.7258                 1.4998                 1.4143
 IR Inten    --      0.5470                16.8090                29.3069

                     34                     35                     36
                      A                      A                      A
 Frequencies --    900.5695               913.5676               923.3450
 Red. masses --      1.6210                 4.3515                 1.3359
 Frc consts  --      0.7746                 2.1398                 0.6710
 IR Inten    --     24.0275                 4.5436                 2.1539

                     37                     38                     39
                      A                      A                      A
 Frequencies --    952.8494               995.5317              1008.1116
 Red. masses --      1.4598                 2.6194                 1.8256
 Frc consts  --      0.7809                 1.5295                 1.0931
 IR Inten    --      0.0665                28.1259                 7.9993

                     40                     41                     42
                      A                      A                      A
 Frequencies --   1037.3058              1044.3939              1057.1604
 Red. masses --      3.7305                 3.5466                 2.9589
 Frc consts  --      2.3650                 2.2793                 1.9483
 IR Inten    --     18.1394                 1.8614                23.7205

                     43                     44                     45
                      A                      A                      A
 Frequencies --   1084.7738              1100.7259              1146.2059
 Red. masses --      2.2425                 1.8435                 6.1176
 Frc consts  --      1.5548                 1.3160                 4.7354
 IR Inten    --     21.9255                21.7823                83.4729

                     46                     47                     48
                      A                      A                      A
 Frequencies --   1163.6673              1176.7579              1181.4121
 Red. masses --      2.6538                 2.6623                 2.4137
 Frc consts  --      2.1172                 2.1721                 1.9849
 IR Inten    --     27.7989                 1.2910                 7.0121

                     49                     50                     51
                      A                      A                      A
 Frequencies --   1205.5921              1245.1675              1278.0898
 Red. masses --      1.9460                 1.0665                 1.1882
 Frc consts  --      1.6664                 0.9742                 1.1436
 IR Inten    --     15.8717                 6.9175                 6.8157

                     52                     53                     54
                      A                      A                      A
 Frequencies --   1292.5342              1299.1993              1315.0422
 Red. masses --      5.2655                 2.9911                 1.2774
 Frc consts  --      5.1829                 2.9746                 1.3016
 IR Inten    --     31.5384                 3.4004                22.0648

                     55                     56                     57
                      A                      A                      A
 Frequencies --   1330.4386              1359.5284              1375.3818
 Red. masses --      1.2259                 1.4668                 1.2554
 Frc consts  --      1.2785                 1.5974                 1.3992
 IR Inten    --      7.3848                 8.0289                 4.2464

                     58                     59                     60
                      A                      A                      A
 Frequencies --   1378.3100              1383.3145              1399.8540
 Red. masses --      3.4983                 1.4907                 1.4007
 Frc consts  --      3.9156                 1.6806                 1.6172
 IR Inten    --    127.9158                 8.1949                56.3471

                     61                     62                     63
                      A                      A                      A
 Frequencies --   1406.0921              1424.3746              1442.4506
 Red. masses --      1.3185                 1.4226                 1.3273
 Frc consts  --      1.5359                 1.7005                 1.6271
 IR Inten    --     66.7314                17.3055                 3.6292

                     64                     65                     66
                      A                      A                      A
 Frequencies --   1469.3712              1494.1109              1495.2868
 Red. masses --      3.4795                 3.3915                 1.0856
 Frc consts  --      4.4262                 4.4607                 1.4301
 IR Inten    --    106.4064                33.8878                 4.6611

                     67                     68                     69
                      A                      A                      A
 Frequencies --   1506.6759              1512.1451              1522.9388
 Red. masses --      1.1001                 1.0848                 1.0858
 Frc consts  --      1.4714                 1.4614                 1.4837
 IR Inten    --      6.5107                 0.6948                 0.3368

                     70                     71                     72
                      A                      A                      A
 Frequencies --   1531.6921              1608.8728              1637.9881
 Red. masses --      1.0976                 5.2573                 5.5432
 Frc consts  --      1.5171                 8.0179                 8.7626
 IR Inten    --      5.1550                20.1617                52.9315

                     73                     74                     75
                      A                      A                      A
 Frequencies --   2269.8882              2354.9837              2943.9535
 Red. masses --     13.9851                11.9305                 1.0719
 Frc consts  --     42.4545                38.9838                 5.4736
 IR Inten    --    675.5136                 5.1075                20.9344

                     76                     77                     78
                      A                      A                      A
 Frequencies --   2980.3537              2990.3545              3043.4923
 Red. masses --      1.0713                 1.0715                 1.0686
 Frc consts  --      5.6066                 5.6451                 5.8321
 IR Inten    --     23.9876                97.6997                11.2032

                     79                     80                     81
                      A                      A                      A
 Frequencies --   3046.3693              3054.7793              3092.9724
 Red. masses --      1.0759                 1.0645                 1.1046
 Frc consts  --      5.8828                 5.8526                 6.2260
 IR Inten    --     42.2815                30.1941                38.4631

                     82                     83                     84
                      A                      A                      A
 Frequencies --   3105.4005              3108.5334              3113.3968
 Red. masses --      1.0933                 1.0927                 1.1023
 Frc consts  --      6.2116                 6.2211                 6.2954
 IR Inten    --     58.1477                40.7292                26.6388

                     85                     86                     87
                      A                      A                      A
 Frequencies --   3193.4215              3197.9359              3210.7788
 Red. masses --      1.0892                 1.0934                 1.0918
 Frc consts  --      6.5443                 6.5885                 6.6313
 IR Inten    --     17.5298                 3.8265                 1.1140

 - Thermochemistry -
 -------------------
 Temperature   298.150 Kelvin.  Pressure   1.00000 Atm.
 Atom     1 has atomic number  6 and mass  12.00000

 Molecular mass:   243.11201 amu.
 Principal axes and moments of inertia in atomic units:
                           1         2         3
     Eigenvalues --  2166.77059********************
           X            0.99998   0.00541  -0.00270
           Y           -0.00541   0.99999  -0.00051
           Z            0.00270   0.00052   1.00000
 This molecule is an asymmetric top.
 Rotational symmetry number  1.
 Warning -- assumption of classical behavior for rotation
           may cause significant error
 Rotational temperatures (Kelvin)      0.03997     0.00721     0.00654
 Rotational constants (GHZ):           0.83292     0.15013     0.13634
 Zero-point vibrational energy     647286.8 (Joules/Mol)
                                  154.70525 (Kcal/Mol)
 Warning -- explicit consideration of  25 degrees of freedom as
           vibrations may cause significant error
 Vibrational temperatures:     12.36    44.36    46.78   100.78   109.40
          (Kelvin)            161.28   203.64   232.78   302.95   336.90
                              374.36   420.58   490.85   515.14   552.02
                              585.04   639.79   661.39   691.35   694.62
                              702.11   769.53   777.73   831.71   871.66
                              904.17   965.35  1030.23  1066.69  1157.85
                             1229.75  1241.15  1289.74  1295.72  1314.42
                             1328.49  1370.94  1432.35  1450.45  1492.45
                             1502.65  1521.02  1560.75  1583.70  1649.13
                             1674.26  1693.09  1699.79  1734.58  1791.52
                             1838.89  1859.67  1869.26  1892.05  1914.20
                             1956.06  1978.87  1983.08  1990.28  2014.08
                             2023.05  2049.36  2075.36  2114.10  2149.69
                             2151.38  2167.77  2175.64  2191.17  2203.76
                             2314.81  2356.70  3265.86  3388.30  4235.69
                             4288.06  4302.45  4378.91  4383.05  4395.15
                             4450.10  4467.98  4472.49  4479.48  4594.62
                             4601.12  4619.59

 Zero-point correction=                           0.246539 (Hartree/Particle)
 Thermal correction to Energy=                    0.262287
 Thermal correction to Enthalpy=                  0.263232
 Thermal correction to Gibbs Free Energy=         0.199690
 Sum of electronic and zero-point Energies=           -813.737978
 Sum of electronic and thermal Energies=              -813.722229
 Sum of electronic and thermal Enthalpies=            -813.721285
 Sum of electronic and thermal Free Energies=         -813.784827

                     E (Thermal)             CV                S
                      KCal/Mol        Cal/Mol-Kelvin    Cal/Mol-Kelvin
 Total                  164.588             59.124            133.735
 Electronic               0.000              0.000              0.000
 Translational            0.889              2.981             42.366
 Rotational               0.889              2.981             34.199
 Vibrational            162.810             53.163             57.170
 Vibration     1          0.593              1.987              8.313
 Vibration     2          0.594              1.984              5.775
 Vibration     3          0.594              1.983              5.670
 Vibration     4          0.598              1.968              4.152
 Vibration     5          0.599              1.965              3.991
 Vibration     6          0.607              1.939              3.232
 Vibration     7          0.615              1.912              2.783
 Vibration     8          0.622              1.889              2.529
 Vibration     9          0.643              1.825              2.039
 Vibration    10          0.654              1.789              1.847
 Vibration    11          0.668              1.745              1.660
 Vibration    12          0.688              1.688              1.461
 Vibration    13          0.721              1.593              1.207
 Vibration    14          0.733              1.559              1.131
 Vibration    15          0.753              1.505              1.025
 Vibration    16          0.771              1.456              0.939
 Vibration    17          0.804              1.373              0.812
 Vibration    18          0.818              1.339              0.767
 Vibration    19          0.837              1.293              0.709
 Vibration    20          0.839              1.288              0.703
 Vibration    21          0.844              1.277              0.689
 Vibration    22          0.890              1.173              0.576
 Vibration    23          0.896              1.160              0.564
 Vibration    24          0.935              1.079              0.489
 Vibration    25          0.964              1.019              0.440

                           ! Non-Optimized Parameters !
 Normal termination of Gaussian 16 at Fri Dec 11 22:23:06 2020.

 ----------------------------------------------------------------------
 # B3LYP/6-311++G(d,p) empiricaldispersion=gd3bj scf=xqc pop=npa geom=c
 heck
 ----------------------------------------------------------------------

 ---------------------------------------
 CID_152409996_JID_8862_Energie_neutraal
 ---------------------------------------
 Structure from the checkpoint file:  "JID_8862.chk"
 Charge =  0 Multiplicity = 1

 SCF Done:  E(RB3LYP) =  -814.201689098     A.U. after   18 cycles
 Normal termination of Gaussian 16 at Fri Dec 11 22:27:33 2020.

 ----------------------------------------------------------------------
 # B3LYP/6-311++G(d,p) empiricaldispersion=gd3bj scf=xqc pop=npa geom=c
 heck
 ----------------------------------------------------------------------

 -------------------------------------
 CID_152409996_JID_8862_Energie_kation
 -------------------------------------
 Structure from the checkpoint file:  "JID_8862.chk"
 Charge =  1 Multiplicity = 2

 SCF Done:  E(UB3LYP) =  -813.915535632     A.U. after   29 cycles
 Normal termination of Gaussian 16 at Fri Dec 11 22:37:17 2020.
 Gaussian 16:  ES64L-G16RevA.03 25-Dec-2016

 ----------------------------------------------------------------------
 # B3LYP/6-311++G(d,p) empiricaldispersion=gd3bj scf=xqc pop=npa geom=c
 heck
 ----------------------------------------------------------------------

 ------------------------------------
 CID_152409996_JID_8862_Energie_anion
 ------------------------------------
 Structure from the checkpoint file:  "JID_8862.chk"
 Charge = -1 Multiplicity = 2

                         Standard orientation:
 ---------------------------------------------------------------------
 Center     Atomic      Atomic             Coordinates (Angstroms)
 Number     Number       Type             X           Y           Z
 ---------------------------------------------------------------------
      1          6           0        4.261242    0.843639   -1.063442
      2          6           0        5.297981    0.019530   -0.294021
      3          8           0        5.190160    0.256923    1.104435
      4          6           0        3.887705   -0.064061    1.584056
      5          6           0        2.821941    0.758913    0.857353
      6          7           0        2.886910    0.612346   -0.603457
      7          6           0        2.323211   -0.645858   -1.105804
      8          6           0        0.895805   -0.763734   -0.805667
      9          6           0       -0.280291   -0.873370   -0.537146
     10          6           0       -1.665777   -0.995612   -0.230645
     11          6           0       -2.498198    0.131629   -0.169510
     12          6           0       -3.846025   -0.050532    0.138437
     13          6           0       -4.316695   -1.350427    0.371822
     14          7           0       -3.533452   -2.427487    0.314496
     15          6           0       -2.243238   -2.255115    0.022782
     16          7           0       -4.800337    0.990466    0.236142
     17          7           0       -4.409236    2.148328    0.034346
     18          7           0       -4.179108    3.253092   -0.127380
     19          1           0        4.483518    1.907665   -0.912645
     20          1           0        4.321009    0.637661   -2.138928
     21          1           0        5.175968   -1.057289   -0.503196
     22          1           0        6.315186    0.305527   -0.579260
     23          1           0        3.890278    0.157533    2.655604
     24          1           0        3.699002   -1.144297    1.460916
     25          1           0        2.981565    1.819633    1.087887
     26          1           0        1.817573    0.487214    1.197537
     27          1           0        2.831194   -1.553572   -0.730721
     28          1           0        2.462582   -0.651520   -2.195199
     29          1           0       -2.088004    1.118397   -0.360493
     30          1           0       -5.366295   -1.501971    0.611920
     31          1           0       -1.624254   -3.147592   -0.017225
 ---------------------------------------------------------------------

 SCF Done:  E(UB3LYP) =  -814.211358452     A.U. after   33 cycles
 SCF Done:  E(UB3LYP) =  -814.211445811     a.u. after    7 cycles

 The electronic state is 2-A.
 Alpha  occ. eigenvalues --  -19.04571 -14.36446 -14.26784 -14.25290 -14.22003
 Alpha  occ. eigenvalues --  -14.16725 -10.13604 -10.13397 -10.12137 -10.11152
 Alpha  occ. eigenvalues --  -10.10473 -10.09618 -10.07577 -10.06486 -10.06153
 Alpha  occ. eigenvalues --  -10.05007 -10.04379 -10.03778  -1.03002  -0.96127
 Alpha  occ. eigenvalues --   -0.87526  -0.83873  -0.80969  -0.69234  -0.68961
 Alpha  occ. eigenvalues --   -0.67103  -0.65544  -0.60480  -0.57254  -0.56805
 Alpha  occ. eigenvalues --   -0.54250  -0.51546  -0.48455  -0.45170  -0.42284
 Alpha  occ. eigenvalues --   -0.40510  -0.40146  -0.40095  -0.39626  -0.38417
 Alpha  occ. eigenvalues --   -0.38187  -0.37507  -0.36030  -0.35684  -0.34530
 Alpha  occ. eigenvalues --   -0.33746  -0.32367  -0.31014  -0.29262  -0.28230
 Alpha  occ. eigenvalues --   -0.27852  -0.27573  -0.26834  -0.26306  -0.23965
 Alpha  occ. eigenvalues --   -0.21174  -0.20186  -0.20048  -0.19598  -0.15859
 Alpha  occ. eigenvalues --   -0.13190  -0.12755  -0.12297  -0.10438   0.03975
 Alpha virt. eigenvalues --    0.05404   0.06850   0.07473   0.07620   0.07971
 Alpha virt. eigenvalues --    0.08203   0.09889   0.10188   0.10422   0.11087
 Alpha virt. eigenvalues --    0.11294   0.11553   0.12789   0.12993   0.13344

  Beta  occ. eigenvalues --  -19.04568 -14.36303 -14.26610 -14.25312 -14.21992
  Beta  occ. eigenvalues --  -14.16430 -10.13595 -10.13395 -10.12148 -10.11136
  Beta  occ. eigenvalues --  -10.10468 -10.09680 -10.07647 -10.06317 -10.06002
  Beta  occ. eigenvalues --  -10.05014 -10.04239 -10.03330  -1.02748  -0.96120
  Beta  occ. eigenvalues --   -0.87416  -0.83844  -0.80534  -0.69077  -0.68599
  Beta  occ. eigenvalues --   -0.66831  -0.65324  -0.60324  -0.57231  -0.56730
  Beta  occ. eigenvalues --   -0.54002  -0.50988  -0.48371  -0.44922  -0.42255
  Beta  occ. eigenvalues --   -0.40215  -0.40046  -0.39710  -0.39584  -0.38378
  Beta  occ. eigenvalues --   -0.37918  -0.37457  -0.35917  -0.35384  -0.34366
  Beta  occ. eigenvalues --   -0.33407  -0.32281  -0.30968  -0.29189  -0.27838
  Beta  occ. eigenvalues --   -0.27328  -0.27273  -0.26766  -0.26169  -0.23950
  Beta  occ. eigenvalues --   -0.20714  -0.19976  -0.19928  -0.18512  -0.15738
  Beta  occ. eigenvalues --   -0.12491  -0.12284  -0.11521  -0.09770
  Beta virt. eigenvalues --    0.05756   0.07436   0.07592   0.07651   0.08233
  Beta virt. eigenvalues --    0.08580   0.09310   0.09970   0.10204   0.10366
  Beta virt. eigenvalues --    0.11047   0.11258   0.11492   0.12780   0.13029

 Mulliken charges and spin densities:
               1          2
     1  C   -0.185216   0.081725
     2  C    0.102311  -0.405307
     3  O   -0.138549   0.016183
     4  C   -0.384567  -0.078661
     5  C   -0.260883  -0.014410
     6  N    0.122795   0.015545
     7  C   -0.779537  -0.234235
     8  C    0.605432   0.116950
     9  C    0.229252  -0.019004
    10  C    0.213616   0.083077
    11  C   -0.359254   0.360128
    12  C   -0.532895  -0.075761
    13  C   -0.144781   0.146610
    14  N   -0.080194   0.128739
    15  C   -0.569952  -0.041402
    16  N   -0.047174   0.048504
    17  N    0.217462   0.004326
    18  N   -0.202303   0.085679
    19  H    0.152961   0.011999
    20  H   -0.166282   0.288676
    21  H    0.074939   0.065711
    22  H   -0.087756   0.271961
    23  H    0.164314   0.003347
    24  H    0.117775   0.037921
    25  H    0.128241   0.033719
    26  H    0.154894  -0.019301
    27  H    0.148096  -0.022761
    28  H    0.041953   0.131898
    29  H    0.160221  -0.030458
    30  H    0.165041   0.001339
    31  H    0.140037   0.007260
 Sum of Mulliken charges =  -1.00000   1.00000

 Dipole moment (field-independent basis, Debye):
    X=              6.4397    Y=              0.5945    Z=              1.0390  Tot=              6.5500
 Quadrupole moment (field-independent basis, Debye-Ang):
   XX=           -197.9159   YY=           -137.2426   ZZ=           -119.4732
   XY=             -4.9965   XZ=              2.1440   YZ=              1.8088

 Summary of Natural Population Analysis:

                                       Natural Population
                Natural  -----------------------------------------------
    Atom  No    Charge         Core      Valence    Rydberg      Total
 -----------------------------------------------------------------------
      C    1   -0.10267      0.99962     2.08842    0.01463     3.10267
      C    2   -0.02419      0.99958     2.01033    0.01428     3.02419
      O    3   -0.30294      0.99989     3.29337    0.00967     4.30294
      C    4   -0.02252      0.99959     2.01105    0.01189     3.02252
      C    5   -0.10515      0.99962     2.09414    0.01140     3.10515
      N    6   -0.28117      0.99975     2.76225    0.01916     3.78117
      C    7   -0.06255      0.99955     2.05598    0.00702     3.06255
      C    8   -0.04119      0.99937     2.02514    0.01669     3.04119
      C    9    0.03989      0.99925     1.95025    0.01061     2.96011
      C   10   -0.07218      0.99950     2.06014    0.01253     3.07218
      C   11   -0.00940      0.99950     2.00101    0.00889     3.00940
      C   12    0.02762      0.99942     1.95958    0.01338     2.97238
      C   13    0.03134      0.99958     1.94800    0.02108     2.96866
      N   14   -0.15970      0.99972     2.64922    0.01077     3.65970
      C   15    0.00310      0.99959     1.97643    0.02088     2.99690
      N   16   -0.17686      0.99965     2.66220    0.01501     3.67686
      N   17    0.13031      0.99971     2.35357    0.01642     3.36969
      N   18   -0.03622      0.99982     2.52290    0.01350     3.53622
      H   19    0.09452      0.00000     0.40425    0.00123     0.40548
      H   20    0.09890      0.00000     0.39961    0.00149     0.40110
      H   21    0.07688      0.00000     0.42187    0.00125     0.42312
      H   22    0.09076      0.00000     0.40769    0.00155     0.40924
      H   23    0.09077      0.00000     0.40799    0.00124     0.40923
      H   24    0.07797      0.00000     0.42071    0.00132     0.42203
      H   25    0.09368      0.00000     0.40497    0.00135     0.40632
      H   26    0.11165      0.00000     0.38693    0.00142     0.38835
      H   27    0.08497      0.00000     0.41236    0.00268     0.41503
      H   28    0.10323      0.00000     0.39408    0.00270     0.39677
      H   29    0.09636      0.00000     0.40215    0.00148     0.40364
      H   30    0.08424      0.00000     0.41412    0.00164     0.41576
      H   31    0.08437      0.00000     0.41396    0.00167     0.41563
 =======================================================================
   * Total *    0.02381     17.99268    45.71468    0.26882    63.97619

 Normal termination of Gaussian 16 at Fri Dec 11 23:53:39 2020.
