 Gaussian 16, Revision A.03,

 -----------------------------------------------------------
 # opt freq B3LYP/6-31G(d) empiricaldispersion=gd3bj scf=xqc
 -----------------------------------------------------------

 -------------------------------
 CID_116199581_JID_3634_neutraal
 -------------------------------
 Symbolic Z-matrix:
 Charge =  0 Multiplicity = 1

 SCF Done:  E(RB3LYP) =  -972.633536735     A.U. after   15 cycles
 SCF Done:  E(RB3LYP) =  -972.637812543     A.U. after   12 cycles
 SCF Done:  E(RB3LYP) =  -972.638160287     A.U. after   11 cycles
 SCF Done:  E(RB3LYP) =  -972.638226597     A.U. after   11 cycles
 SCF Done:  E(RB3LYP) =  -972.638283557     A.U. after   11 cycles
 SCF Done:  E(RB3LYP) =  -972.638289354     A.U. after   11 cycles
 SCF Done:  E(RB3LYP) =  -972.638292853     A.U. after    8 cycles
 SCF Done:  E(RB3LYP) =  -972.638293948     A.U. after    9 cycles
 SCF Done:  E(RB3LYP) =  -972.638294356     A.U. after    9 cycles
 SCF Done:  E(RB3LYP) =  -972.638294477     A.U. after    8 cycles
 SCF Done:  E(RB3LYP) =  -972.638294499     A.U. after    7 cycles
 SCF Done:  E(RB3LYP) =  -972.638294504     A.U. after    7 cycles
 Optimization completed.
    -- Stationary point found.
 Normal termination of Gaussian 16 at Wed Dec  9 23:50:17 2020.

 --------------------------------------------------------------------
 #N Geom=AllCheck Guess=TCheck SCRF=Check GenChk RB3LYP/6-31G(d) Freq
 --------------------------------------------------------------------

 Structure from the checkpoint file:  "JID_3634.chk"
 -------------------------------
 CID_116199581_JID_3634_neutraal
 -------------------------------
 Charge =  0 Multiplicity = 1

 SCF Done:  E(RB3LYP) =  -972.638294504     A.U. after    1 cycles

  Exact polarizability: 132.324  -0.604 112.376   5.088  -2.236 108.381
 Approx polarizability: 166.062  -5.024 174.658   6.656  -3.807 175.637

                      1                      2                      3
                      A                      A                      A
 Frequencies --     26.9773                42.9295                51.4580
 Red. masses --      5.5999                 5.7201                 4.1827
 Frc consts  --      0.0024                 0.0062                 0.0065
 IR Inten    --      1.0114                 6.9997                 0.2592

                      4                      5                      6
                      A                      A                      A
 Frequencies --     99.6516               135.9719               153.7678
 Red. masses --      3.6475                 2.9437                 3.6200
 Frc consts  --      0.0213                 0.0321                 0.0504
 IR Inten    --      5.4146                 2.4573                 0.8977

                      7                      8                      9
                      A                      A                      A
 Frequencies --    177.0656               195.2079               217.9416
 Red. masses --      3.0844                 2.9270                 1.2670
 Frc consts  --      0.0570                 0.0657                 0.0355
 IR Inten    --      1.6854                 7.2946                 0.0148

                     10                     11                     12
                      A                      A                      A
 Frequencies --    239.1330               278.7287               284.7751
 Red. masses --      2.5425                 1.4229                 1.2800
 Frc consts  --      0.0857                 0.0651                 0.0612
 IR Inten    --      2.4759                 1.4733                31.9604

                     13                     14                     15
                      A                      A                      A
 Frequencies --    291.8549               321.2344               346.7053
 Red. masses --      2.1964                 2.6883                 3.9333
 Frc consts  --      0.1102                 0.1634                 0.2786
 IR Inten    --      1.8278                15.4129                 6.3687

                     16                     17                     18
                      A                      A                      A
 Frequencies --    353.3703               416.4299               461.6707
 Red. masses --      2.5155                 2.4584                 2.2632
 Frc consts  --      0.1851                 0.2512                 0.2842
 IR Inten    --     14.3999                 7.3002                 2.3485

                     19                     20                     21
                      A                      A                      A
 Frequencies --    493.0388               516.8045               564.5316
 Red. masses --      3.4403                 3.1247                 3.9929
 Frc consts  --      0.4927                 0.4917                 0.7497
 IR Inten    --      8.8732                 4.3539                 2.7964

                     22                     23                     24
                      A                      A                      A
 Frequencies --    605.7682               651.0131               656.0477
 Red. masses --      3.6690                 4.5227                 4.3235
 Frc consts  --      0.7932                 1.1294                 1.0964
 IR Inten    --      4.9833                 5.2851                15.8460

                     25                     26                     27
                      A                      A                      A
 Frequencies --    723.2972               779.5546               861.5396
 Red. masses --      4.2500                 2.9791                 1.8403
 Frc consts  --      1.3100                 1.0667                 0.8048
 IR Inten    --      9.1736                 6.9610               112.6741

                     28                     29                     30
                      A                      A                      A
 Frequencies --    873.7445               883.1757               896.8852
 Red. masses --      1.6253                 2.0905                 2.2476
 Frc consts  --      0.7311                 0.9607                 1.0652
 IR Inten    --      1.9383                35.8898                58.9761

                     31                     32                     33
                      A                      A                      A
 Frequencies --    928.3718               962.0231               979.9333
 Red. masses --      1.4948                 1.4569                 1.4055
 Frc consts  --      0.7591                 0.7944                 0.7952
 IR Inten    --      3.9397                 6.7035                 6.9903

                     34                     35                     36
                      A                      A                      A
 Frequencies --   1009.2308              1035.5125              1041.6634
 Red. masses --      2.4548                 1.6395                 1.5417
 Frc consts  --      1.4732                 1.0358                 0.9856
 IR Inten    --      1.0579                19.3226                 8.0807

                     37                     38                     39
                      A                      A                      A
 Frequencies --   1070.9503              1086.7140              1107.6153
 Red. masses --      2.4342                 4.3092                 2.0190
 Frc consts  --      1.6449                 2.9983                 1.4593
 IR Inten    --     32.2820                70.4662                28.0100

                     40                     41                     42
                      A                      A                      A
 Frequencies --   1121.2511              1152.0441              1169.8206
 Red. masses --      1.8345                 1.2786                 2.4794
 Frc consts  --      1.3589                 0.9998                 1.9991
 IR Inten    --      5.3325                 3.5829                15.8688

                     43                     44                     45
                      A                      A                      A
 Frequencies --   1209.9950              1223.0810              1274.2362
 Red. masses --      1.2959                 1.3986                 1.7122
 Frc consts  --      1.1178                 1.2327                 1.6380
 IR Inten    --     36.6958                 0.9943                66.3918

                     46                     47                     48
                      A                      A                      A
 Frequencies --   1280.6349              1284.9258              1299.5967
 Red. masses --      1.4798                 1.5655                 3.6683
 Frc consts  --      1.4299                 1.5229                 3.6503
 IR Inten    --     37.5441                16.3927                32.1613

                     49                     50                     51
                      A                      A                      A
 Frequencies --   1329.8704              1357.4383              1364.9176
 Red. masses --      1.6386                 1.2180                 1.3095
 Frc consts  --      1.7074                 1.3223                 1.4374
 IR Inten    --     41.4826                 5.6304                11.8668

                     52                     53                     54
                      A                      A                      A
 Frequencies --   1374.5922              1404.8084              1433.7436
 Red. masses --      1.4379                 1.4071                 1.6554
 Frc consts  --      1.6008                 1.6361                 2.0049
 IR Inten    --     22.6583                16.6637                81.8396

                     55                     56                     57
                      A                      A                      A
 Frequencies --   1441.0516              1458.1833              1477.3100
 Red. masses --      1.3140                 1.7423                 1.0571
 Frc consts  --      1.6077                 2.1827                 1.3593
 IR Inten    --     15.3227                58.1508                 7.4751

                     58                     59                     60
                      A                      A                      A
 Frequencies --   1488.5776              1497.4256              1499.4905
 Red. masses --      1.0836                 1.1030                 1.0563
 Frc consts  --      1.4147                 1.4573                 1.3993
 IR Inten    --      5.1957                 4.0112                10.4155

                     61                     62                     63
                      A                      A                      A
 Frequencies --   1526.1341              1536.4707              1549.5817
 Red. masses --      1.0460                 1.0531                 1.0949
 Frc consts  --      1.4354                 1.4647                 1.5490
 IR Inten    --      8.1357                 5.1861                 3.8268

                     64                     65                     66
                      A                      A                      A
 Frequencies --   1695.2736              1806.1091              2993.5433
 Red. masses --      1.0951                11.9241                 1.0714
 Frc consts  --      1.8543                22.9173                 5.6569
 IR Inten    --     27.4521               319.7951                59.2240

                     67                     68                     69
                      A                      A                      A
 Frequencies --   3041.9394              3058.2410              3066.1011
 Red. masses --      1.0725                 1.0378                 1.0299
 Frc consts  --      5.8475                 5.7187                 5.7046
 IR Inten    --      8.7481                10.3077                 7.1986

                     70                     71                     72
                      A                      A                      A
 Frequencies --   3067.5514              3070.2872              3077.3932
 Red. masses --      1.0836                 1.0750                 1.0693
 Frc consts  --      6.0076                 5.9706                 5.9667
 IR Inten    --     24.0462                 1.3433                16.3929

                     73                     74                     75
                      A                      A                      A
 Frequencies --   3107.0960              3127.1171              3134.3428
 Red. masses --      1.0930                 1.1014                 1.1028
 Frc consts  --      6.2168                 6.3456                 6.3832
 IR Inten    --     15.9366                26.7316                26.9696

                     76                     77                     78
                      A                      A                      A
 Frequencies --   3147.9636              3150.4521              3164.6274
 Red. masses --      1.1043                 1.0932                 1.1067
 Frc consts  --      6.4479                 6.3929                 6.5299
 IR Inten    --      5.1639                 7.5817                 4.8879

                     79                     80                     81
                      A                      A                      A
 Frequencies --   3172.4480              3460.5234              3549.6972
 Red. masses --      1.1058                 1.0492                 1.0928
 Frc consts  --      6.5570                 7.4029                 8.1126
 IR Inten    --      4.9842                 1.0650                 0.3086

 - Thermochemistry -
 -------------------
 Temperature   298.150 Kelvin.  Pressure   1.00000 Atm.
 Atom     1 has atomic number  6 and mass  12.00000

 Molecular mass:   204.09325 amu.
 Principal axes and moments of inertia in atomic units:
                           1         2         3
     Eigenvalues --  1787.257544109.658154463.61109
           X            0.99952   0.02909   0.01061
           Y           -0.02923   0.99948   0.01384
           Z           -0.01020  -0.01415   0.99985
 This molecule is an asymmetric top.
 Rotational symmetry number  1.
 Warning -- assumption of classical behavior for rotation
           may cause significant error
 Rotational temperatures (Kelvin)      0.04846     0.02108     0.01940
 Rotational constants (GHZ):           1.00978     0.43915     0.40432
 Zero-point vibrational energy     648783.8 (Joules/Mol)
                                  155.06304 (Kcal/Mol)
 Warning -- explicit consideration of  22 degrees of freedom as
           vibrations may cause significant error
 Vibrational temperatures:     38.81    61.77    74.04   143.38   195.63
          (Kelvin)            221.24   254.76   280.86   313.57   344.06
                              401.03   409.73   419.91   462.18   498.83
                              508.42   599.15   664.24   709.37   743.57
                              812.24   871.57   936.66   943.91  1040.66
                             1121.61  1239.56  1257.12  1270.69  1290.42
                             1335.72  1384.14  1409.91  1452.06  1489.87
                             1498.72  1540.86  1563.54  1593.61  1613.23
                             1657.53  1683.11  1740.91  1759.74  1833.34
                             1842.55  1848.72  1869.83  1913.39  1953.05
                             1963.81  1977.73  2021.21  2062.84  2073.35
                             2098.00  2125.52  2141.73  2154.46  2157.43
                             2195.77  2210.64  2229.50  2439.12  2598.59
                             4307.04  4376.67  4400.13  4411.44  4413.52
                             4417.46  4427.68  4470.42  4499.22  4509.62
                             4529.22  4532.80  4553.19  4564.45  4978.92
                             5107.22

 Zero-point correction=                           0.247109 (Hartree/Particle)
 Thermal correction to Energy=                    0.261744
 Thermal correction to Enthalpy=                  0.262688
 Thermal correction to Gibbs Free Energy=         0.204644
 Sum of electronic and zero-point Energies=           -972.391186
 Sum of electronic and thermal Energies=              -972.376550
 Sum of electronic and thermal Enthalpies=            -972.375606
 Sum of electronic and thermal Free Energies=         -972.433650

                     E (Thermal)             CV                S
                      KCal/Mol        Cal/Mol-Kelvin    Cal/Mol-Kelvin
 Total                  164.247             54.044            122.164
 Electronic               0.000              0.000              0.000
 Translational            0.889              2.981             41.845
 Rotational               0.889              2.981             31.861
 Vibrational            162.469             48.082             48.458
 Vibration     1          0.593              1.984              6.040
 Vibration     2          0.595              1.980              5.119
 Vibration     3          0.596              1.977              4.761
 Vibration     4          0.604              1.949              3.461
 Vibration     5          0.614              1.917              2.860
 Vibration     6          0.619              1.898              2.625
 Vibration     7          0.628              1.871              2.359
 Vibration     8          0.636              1.847              2.178
 Vibration     9          0.646              1.814              1.976
 Vibration    10          0.657              1.781              1.809
 Vibration    11          0.679              1.713              1.541
 Vibration    12          0.683              1.702              1.505
 Vibration    13          0.687              1.689              1.463
 Vibration    14          0.707              1.633              1.304
 Vibration    15          0.725              1.582              1.181
 Vibration    16          0.730              1.568              1.151
 Vibration    17          0.780              1.435              0.904
 Vibration    18          0.819              1.335              0.761
 Vibration    19          0.849              1.265              0.676
 Vibration    20          0.872              1.213              0.617
 Vibration    21          0.920              1.108              0.515
 Vibration    22          0.964              1.020              0.440

                           ! Non-Optimized Parameters !
 Normal termination of Gaussian 16 at Wed Dec  9 23:57:39 2020.

 ----------------------------------------------------------------------
 # B3LYP/6-311++G(d,p) empiricaldispersion=gd3bj scf=xqc pop=npa geom=c
 heck
 ----------------------------------------------------------------------

 ---------------------------------------
 CID_116199581_JID_3634_Energie_neutraal
 ---------------------------------------
 Structure from the checkpoint file:  "JID_3634.chk"
 Charge =  0 Multiplicity = 1

 SCF Done:  E(RB3LYP) =  -972.843887132     A.U. after   15 cycles
 Normal termination of Gaussian 16 at Thu Dec 10 00:00:37 2020.

 ----------------------------------------------------------------------
 # B3LYP/6-311++G(d,p) empiricaldispersion=gd3bj scf=xqc pop=npa geom=c
 heck
 ----------------------------------------------------------------------

 -------------------------------------
 CID_116199581_JID_3634_Energie_kation
 -------------------------------------
 Structure from the checkpoint file:  "JID_3634.chk"
 Charge =  1 Multiplicity = 2

 SCF Done:  E(UB3LYP) =  -972.538524900     A.U. after   30 cycles
 Normal termination of Gaussian 16 at Thu Dec 10 00:08:25 2020.
 Gaussian 16:  ES64L-G16RevA.03 25-Dec-2016

 ----------------------------------------------------------------------
 # B3LYP/6-311++G(d,p) empiricaldispersion=gd3bj scf=xqc pop=npa geom=c
 heck
 ----------------------------------------------------------------------

 ------------------------------------
 CID_116199581_JID_3634_Energie_anion
 ------------------------------------
 Structure from the checkpoint file:  "JID_3634.chk"
 Charge = -1 Multiplicity = 2

                         Standard orientation:
 ---------------------------------------------------------------------
 Center     Atomic      Atomic             Coordinates (Angstroms)
 Number     Number       Type             X           Y           Z
 ---------------------------------------------------------------------
      1          6           0        0.826720    1.298512    2.000090
      2          6           0        0.427100    1.381182    0.526874
      3          6           0        1.540448    0.970661   -0.450100
      4         16           0        2.017859   -0.816830   -0.307486
      5          8           0        2.391086   -1.305583   -1.689659
      6          6           0        3.583431   -0.547301    0.610644
      7          7           0       -0.797993    0.634999    0.252503
      8          6           0       -1.267101   -0.552746    0.957224
      9          6           0       -2.336122   -1.129555   -0.009809
     10          6           0       -2.864173    0.123915   -0.718614
     11          6           0       -1.675045    1.076894   -0.711815
     12          8           0       -1.500644    2.067206   -1.405483
     13          7           0       -3.388835   -1.946749    0.571324
     14          1           0        1.047413    0.272124    2.311776
     15          1           0        0.025162    1.679791    2.640014
     16          1           0        1.720528    1.905399    2.178107
     17          1           0        0.190947    2.422543    0.281325
     18          1           0        1.168004    1.055145   -1.474393
     19          1           0        2.425976    1.607013   -0.345975
     20          1           0        4.253780    0.057852   -0.006431
     21          1           0        3.378523   -0.051580    1.563454
     22          1           0        4.031815   -1.527753    0.786504
     23          1           0       -0.451991   -1.258266    1.139758
     24          1           0       -1.724911   -0.293737    1.925551
     25          1           0       -1.811373   -1.746937   -0.748695
     26          1           0       -3.682709    0.581047   -0.144145
     27          1           0       -3.230119   -0.053582   -1.731205
     28          1           0       -2.995308   -2.785611    0.994394
     29          1           0       -3.858782   -1.434283    1.317116
 ---------------------------------------------------------------------

 SCF Done:  E(UB3LYP) =  -972.839372632     A.U. after   31 cycles

 The electronic state is 2-A.
 Alpha  occ. eigenvalues --  -88.85410 -18.99993 -18.98849 -14.25064 -14.20758
 Alpha  occ. eigenvalues --  -10.17864 -10.13393 -10.12092 -10.11185 -10.10840
 Alpha  occ. eigenvalues --  -10.10542 -10.08849 -10.07715  -7.93127  -5.89396
 Alpha  occ. eigenvalues --   -5.89270  -5.88708  -0.95123  -0.91889  -0.86270
 Alpha  occ. eigenvalues --   -0.80291  -0.73133  -0.68580  -0.65234  -0.62637
 Alpha  occ. eigenvalues --   -0.61678  -0.54681  -0.51277  -0.51079  -0.44787
 Alpha  occ. eigenvalues --   -0.42970  -0.40577  -0.39462  -0.37957  -0.36625
 Alpha  occ. eigenvalues --   -0.36492  -0.35856  -0.34607  -0.33709  -0.33156
 Alpha  occ. eigenvalues --   -0.31778  -0.31287  -0.31256  -0.29855  -0.29610
 Alpha  occ. eigenvalues --   -0.28447  -0.27735  -0.26532  -0.26227  -0.24804
 Alpha  occ. eigenvalues --   -0.18054  -0.17167  -0.15939  -0.15504  -0.14033
 Alpha  occ. eigenvalues --    0.03732
 Alpha virt. eigenvalues --    0.05856   0.07106   0.08055   0.08399   0.08963
 Alpha virt. eigenvalues --    0.09469   0.10031   0.10411   0.10812   0.11053
 Alpha virt. eigenvalues --    0.11906   0.12254   0.12362   0.12639   0.12961

  Beta  occ. eigenvalues --  -88.85403 -18.99992 -18.98837 -14.25061 -14.20711
  Beta  occ. eigenvalues --  -10.17863 -10.13387 -10.12088 -10.11150 -10.10830
  Beta  occ. eigenvalues --  -10.10499 -10.08839 -10.07659  -7.93120  -5.89392
  Beta  occ. eigenvalues --   -5.89259  -5.88696  -0.95119  -0.91867  -0.86255
  Beta  occ. eigenvalues --   -0.80222  -0.73098  -0.68542  -0.65188  -0.62575
  Beta  occ. eigenvalues --   -0.61621  -0.54613  -0.51231  -0.51015  -0.44756
  Beta  occ. eigenvalues --   -0.42936  -0.40527  -0.39425  -0.37920  -0.36591
  Beta  occ. eigenvalues --   -0.36454  -0.35815  -0.34565  -0.33659  -0.33113
  Beta  occ. eigenvalues --   -0.31734  -0.31256  -0.31223  -0.29826  -0.29572
  Beta  occ. eigenvalues --   -0.28404  -0.27702  -0.26487  -0.26199  -0.24778
  Beta  occ. eigenvalues --   -0.18013  -0.17148  -0.15912  -0.15472  -0.13988
  Beta virt. eigenvalues --    0.06387   0.06958   0.07686   0.08552   0.08873
  Beta virt. eigenvalues --    0.09243   0.10094   0.10290   0.10585   0.11264
  Beta virt. eigenvalues --    0.11472   0.12056   0.12413   0.12573   0.12947

 Mulliken charges and spin densities:
               1          2
     1  C    1.491622  -2.176905
     2  C   -1.427413   1.567135
     3  C   -0.297338  -0.485129
     4  S    0.687302  -0.031294
     5  O   -0.441702   0.013723
     6  C    0.127402  -0.803309
     7  N    0.169625   0.019433
     8  C   -0.164433   0.003890
     9  C    1.216904  -1.770292
    10  C   -0.439847   0.062815
    11  C    0.359325  -0.250900
    12  O   -0.366812   0.007018
    13  N   -0.346255   0.071335
    14  H   -0.460007   0.646364
    15  H   -0.114316   0.290765
    16  H   -0.623243   0.798630
    17  H    0.055153   0.205432
    18  H    0.330624  -0.016926
    19  H    0.008442   0.156015
    20  H    0.016053   0.177638
    21  H   -0.230657   0.393817
    22  H   -0.184437   0.372608
    23  H   -0.025036   0.189271
    24  H   -0.401075   0.587330
    25  H    0.141995   0.044549
    26  H    0.040780   0.134427
    27  H    0.140368   0.043994
    28  H   -0.143017   0.387815
    29  H   -0.120006   0.360749
 Sum of Mulliken charges =  -1.00000   1.00000

 Dipole moment (field-independent basis, Debye):
    X=              0.1376    Y=              1.0239    Z=             -3.5682  Tot=              3.7147
 Quadrupole moment (field-independent basis, Debye-Ang):
   XX=           -148.6691   YY=           -130.2113   ZZ=           -142.8231
   XY=             -2.7863   XZ=              2.3075   YZ=             -0.3675

 Summary of Natural Population Analysis:

                                       Natural Population
                Natural  -----------------------------------------------
    Atom  No    Charge         Core      Valence    Rydberg      Total
 -----------------------------------------------------------------------
      C    1   -0.29385      0.99964     2.28776    0.00645     3.29385
      C    2   -0.01635      0.99958     2.00186    0.01491     3.01635
      C    3   -0.27458      0.99955     2.26360    0.01143     3.27458
      S    4    0.58269      4.99946     2.36492    0.05293     7.41731
      O    5   -0.48329      0.99993     3.47757    0.00579     4.48329
      C    6   -0.37824      0.99963     2.37057    0.00805     3.37824
      N    7   -0.26268      0.99962     2.75004    0.01302     3.76268
      C    8   -0.08988      0.99959     2.07672    0.01357     3.08988
      C    9   -0.01509      0.99960     2.00303    0.01245     3.01509
      C   10   -0.22975      0.99958     2.22120    0.00897     3.22975
      C   11    0.35022      0.99964     1.62683    0.02331     2.64978
      O   12   -0.32551      0.99987     3.32048    0.00515     4.32551
      N   13   -0.41776      0.99976     2.90776    0.01024     3.91776
      H   14    0.10210      0.00000     0.39518    0.00272     0.39790
      H   15    0.10935      0.00000     0.38910    0.00155     0.39065
      H   16    0.10659      0.00000     0.39163    0.00178     0.39341
      H   17    0.11359      0.00000     0.38453    0.00188     0.38641
      H   18    0.12229      0.00000     0.37677    0.00094     0.37771
      H   19    0.10602      0.00000     0.39266    0.00132     0.39398
      H   20    0.10756      0.00000     0.39123    0.00121     0.39244
      H   21    0.11289      0.00000     0.38418    0.00293     0.38711
      H   22    0.11033      0.00000     0.38829    0.00138     0.38967
      H   23    0.10137      0.00000     0.39530    0.00334     0.39863
      H   24    0.09384      0.00000     0.40293    0.00323     0.40616
      H   25    0.09285      0.00000     0.40519    0.00197     0.40715
      H   26    0.10913      0.00000     0.38980    0.00107     0.39087
      H   27    0.11152      0.00000     0.38762    0.00086     0.38848
      H   28    0.17913      0.00000     0.31874    0.00212     0.32087
      H   29    0.17551      0.00000     0.32166    0.00283     0.32449
 =======================================================================
   * Total *    0.00000     16.99547    37.78713    0.21740    55.00000

 Normal termination of Gaussian 16 at Thu Dec 10 00:16:28 2020.
