 Gaussian 16, Revision A.03,

 -----------------------------------------------------------
 # opt freq B3LYP/6-31G(d) empiricaldispersion=gd3bj scf=xqc
 -----------------------------------------------------------

 -------------------------------
 CID_103722476_JID_2527_neutraal
 -------------------------------
 Symbolic Z-matrix:
 Charge =  0 Multiplicity = 1

 SCF Done:  E(RB3LYP) =  -553.308685276     A.U. after   15 cycles
 SCF Done:  E(RB3LYP) =  -553.342175704     A.U. after   14 cycles
 SCF Done:  E(RB3LYP) =  -553.361793803     A.U. after   13 cycles
 SCF Done:  E(RB3LYP) =  -553.370192609     A.U. after   13 cycles
 SCF Done:  E(RB3LYP) =  -553.372573929     A.U. after   13 cycles
 SCF Done:  E(RB3LYP) =  -553.373483370     A.U. after   13 cycles
 SCF Done:  E(RB3LYP) =  -553.375318999     A.U. after   13 cycles
 SCF Done:  E(RB3LYP) =  -553.375755663     A.U. after   12 cycles
 SCF Done:  E(RB3LYP) =  -553.376316328     A.U. after   12 cycles
 SCF Done:  E(RB3LYP) =  -553.376758979     A.U. after   12 cycles
 SCF Done:  E(RB3LYP) =  -553.381707239     A.U. after   11 cycles
 SCF Done:  E(RB3LYP) =  -553.381708521     A.U. after    8 cycles
 SCF Done:  E(RB3LYP) =  -553.381709947     A.U. after    8 cycles
 SCF Done:  E(RB3LYP) =  -553.381711022     A.U. after    8 cycles
 SCF Done:  E(RB3LYP) =  -553.381711381     A.U. after    8 cycles
 Optimization completed.
    -- Stationary point found.
 Normal termination of Gaussian 16 at Wed Dec  9 17:41:38 2020.

 --------------------------------------------------------------------
 #N Geom=AllCheck Guess=TCheck SCRF=Check GenChk RB3LYP/6-31G(d) Freq
 --------------------------------------------------------------------

 Structure from the checkpoint file:  "JID_2527.chk"
 -------------------------------
 CID_103722476_JID_2527_neutraal
 -------------------------------
 Charge =  0 Multiplicity = 1

 SCF Done:  E(RB3LYP) =  -553.381711381     A.U. after    1 cycles

  Exact polarizability: 111.521   6.099  93.300   5.013   4.355  96.970
 Approx polarizability: 146.268  11.254 131.336  10.844  13.890 156.253

                      1                      2                      3
                      A                      A                      A
 Frequencies --     34.0783                44.1443                64.0152
 Red. masses --      4.4917                 6.0378                 4.9494
 Frc consts  --      0.0031                 0.0069                 0.0119
 IR Inten    --      1.3211                 1.8803                 4.1989

                      4                      5                      6
                      A                      A                      A
 Frequencies --     86.6213               125.8320               131.5186
 Red. masses --      3.4778                 3.6066                 3.6490
 Frc consts  --      0.0154                 0.0336                 0.0372
 IR Inten    --      3.6126                 3.2415                 3.9797

                      7                      8                      9
                      A                      A                      A
 Frequencies --    156.7017               209.4985               214.4009
 Red. masses --      3.3735                 1.1041                 1.6553
 Frc consts  --      0.0488                 0.0285                 0.0448
 IR Inten    --      4.4119                 0.5708                 1.3798

                     10                     11                     12
                      A                      A                      A
 Frequencies --    224.2130               240.5452               301.8334
 Red. masses --      1.5018                 1.7336                 2.6908
 Frc consts  --      0.0445                 0.0591                 0.1444
 IR Inten    --      0.1067                 0.4186                 0.6350

                     13                     14                     15
                      A                      A                      A
 Frequencies --    312.6041               341.3171               359.7800
 Red. masses --      1.5324                 5.1671                 4.5027
 Frc consts  --      0.0882                 0.3547                 0.3434
 IR Inten    --      1.2444                 5.2084                 3.8742

                     16                     17                     18
                      A                      A                      A
 Frequencies --    413.0906               431.9581               457.9818
 Red. masses --      2.0869                 1.8895                 3.0940
 Frc consts  --      0.2098                 0.2077                 0.3823
 IR Inten    --      0.7365                 3.0426                 6.9092

                     19                     20                     21
                      A                      A                      A
 Frequencies --    528.7578               575.8683               632.1095
 Red. masses --      3.8226                 1.4635                 4.6750
 Frc consts  --      0.6297                 0.2859                 1.1006
 IR Inten    --      9.6000                71.1258                12.5018

                     22                     23                     24
                      A                      A                      A
 Frequencies --    669.5461               701.1789               769.3800
 Red. masses --      3.0384                 3.8745                 3.9720
 Frc consts  --      0.8025                 1.1223                 1.3853
 IR Inten    --     22.0991                 1.0515                20.3694

                     25                     26                     27
                      A                      A                      A
 Frequencies --    839.1983               887.7873               909.9154
 Red. masses --      3.0793                 5.2904                 2.5257
 Frc consts  --      1.2777                 2.4567                 1.2321
 IR Inten    --      2.7819                24.0077                 2.5722

                     28                     29                     30
                      A                      A                      A
 Frequencies --    954.1142               990.3353              1032.4521
 Red. masses --      1.8809                 2.0132                 1.5829
 Frc consts  --      1.0088                 1.1633                 0.9942
 IR Inten    --      1.9896                19.6142                34.6009

                     31                     32                     33
                      A                      A                      A
 Frequencies --   1051.4848              1093.8518              1122.1252
 Red. masses --      1.8445                 2.0198                 2.1534
 Frc consts  --      1.2015                 1.4239                 1.5976
 IR Inten    --     71.4283                 9.7632                 7.1445

                     34                     35                     36
                      A                      A                      A
 Frequencies --   1145.1394              1159.6268              1170.2635
 Red. masses --      1.8836                 1.6334                 1.2547
 Frc consts  --      1.4553                 1.2942                 1.0124
 IR Inten    --     15.3254                10.2876                 6.0225

                     37                     38                     39
                      A                      A                      A
 Frequencies --   1194.0711              1213.6031              1244.4233
 Red. masses --      1.6878                 2.0953                 1.5142
 Frc consts  --      1.4178                 1.8182                 1.3816
 IR Inten    --      4.7526                 8.8610                15.6901

                     40                     41                     42
                      A                      A                      A
 Frequencies --   1321.9203              1348.5337              1362.6553
 Red. masses --      1.6497                 1.4602                 1.4588
 Frc consts  --      1.6985                 1.5646                 1.5960
 IR Inten    --      8.5941                 1.1755                 9.9735

                     43                     44                     45
                      A                      A                      A
 Frequencies --   1377.8861              1382.8700              1396.4889
 Red. masses --      1.2416                 1.7311                 1.5462
 Frc consts  --      1.3888                 1.9505                 1.7767
 IR Inten    --     22.1338                75.0438                23.3129

                     46                     47                     48
                      A                      A                      A
 Frequencies --   1418.4511              1444.4057              1485.6854
 Red. masses --      1.3306                 1.2757                 1.5465
 Frc consts  --      1.5774                 1.5681                 2.0112
 IR Inten    --     20.9419                12.1605                13.9468

                     49                     50                     51
                      A                      A                      A
 Frequencies --   1486.4871              1491.3138              1499.5688
 Red. masses --      1.1468                 1.1380                 1.1995
 Frc consts  --      1.4930                 1.4911                 1.5892
 IR Inten    --     11.9661                10.9009                 9.4035

                     52                     53                     54
                      A                      A                      A
 Frequencies --   1520.5687              1522.2807              1529.8711
 Red. masses --      1.0787                 1.0581                 1.0987
 Frc consts  --      1.4695                 1.4447                 1.5150
 IR Inten    --      7.4334                 9.3141                15.8518

                     55                     56                     57
                      A                      A                      A
 Frequencies --   1537.8501              1540.6631              1541.2790
 Red. masses --      1.0528                 1.0515                 1.0914
 Frc consts  --      1.4670                 1.4705                 1.5276
 IR Inten    --     11.5320                12.8146                14.4715

                     58                     59                     60
                      A                      A                      A
 Frequencies --   1566.9117              1766.1492              2356.3253
 Red. masses --      1.0539                 7.2298                12.5589
 Frc consts  --      1.5245                13.2871                41.0840
 IR Inten    --     11.3865               289.5561                 0.8013

                     61                     62                     63
                      A                      A                      A
 Frequencies --   2998.7705              3040.6503              3046.5572
 Red. masses --      1.0537                 1.0609                 1.0417
 Frc consts  --      5.5831                 5.7789                 5.6963
 IR Inten    --     46.3676                25.1725                50.7029

                     64                     65                     66
                      A                      A                      A
 Frequencies --   3058.6530              3065.7457              3073.3417
 Red. masses --      1.0417                 1.0601                 1.0816
 Frc consts  --      5.7417                 5.8703                 6.0192
 IR Inten    --     29.7399                11.9238                 8.8818

                     67                     68                     69
                      A                      A                      A
 Frequencies --   3090.3550              3094.9537              3110.0510
 Red. masses --      1.1044                 1.0860                 1.1043
 Frc consts  --      6.2143                 6.1291                 6.2934
 IR Inten    --     18.0747                23.3218                 8.0806

                     70                     71                     72
                      A                      A                      A
 Frequencies --   3115.7076              3118.7587              3148.3818
 Red. masses --      1.0965                 1.1001                 1.1015
 Frc consts  --      6.2716                 6.3043                 6.4329
 IR Inten    --     37.1819                18.6880                19.6251

                     73                     74                     75
                      A                      A                      A
 Frequencies --   3160.2996              3163.6775              3597.0402
 Red. masses --      1.1015                 1.0985                 1.0758
 Frc consts  --      6.4819                 6.4779                 8.2010
 IR Inten    --      7.9449                 9.1605                21.7917

 - Thermochemistry -
 -------------------
 Temperature   298.150 Kelvin.  Pressure   1.00000 Atm.
 Atom     1 has atomic number  6 and mass  12.00000

 Molecular mass:   169.12151 amu.
 Principal axes and moments of inertia in atomic units:
                           1         2         3
     Eigenvalues --  1166.765703435.320473459.48960
           X            0.99986   0.01273  -0.01043
           Y           -0.00081   0.67123   0.74124
           Z           -0.01643   0.74114  -0.67115
 This molecule is an asymmetric top.
 Rotational symmetry number  1.
 Warning -- assumption of classical behavior for rotation
           may cause significant error
 Rotational temperatures (Kelvin)      0.07423     0.02521     0.02504
 Rotational constants (GHZ):           1.54679     0.52535     0.52168
 Zero-point vibrational energy     614979.1 (Joules/Mol)
                                  146.98353 (Kcal/Mol)
 Warning -- explicit consideration of  20 degrees of freedom as
           vibrations may cause significant error
 Vibrational temperatures:     49.03    63.51    92.10   124.63   181.04
          (Kelvin)            189.23   225.46   301.42   308.48   322.59
                              346.09   434.27   449.77   491.08   517.64
                              594.35   621.49   658.93   760.76   828.55
                              909.46   963.33  1008.84  1106.97  1207.42
                             1277.33  1309.17  1372.76  1424.87  1485.47
                             1512.85  1573.81  1614.49  1647.60  1668.44
                             1683.75  1718.00  1746.10  1790.45  1901.95
                             1940.24  1960.56  1982.47  1989.64  2009.24
                             2040.83  2078.18  2137.57  2138.72  2145.67
                             2157.55  2187.76  2190.22  2201.14  2212.62
                             2216.67  2217.56  2254.44  2541.09  3390.23
                             4314.56  4374.82  4383.32  4400.72  4410.92
                             4421.85  4446.33  4452.95  4474.67  4482.81
                             4487.20  4529.82  4546.97  4551.83  5175.34

 Zero-point correction=                           0.234233 (Hartree/Particle)
 Thermal correction to Energy=                    0.248266
 Thermal correction to Enthalpy=                  0.249211
 Thermal correction to Gibbs Free Energy=         0.192778
 Sum of electronic and zero-point Energies=           -553.147478
 Sum of electronic and thermal Energies=              -553.133445
 Sum of electronic and thermal Enthalpies=            -553.132501
 Sum of electronic and thermal Free Energies=         -553.188934

                     E (Thermal)             CV                S
                      KCal/Mol        Cal/Mol-Kelvin    Cal/Mol-Kelvin
 Total                  155.790             49.752            118.773
 Electronic               0.000              0.000              0.000
 Translational            0.889              2.981             41.284
 Rotational               0.889              2.981             31.006
 Vibrational            154.012             43.790             46.483
 Vibration     1          0.594              1.983              5.577
 Vibration     2          0.595              1.980              5.064
 Vibration     3          0.597              1.971              4.329
 Vibration     4          0.601              1.959              3.735
 Vibration     5          0.611              1.927              3.009
 Vibration     6          0.612              1.922              2.924
 Vibration     7          0.620              1.895              2.589
 Vibration     8          0.642              1.826              2.048
 Vibration     9          0.644              1.819              2.006
 Vibration    10          0.649              1.804              1.925
 Vibration    11          0.658              1.778              1.799
 Vibration    12          0.694              1.670              1.407
 Vibration    13          0.701              1.650              1.349
 Vibration    14          0.721              1.593              1.206
 Vibration    15          0.734              1.555              1.123
 Vibration    16          0.777              1.442              0.916
 Vibration    17          0.793              1.401              0.852
 Vibration    18          0.816              1.343              0.772
 Vibration    19          0.884              1.186              0.590
 Vibration    20          0.932              1.083              0.493

                           ! Non-Optimized Parameters !
 Normal termination of Gaussian 16 at Wed Dec  9 17:48:13 2020.

 ----------------------------------------------------------------------
 # B3LYP/6-311++G(d,p) empiricaldispersion=gd3bj scf=xqc pop=npa geom=c
 heck
 ----------------------------------------------------------------------

 ---------------------------------------
 CID_103722476_JID_2527_Energie_neutraal
 ---------------------------------------
 Structure from the checkpoint file:  "JID_2527.chk"
 Charge =  0 Multiplicity = 1

 SCF Done:  E(RB3LYP) =  -553.546034887     A.U. after   14 cycles
 Normal termination of Gaussian 16 at Wed Dec  9 17:51:22 2020.

 ----------------------------------------------------------------------
 # B3LYP/6-311++G(d,p) empiricaldispersion=gd3bj scf=xqc pop=npa geom=c
 heck
 ----------------------------------------------------------------------

 -------------------------------------
 CID_103722476_JID_2527_Energie_kation
 -------------------------------------
 Structure from the checkpoint file:  "JID_2527.chk"
 Charge =  1 Multiplicity = 2

 SCF Done:  E(UB3LYP) =  -553.226360097     A.U. after   33 cycles
 SCF Done:  E(UB3LYP) =  -553.226360179     a.u. after    2 cycles
 Normal termination of Gaussian 16 at Wed Dec  9 18:06:51 2020.
 Gaussian 16:  ES64L-G16RevA.03 25-Dec-2016

 ----------------------------------------------------------------------
 # B3LYP/6-311++G(d,p) empiricaldispersion=gd3bj scf=xqc pop=npa geom=c
 heck
 ----------------------------------------------------------------------

 ------------------------------------
 CID_103722476_JID_2527_Energie_anion
 ------------------------------------
 Structure from the checkpoint file:  "JID_2527.chk"
 Charge = -1 Multiplicity = 2

                         Standard orientation:
 ---------------------------------------------------------------------
 Center     Atomic      Atomic             Coordinates (Angstroms)
 Number     Number       Type             X           Y           Z
 ---------------------------------------------------------------------
      1          6           0        1.191855   -1.573646    1.404803
      2          6           0        0.978352   -1.253685   -0.079836
      3          6           0       -0.489395   -0.896014   -0.389307
      4          7           0       -0.916010    0.375281    0.224273
      5          6           0       -0.911904    1.491773   -0.722797
      6          6           0       -2.168759    0.280869    0.955041
      7          6           0       -3.346271   -0.030562    0.104296
      8          7           0       -4.218479   -0.278880   -0.620457
      9          6           0        1.931970   -0.247933   -0.742506
     10          8           0        2.216294   -0.393019   -1.928831
     11          7           0        2.465060    0.798213   -0.038016
     12          6           0        2.113114    1.341621    1.266776
     13          1           0        0.754665   -0.816084    2.058780
     14          1           0        2.255071   -1.666087    1.649039
     15          1           0        0.713639   -2.531098    1.641242
     16          1           0        1.181185   -2.164157   -0.654622
     17          1           0       -0.635189   -0.869207   -1.477044
     18          1           0       -1.119466   -1.707201   -0.007665
     19          1           0       -1.678105    1.386051   -1.508633
     20          1           0       -1.090979    2.428391   -0.183843
     21          1           0        0.066255    1.554773   -1.202179
     22          1           0       -2.085150   -0.493423    1.724751
     23          1           0       -2.359036    1.230214    1.468832
     24          1           0        3.091057    1.346203   -0.614615
     25          1           0        2.662332    0.859228    2.084490
     26          1           0        2.365090    2.405658    1.270424
     27          1           0        1.040519    1.244053    1.442269
 ---------------------------------------------------------------------

 SCF Done:  E(UB3LYP) =  -553.539619822     A.U. after   28 cycles

 The electronic state is 2-A.
 Alpha  occ. eigenvalues --  -18.98792 -14.23874 -14.23222 -14.22352 -10.17450
 Alpha  occ. eigenvalues --  -10.14491 -10.11963 -10.11172 -10.09757 -10.09672
 Alpha  occ. eigenvalues --  -10.09165 -10.06654  -0.94029  -0.85413  -0.81929
 Alpha  occ. eigenvalues --   -0.81419  -0.70683  -0.65545  -0.61101  -0.60760
 Alpha  occ. eigenvalues --   -0.55890  -0.52366  -0.47186  -0.43154  -0.40849
 Alpha  occ. eigenvalues --   -0.39806  -0.39139  -0.38056  -0.35525  -0.34835
 Alpha  occ. eigenvalues --   -0.33320  -0.32386  -0.31829  -0.30380  -0.30138
 Alpha  occ. eigenvalues --   -0.29021  -0.28463  -0.28089  -0.26685  -0.25680
 Alpha  occ. eigenvalues --   -0.24955  -0.24205  -0.23700  -0.16313  -0.15496
 Alpha  occ. eigenvalues --   -0.14398   0.04007
 Alpha virt. eigenvalues --    0.06617   0.07215   0.08110   0.09080   0.09299
 Alpha virt. eigenvalues --    0.09992   0.10266   0.10597   0.11247   0.11729
 Alpha virt. eigenvalues --    0.11839   0.12699   0.12852   0.13375   0.14324

  Beta  occ. eigenvalues --  -18.98787 -14.23862 -14.23221 -14.22341 -10.17449
  Beta  occ. eigenvalues --  -10.14436 -10.11961 -10.11159 -10.09727 -10.09616
  Beta  occ. eigenvalues --  -10.09158 -10.06615  -0.94017  -0.85395  -0.81901
  Beta  occ. eigenvalues --   -0.81396  -0.70653  -0.65464  -0.61052  -0.60676
  Beta  occ. eigenvalues --   -0.55821  -0.52318  -0.47153  -0.43092  -0.40792
  Beta  occ. eigenvalues --   -0.39759  -0.39059  -0.38014  -0.35485  -0.34800
  Beta  occ. eigenvalues --   -0.33284  -0.32352  -0.31784  -0.30337  -0.30092
  Beta  occ. eigenvalues --   -0.28982  -0.28429  -0.28070  -0.26654  -0.25647
  Beta  occ. eigenvalues --   -0.24920  -0.24179  -0.23668  -0.16297  -0.15472
  Beta  occ. eigenvalues --   -0.14379
  Beta virt. eigenvalues --    0.06701   0.07690   0.08117   0.08664   0.09374
  Beta virt. eigenvalues --    0.09804   0.10354   0.10683   0.10955   0.11423
  Beta virt. eigenvalues --    0.11960   0.12161   0.13022   0.13264   0.13559

 Mulliken charges and spin densities:
               1          2
     1  C    1.093455  -1.754144
     2  C   -0.603984   1.060539
     3  C   -0.222788  -0.421954
     4  N   -0.012810   0.211947
     5  C   -0.028052  -0.446420
     6  C    0.729411  -0.782261
     7  C    0.224062  -0.261002
     8  N   -0.333568   0.013573
     9  C   -0.116041  -0.244699
    10  O   -0.318003   0.008218
    11  N   -0.480867   0.257326
    12  C    1.229866  -1.596779
    13  H   -0.212448   0.369092
    14  H   -0.154563   0.317081
    15  H   -0.122676   0.274116
    16  H    0.078639   0.155748
    17  H    0.199876  -0.013161
    18  H    0.044137   0.129260
    19  H    0.060472   0.072090
    20  H   -0.138720   0.314009
    21  H    0.170007   0.023677
    22  H   -0.392317   0.587966
    23  H   -0.555707   0.759633
    24  H    0.137867   0.169719
    25  H   -0.386275   0.545129
    26  H   -0.700233   0.858591
    27  H   -0.188740   0.392706
 Sum of Mulliken charges =  -1.00000   1.00000

 Dipole moment (field-independent basis, Debye):
    X=              0.6238    Y=             -2.4598    Z=             -3.3362  Tot=              4.1916
 Quadrupole moment (field-independent basis, Debye-Ang):
   XX=           -139.3265   YY=           -113.9706   ZZ=           -121.5757
   XY=             -3.5473   XZ=             -1.4287   YZ=             -6.9533

 Summary of Natural Population Analysis:

                                       Natural Population
                Natural  -----------------------------------------------
    Atom  No    Charge         Core      Valence    Rydberg      Total
 -----------------------------------------------------------------------
      C    1   -0.28948      0.99965     2.28373    0.00609     3.28948
      C    2   -0.15194      0.99954     2.14149    0.01091     3.15194
      C    3   -0.07775      0.99957     2.06700    0.01118     3.07775
      N    4   -0.28575      0.99973     2.76919    0.01682     3.78575
      C    5   -0.17979      0.99963     2.17164    0.00853     3.17979
      C    6   -0.13637      0.99952     2.12317    0.01368     3.13637
      C    7    0.15303      0.99965     1.83135    0.01597     2.84697
      N    8   -0.18758      0.99979     2.67640    0.01139     3.68758
      C    9    0.34569      0.99962     1.63022    0.02446     2.65431
      O   10   -0.33332      0.99988     3.32799    0.00545     4.33332
      N   11   -0.31701      0.99967     2.80638    0.01096     3.81701
      C   12   -0.18524      0.99963     2.17668    0.00893     3.18524
      H   13    0.10511      0.00000     0.39269    0.00220     0.39489
      H   14    0.10285      0.00000     0.39593    0.00123     0.39715
      H   15    0.10101      0.00000     0.39787    0.00112     0.39899
      H   16    0.11012      0.00000     0.38841    0.00147     0.38988
      H   17    0.09840      0.00000     0.40037    0.00123     0.40160
      H   18    0.09798      0.00000     0.40044    0.00158     0.40202
      H   19    0.08671      0.00000     0.41228    0.00100     0.41329
      H   20    0.10058      0.00000     0.39803    0.00139     0.39942
      H   21    0.10341      0.00000     0.39541    0.00118     0.39659
      H   22    0.12046      0.00000     0.37697    0.00257     0.37954
      H   23    0.12200      0.00000     0.37506    0.00294     0.37800
      H   24    0.19289      0.00000     0.30495    0.00215     0.30711
      H   25    0.09309      0.00000     0.40523    0.00168     0.40691
      H   26    0.10183      0.00000     0.39547    0.00270     0.39817
      H   27    0.10905      0.00000     0.38746    0.00349     0.39095
 =======================================================================
   * Total *   -0.00000     11.99589    33.83182    0.17229    46.00000

 Normal termination of Gaussian 16 at Wed Dec  9 18:14:35 2020.
