 Gaussian 16, Revision A.03,

 -----------------------------------------------------------
 # opt freq B3LYP/6-31G(d) empiricaldispersion=gd3bj scf=xqc
 -----------------------------------------------------------

 -------------------------------
 CID_143325886_JID_6033_neutraal
 -------------------------------
 Symbolic Z-matrix:
 Charge =  0 Multiplicity = 1

 SCF Done:  E(RB3LYP) =  -662.495571864     A.U. after   14 cycles
 SCF Done:  E(RB3LYP) =  -662.498224506     A.U. after   12 cycles
 SCF Done:  E(RB3LYP) =  -662.498799001     A.U. after   12 cycles
 SCF Done:  E(RB3LYP) =  -662.499082723     A.U. after   12 cycles
 SCF Done:  E(RB3LYP) =  -662.499216260     A.U. after   12 cycles
 SCF Done:  E(RB3LYP) =  -662.499276415     A.U. after   10 cycles
 SCF Done:  E(RB3LYP) =  -662.499316817     A.U. after   10 cycles
 SCF Done:  E(RB3LYP) =  -662.499326304     A.U. after   10 cycles
 SCF Done:  E(RB3LYP) =  -662.499333367     A.U. after    9 cycles
 SCF Done:  E(RB3LYP) =  -662.499335484     A.U. after   10 cycles
 SCF Done:  E(RB3LYP) =  -662.499336720     A.U. after    9 cycles
 SCF Done:  E(RB3LYP) =  -662.499337042     A.U. after    8 cycles
 SCF Done:  E(RB3LYP) =  -662.499337054     A.U. after    7 cycles
 SCF Done:  E(RB3LYP) =  -662.499337099     A.U. after    6 cycles
 Optimization completed.
    -- Stationary point found.
 Normal termination of Gaussian 16 at Thu Dec 10 21:10:44 2020.

 --------------------------------------------------------------------
 #N Geom=AllCheck Guess=TCheck SCRF=Check GenChk RB3LYP/6-31G(d) Freq
 --------------------------------------------------------------------

 Structure from the checkpoint file:  "JID_6033.chk"
 -------------------------------
 CID_143325886_JID_6033_neutraal
 -------------------------------
 Charge =  0 Multiplicity = 1

 SCF Done:  E(RB3LYP) =  -662.499337099     A.U. after    1 cycles

  Exact polarizability: 254.247 -10.647 131.147  34.717   9.723 156.129
 Approx polarizability: 344.614 -12.953 174.008  83.039  15.251 255.555

                      1                      2                      3
                      A                      A                      A
 Frequencies --     14.1810                23.6346                35.3137
 Red. masses --      3.8622                 3.4088                 3.2236
 Frc consts  --      0.0005                 0.0011                 0.0024
 IR Inten    --      0.0493                 0.0747                 0.0824

                      4                      5                      6
                      A                      A                      A
 Frequencies --     43.8765                69.9226                86.6002
 Red. masses --      3.5552                 3.2564                 3.0271
 Frc consts  --      0.0040                 0.0094                 0.0134
 IR Inten    --      0.8551                 0.0799                 0.1099

                      7                      8                      9
                      A                      A                      A
 Frequencies --     92.1537               112.4588               125.1126
 Red. masses --      2.4584                 3.0262                 2.4855
 Frc consts  --      0.0123                 0.0225                 0.0229
 IR Inten    --      0.2357                 0.6298                 0.0706

                     10                     11                     12
                      A                      A                      A
 Frequencies --    159.0301               168.6870               200.3838
 Red. masses --      2.8992                 2.7119                 1.3244
 Frc consts  --      0.0432                 0.0455                 0.0313
 IR Inten    --      0.2415                 0.0164                 0.1252

                     13                     14                     15
                      A                      A                      A
 Frequencies --    208.8189               225.2978               238.6936
 Red. masses --      1.1991                 2.4545                 1.2408
 Frc consts  --      0.0308                 0.0734                 0.0417
 IR Inten    --      0.6999                 0.5986                 0.0646

                     16                     17                     18
                      A                      A                      A
 Frequencies --    256.1986               301.6679               319.0533
 Red. masses --      2.6737                 2.8567                 2.0026
 Frc consts  --      0.1034                 0.1532                 0.1201
 IR Inten    --      1.8275                 1.7276                 0.2968

                     19                     20                     21
                      A                      A                      A
 Frequencies --    323.7670               349.6794               361.9870
 Red. masses --      2.4254                 2.5036                 2.4618
 Frc consts  --      0.1498                 0.1804                 0.1901
 IR Inten    --      1.3871                 1.2440                 3.4989

                     22                     23                     24
                      A                      A                      A
 Frequencies --    379.1059               426.6483               463.4648
 Red. masses --      2.0888                 2.6059                 2.6150
 Frc consts  --      0.1769                 0.2795                 0.3310
 IR Inten    --      1.3723                 6.8179                 0.4345

                     25                     26                     27
                      A                      A                      A
 Frequencies --    509.3196               513.6142               560.7672
 Red. masses --      2.2248                 2.6590                 2.3964
 Frc consts  --      0.3400                 0.4133                 0.4440
 IR Inten    --      3.0175                 0.8953                 1.7256

                     28                     29                     30
                      A                      A                      A
 Frequencies --    605.0090               654.7495               704.4680
 Red. masses --      2.3833                 2.3139                 1.2862
 Frc consts  --      0.5140                 0.5845                 0.3761
 IR Inten    --     19.6447                 5.9910                 0.2620

                     31                     32                     33
                      A                      A                      A
 Frequencies --    729.9851               747.3881               778.8611
 Red. masses --      1.8350                 3.8050                 1.3313
 Frc consts  --      0.5761                 1.2523                 0.4758
 IR Inten    --      1.5771                 2.1016                 3.4185

                     34                     35                     36
                      A                      A                      A
 Frequencies --    789.4893               798.6734               805.6437
 Red. masses --      1.2574                 1.6770                 1.4508
 Frc consts  --      0.4617                 0.6303                 0.5548
 IR Inten    --      5.2451                 2.8263                79.4110

                     37                     38                     39
                      A                      A                      A
 Frequencies --    829.1805               841.4916               849.7701
 Red. masses --      1.6660                 1.5852                 1.6418
 Frc consts  --      0.6749                 0.6614                 0.6985
 IR Inten    --     17.7041                 4.8409                 1.8603

                     40                     41                     42
                      A                      A                      A
 Frequencies --    865.8624               912.1443               922.8408
 Red. masses --      1.9567                 2.3929                 1.5609
 Frc consts  --      0.8643                 1.1730                 0.7832
 IR Inten    --      1.0565                 2.7188                 1.2943

                     43                     44                     45
                      A                      A                      A
 Frequencies --    932.0593               956.8424               976.7233
 Red. masses --      2.0856                 2.1610                 1.8526
 Frc consts  --      1.0675                 1.1657                 1.0413
 IR Inten    --      0.0986                 0.6198                 9.8930

                     46                     47                     48
                      A                      A                      A
 Frequencies --    986.7757              1005.5379              1011.5958
 Red. masses --      1.3165                 1.6120                 2.2370
 Frc consts  --      0.7553                 0.9603                 1.3487
 IR Inten    --      0.1321                 3.1064                14.4480

                     49                     50                     51
                      A                      A                      A
 Frequencies --   1026.6931              1047.5172              1064.2129
 Red. masses --      1.2005                 1.5997                 1.4924
 Frc consts  --      0.7456                 1.0342                 0.9958
 IR Inten    --      0.2912                 1.1219                 1.4434

                     52                     53                     54
                      A                      A                      A
 Frequencies --   1085.4201              1090.9162              1107.0101
 Red. masses --      2.3819                 2.5450                 1.9730
 Frc consts  --      1.6534                 1.7845                 1.4246
 IR Inten    --     21.1632                 8.2511                15.7948

                     55                     56                     57
                      A                      A                      A
 Frequencies --   1139.8677              1146.1829              1169.7568
 Red. masses --      2.1211                 2.1212                 2.1155
 Frc consts  --      1.6237                 1.6418                 1.7055
 IR Inten    --     52.4203                37.3108                 9.4937

                     58                     59                     60
                      A                      A                      A
 Frequencies --   1189.3678              1215.7834              1230.9351
 Red. masses --      1.9585                 1.7021                 1.3139
 Frc consts  --      1.6323                 1.4824                 1.1730
 IR Inten    --      7.3886                10.0051                 8.5362

                     61                     62                     63
                      A                      A                      A
 Frequencies --   1266.8527              1281.6388              1306.7080
 Red. masses --      1.2942                 1.3342                 1.2464
 Frc consts  --      1.2238                 1.2912                 1.2539
 IR Inten    --     19.8772                13.8095                 1.0549

                     64                     65                     66
                      A                      A                      A
 Frequencies --   1314.0359              1318.8687              1332.3853
 Red. masses --      1.3310                 1.2279                 1.1775
 Frc consts  --      1.3541                 1.2584                 1.2316
 IR Inten    --     29.7600                 3.9843                 3.1991

                     67                     68                     69
                      A                      A                      A
 Frequencies --   1336.6557              1362.2357              1370.1263
 Red. masses --      1.1111                 1.6959                 1.2353
 Frc consts  --      1.1696                 1.8541                 1.3662
 IR Inten    --      7.7222                83.6104                 1.3981

                     70                     71                     72
                      A                      A                      A
 Frequencies --   1381.4155              1395.9448              1400.3516
 Red. masses --      1.5129                 1.3616                 1.3077
 Frc consts  --      1.7010                 1.5633                 1.5109
 IR Inten    --      7.7637                 3.7087                15.9254

                     73                     74                     75
                      A                      A                      A
 Frequencies --   1408.2957              1421.1503              1427.5751
 Red. masses --      1.3583                 1.4537                 1.4181
 Frc consts  --      1.5872                 1.7298                 1.7027
 IR Inten    --      8.0425                 1.0602                 2.1828

                     76                     77                     78
                      A                      A                      A
 Frequencies --   1439.7072              1443.6777              1446.4628
 Red. masses --      1.2833                 1.2996                 1.2605
 Frc consts  --      1.5672                 1.5959                 1.5539
 IR Inten    --     23.8952                 1.4573                13.5271

                     79                     80                     81
                      A                      A                      A
 Frequencies --   1455.0682              1504.2099              1511.4862
 Red. masses --      1.4720                 1.4805                 1.0730
 Frc consts  --      1.8362                 1.9737                 1.4443
 IR Inten    --      8.4257                 3.5894                 1.1178

                     82                     83                     84
                      A                      A                      A
 Frequencies --   1516.2428              1518.6033              1529.1695
 Red. masses --      1.0449                 1.0730                 1.0818
 Frc consts  --      1.4153                 1.4579                 1.4904
 IR Inten    --     10.5282                 1.3292                 2.7429

                     85                     86                     87
                      A                      A                      A
 Frequencies --   1529.5770              1532.4445              1534.8487
 Red. masses --      1.0475                 1.0617                 1.0554
 Frc consts  --      1.4440                 1.4691                 1.4648
 IR Inten    --      0.6162                 3.9264                 1.4616

                     88                     89                     90
                      A                      A                      A
 Frequencies --   1536.5491              1540.1216              1542.8998
 Red. masses --      1.0547                 1.0595                 1.0821
 Frc consts  --      1.4671                 1.4806                 1.5178
 IR Inten    --      8.4043                 2.5423                 4.6639

                     91                     92                     93
                      A                      A                      A
 Frequencies --   1550.3160              1642.5123              1691.0822
 Red. masses --      1.0921                 4.9215                 5.2540
 Frc consts  --      1.5464                 7.8228                 8.8525
 IR Inten    --      8.2061                36.1854                35.5709

                     94                     95                     96
                      A                      A                      A
 Frequencies --   1706.3700              3024.5396              3029.3511
 Red. masses --      5.5580                 1.0673                 1.0626
 Frc consts  --      9.5349                 5.7524                 5.7456
 IR Inten    --     17.0102                18.2324                 9.6361

                     97                     98                     99
                      A                      A                      A
 Frequencies --   3036.9585              3039.9167              3041.0049
 Red. masses --      1.0647                 1.0709                 1.0597
 Frc consts  --      5.7857                 5.8310                 5.7737
 IR Inten    --     32.3696                 8.8568                29.1509

                    100                    101                    102
                      A                      A                      A
 Frequencies --   3046.5203              3052.7228              3052.9324
 Red. masses --      1.0401                 1.0391                 1.0643
 Frc consts  --      5.6875                 5.7053                 5.8446
 IR Inten    --     25.7414                24.1483                38.7918

                    103                    104                    105
                      A                      A                      A
 Frequencies --   3058.7442              3062.1167              3066.2856
 Red. masses --      1.1007                 1.0370                 1.0986
 Frc consts  --      6.0674                 5.7289                 6.0857
 IR Inten    --     31.1320                17.6680                36.9417

                    106                    107                    108
                      A                      A                      A
 Frequencies --   3072.9362              3080.4517              3110.3936
 Red. masses --      1.1008                 1.1005                 1.1019
 Frc consts  --      6.1247                 6.1528                 6.2807
 IR Inten    --     40.7169                73.8660                50.4096

                    109                    110                    111
                      A                      A                      A
 Frequencies --   3110.4237              3115.1478              3116.4207
 Red. masses --      1.1004                 1.1016                 1.1018
 Frc consts  --      6.2724                 6.2986                 6.3044
 IR Inten    --      8.0737                37.6052                67.1196

                    112                    113                    114
                      A                      A                      A
 Frequencies --   3120.3631              3129.9963              3150.1176
 Red. masses --      1.1020                 1.1015                 1.1027
 Frc consts  --      6.3221                 6.3577                 6.4473
 IR Inten    --     41.9187                29.7040                22.5901

                    115                    116                    117
                      A                      A                      A
 Frequencies --   3161.7552              3163.9778              3187.5034
 Red. masses --      1.0852                 1.0873                 1.0909
 Frc consts  --      6.3919                 6.4130                 6.5302
 IR Inten    --     15.5106                10.6590                17.6379

                    118                    119                    120
                      A                      A                      A
 Frequencies --   3210.0051              3245.7129              3289.2556
 Red. masses --      1.0600                 1.0900                 1.1160
 Frc consts  --      6.4354                 6.7655                 7.1137
 IR Inten    --      0.8034                 7.7541                10.4270

 - Thermochemistry -
 -------------------
 Temperature   298.150 Kelvin.  Pressure   1.00000 Atm.
 Atom     1 has atomic number  6 and mass  12.00000

 Molecular mass:   222.19837 amu.
 Principal axes and moments of inertia in atomic units:
                           1         2         3
     Eigenvalues --  2105.215759553.59485**********
           X            0.99997  -0.00695  -0.00185
           Y            0.00696   0.99996   0.00516
           Z            0.00181  -0.00518   0.99998
 This molecule is an asymmetric top.
 Rotational symmetry number  1.
 Warning -- assumption of classical behavior for rotation
           may cause significant error
 Rotational temperatures (Kelvin)      0.04114     0.00907     0.00849
 Rotational constants (GHZ):           0.85727     0.18891     0.17680
 Zero-point vibrational energy    1005218.1 (Joules/Mol)
                                  240.25288 (Kcal/Mol)
 Warning -- explicit consideration of  28 degrees of freedom as
           vibrations may cause significant error
 Vibrational temperatures:     20.40    34.00    50.81    63.13   100.60
          (Kelvin)            124.60   132.59   161.80   180.01   228.81
                              242.70   288.31   300.44   324.15   343.43
                              368.61   434.03   459.05   465.83   503.11
                              520.82   545.45   613.85   666.82   732.80
                              738.98   806.82   870.47   942.04  1013.57
                             1050.29  1075.32  1120.61  1135.90  1149.11
                             1159.14  1193.01  1210.72  1222.63  1245.78
                             1312.37  1327.76  1341.03  1376.68  1405.29
                             1419.75  1446.74  1455.46  1477.18  1507.14
                             1531.17  1561.68  1569.59  1592.74  1640.02
                             1649.10  1683.02  1711.23  1749.24  1771.04
                             1822.72  1843.99  1880.06  1890.60  1897.56
                             1917.01  1923.15  1959.95  1971.31  1987.55
                             2008.45  2014.79  2026.22  2044.72  2053.96
                             2071.42  2077.13  2081.14  2093.52  2164.22
                             2174.69  2181.54  2184.93  2200.13  2200.72
                             2204.85  2208.30  2210.75  2215.89  2219.89
                             2230.56  2363.21  2433.09  2455.09  4351.64
                             4358.56  4369.51  4373.76  4375.33  4383.26
                             4392.19  4392.49  4400.85  4405.70  4411.70
                             4421.27  4432.08  4475.16  4475.21  4482.00
                             4483.83  4489.51  4503.37  4532.32  4549.06
                             4552.26  4586.11  4618.48  4669.86  4732.51

 Zero-point correction=                           0.382867 (Hartree/Particle)
 Thermal correction to Energy=                    0.402191
 Thermal correction to Enthalpy=                  0.403135
 Thermal correction to Gibbs Free Energy=         0.332638
 Sum of electronic and zero-point Energies=           -662.116470
 Sum of electronic and thermal Energies=              -662.097146
 Sum of electronic and thermal Enthalpies=            -662.096202
 Sum of electronic and thermal Free Energies=         -662.166699

                     E (Thermal)             CV                S
                      KCal/Mol        Cal/Mol-Kelvin    Cal/Mol-Kelvin
 Total                  252.379             71.228            148.373
 Electronic               0.000              0.000              0.000
 Translational            0.889              2.981             42.098
 Rotational               0.889              2.981             33.684
 Vibrational            250.601             65.266             72.591
 Vibration     1          0.593              1.986              7.317
 Vibration     2          0.593              1.985              6.303
 Vibration     3          0.594              1.982              5.506
 Vibration     4          0.595              1.980              5.076
 Vibration     5          0.598              1.968              4.156
 Vibration     6          0.601              1.959              3.735
 Vibration     7          0.602              1.955              3.614
 Vibration     8          0.607              1.939              3.226
 Vibration     9          0.610              1.928              3.020
 Vibration    10          0.621              1.892              2.561
 Vibration    11          0.625              1.881              2.450
 Vibration    12          0.638              1.839              2.130
 Vibration    13          0.642              1.827              2.054
 Vibration    14          0.650              1.803              1.916
 Vibration    15          0.657              1.781              1.813
 Vibration    16          0.666              1.752              1.688
 Vibration    17          0.694              1.671              1.408
 Vibration    18          0.705              1.637              1.315
 Vibration    19          0.708              1.628              1.291
 Vibration    20          0.727              1.576              1.168
 Vibration    21          0.736              1.551              1.114
 Vibration    22          0.749              1.515              1.043
 Vibration    23          0.788              1.412              0.870
 Vibration    24          0.821              1.331              0.756
 Vibration    25          0.864              1.229              0.635
 Vibration    26          0.869              1.220              0.625
 Vibration    27          0.916              1.116              0.522
 Vibration    28          0.964              1.021              0.441

 Optimization completed.
    -- Stationary point found.
 Normal termination of Gaussian 16 at Thu Dec 10 21:23:17 2020.

 ----------------------------------------------------------------------
 # B3LYP/6-311++G(d,p) empiricaldispersion=gd3bj scf=xqc pop=npa geom=c
 heck
 ----------------------------------------------------------------------

 ---------------------------------------
 CID_143325886_JID_6033_Energie_neutraal
 ---------------------------------------
 Structure from the checkpoint file:  "JID_6033.chk"
 Charge =  0 Multiplicity = 1

 SCF Done:  E(RB3LYP) =  -662.685925828     A.U. after   15 cycles
 Normal termination of Gaussian 16 at Thu Dec 10 21:30:12 2020.

 ----------------------------------------------------------------------
 # B3LYP/6-311++G(d,p) empiricaldispersion=gd3bj scf=xqc pop=npa geom=c
 heck
 ----------------------------------------------------------------------

 -------------------------------------
 CID_143325886_JID_6033_Energie_kation
 -------------------------------------
 Structure from the checkpoint file:  "JID_6033.chk"
 Charge =  1 Multiplicity = 2

 SCF Done:  E(UB3LYP) =  -662.417686678     A.U. after   20 cycles
 Normal termination of Gaussian 16 at Thu Dec 10 21:43:47 2020.
 Gaussian 16:  ES64L-G16RevA.03 25-Dec-2016

 ----------------------------------------------------------------------
 # B3LYP/6-311++G(d,p) empiricaldispersion=gd3bj scf=xqc pop=npa geom=c
 heck
 ----------------------------------------------------------------------

 ------------------------------------
 CID_143325886_JID_6033_Energie_anion
 ------------------------------------
 Structure from the checkpoint file:  "JID_6033.chk"
 Charge = -1 Multiplicity = 2

                         Standard orientation:
 ---------------------------------------------------------------------
 Center     Atomic      Atomic             Coordinates (Angstroms)
 Number     Number       Type             X           Y           Z
 ---------------------------------------------------------------------
      1          6           0        2.762130    2.652092   -1.171540
      2          6           0        3.627000    2.102547   -0.032943
      3          6           0        2.956629    0.976405    0.767262
      4          6           0        2.561638   -0.270047   -0.044645
      5          6           0        3.733967   -0.890543   -0.830003
      6          6           0        4.933479   -1.332959    0.014981
      7          6           0        1.870625   -1.321678    0.861288
      8          6           0        0.604574   -0.817459    1.503168
      9          6           0       -0.615215   -0.760297    0.928894
     10          6           0       -0.903353   -1.218847   -0.417417
     11          6           0       -2.062774   -1.162764   -1.115217
     12          6           0       -3.368690   -0.623948   -0.743809
     13          6           0       -4.394527   -0.643433   -1.621625
     14          8           0       -3.430903   -0.134309    0.529842
     15          6           0       -4.642892    0.466648    0.988038
     16          6           0       -4.802605    1.897514    0.488565
     17          1           0        2.579652    1.896579   -1.943636
     18          1           0        3.243544    3.509000   -1.655915
     19          1           0        1.785150    2.982333   -0.797746
     20          1           0        4.587484    1.756876   -0.437081
     21          1           0        3.869744    2.919373    0.659539
     22          1           0        3.620810    0.676229    1.589731
     23          1           0        2.049693    1.375750    1.240092
     24          1           0        1.808991    0.037436   -0.783051
     25          1           0        3.352197   -1.754793   -1.390987
     26          1           0        4.076798   -0.172169   -1.585445
     27          1           0        4.650034   -2.080579    0.763946
     28          1           0        5.708150   -1.779783   -0.617975
     29          1           0        5.388143   -0.488792    0.544839
     30          1           0        1.663757   -2.214225    0.257083
     31          1           0        2.568313   -1.637134    1.646544
     32          1           0        0.698263   -0.430136    2.516223
     33          1           0       -1.440770   -0.346294    1.493977
     34          1           0       -0.067151   -1.668825   -0.948975
     35          1           0       -2.049444   -1.569522   -2.123164
     36          1           0       -5.378214   -0.247935   -1.407927
     37          1           0       -4.243138   -1.077263   -2.602128
     38          1           0       -5.498545   -0.161036    0.709655
     39          1           0       -4.559537    0.449593    2.078346
     40          1           0       -4.856842    1.936134   -0.602589
     41          1           0       -5.718616    2.339057    0.897330
     42          1           0       -3.951157    2.505205    0.810586
 ---------------------------------------------------------------------

 SCF Done:  E(UB3LYP) =  -662.681675784     A.U. after   33 cycles
 SCF Done:  E(UB3LYP) =  -662.681675783     a.u. after    1 cycles

 The electronic state is 2-A.
 Alpha  occ. eigenvalues --  -19.02517 -10.11821 -10.09366 -10.07105 -10.06729
 Alpha  occ. eigenvalues --  -10.06395 -10.06259 -10.06159 -10.05908 -10.05607
 Alpha  occ. eigenvalues --  -10.04537 -10.01897 -10.01859 -10.01788 -10.01762
 Alpha  occ. eigenvalues --  -10.01231  -0.94133  -0.71910  -0.68119  -0.67261
 Alpha  occ. eigenvalues --   -0.65738  -0.63569  -0.61586  -0.58942  -0.56399
 Alpha  occ. eigenvalues --   -0.53749  -0.53140  -0.49852  -0.47056  -0.43698
 Alpha  occ. eigenvalues --   -0.42662  -0.40480  -0.37933  -0.36845  -0.36638
 Alpha  occ. eigenvalues --   -0.35032  -0.33991  -0.33632  -0.33212  -0.32774
 Alpha  occ. eigenvalues --   -0.31008  -0.30132  -0.29399  -0.28843  -0.28238
 Alpha  occ. eigenvalues --   -0.27636  -0.27192  -0.26423  -0.25882  -0.25377
 Alpha  occ. eigenvalues --   -0.24277  -0.23816  -0.23695  -0.23254  -0.21729
 Alpha  occ. eigenvalues --   -0.21445  -0.20886  -0.19963  -0.17816  -0.17025
 Alpha  occ. eigenvalues --   -0.12403  -0.07551   0.04726
 Alpha virt. eigenvalues --    0.06079   0.06889   0.07282   0.07989   0.09168
 Alpha virt. eigenvalues --    0.09378   0.09593   0.09984   0.10349   0.10480
 Alpha virt. eigenvalues --    0.11052   0.11412   0.11917   0.12542   0.12825

  Beta  occ. eigenvalues --  -19.02520 -10.11821 -10.09319 -10.07099 -10.06728
  Beta  occ. eigenvalues --  -10.06389 -10.06240 -10.06130 -10.05881 -10.05592
  Beta  occ. eigenvalues --  -10.04558 -10.01870 -10.01695 -10.01583 -10.01464
  Beta  occ. eigenvalues --  -10.01018  -0.94112  -0.71850  -0.67846  -0.67198
  Beta  occ. eigenvalues --   -0.65514  -0.63334  -0.61403  -0.58693  -0.56259
  Beta  occ. eigenvalues --   -0.53614  -0.53063  -0.49809  -0.46494  -0.43586
  Beta  occ. eigenvalues --   -0.42549  -0.40295  -0.37891  -0.36774  -0.36480
  Beta  occ. eigenvalues --   -0.34957  -0.33903  -0.33572  -0.33192  -0.32673
  Beta  occ. eigenvalues --   -0.30918  -0.30031  -0.29316  -0.28821  -0.28148
  Beta  occ. eigenvalues --   -0.27530  -0.27123  -0.26325  -0.25851  -0.25334
  Beta  occ. eigenvalues --   -0.24174  -0.23577  -0.23407  -0.23186  -0.21619
  Beta  occ. eigenvalues --   -0.21312  -0.20813  -0.19901  -0.17680  -0.16105
  Beta  occ. eigenvalues --   -0.11432  -0.05953
  Beta virt. eigenvalues --    0.06291   0.07007   0.07380   0.07980   0.09006
  Beta virt. eigenvalues --    0.09224   0.09358   0.09893   0.09947   0.10434
  Beta virt. eigenvalues --    0.10633   0.10953   0.11380   0.11976   0.12581

 Mulliken charges and spin densities:
               1          2
     1  C   -0.578682  -0.004770
     2  C   -0.247618  -0.118972
     3  C   -0.389896  -0.117653
     4  C    0.629302   0.047684
     5  C   -0.670537   0.327392
     6  C    0.123228  -0.743695
     7  C   -0.093762  -0.217885
     8  C   -0.127308   0.293934
     9  C   -0.247267  -0.015685
    10  C   -0.425621   0.159827
    11  C   -0.241152   0.035207
    12  C    0.608221   0.010434
    13  C   -0.931577   0.204097
    14  O   -0.067521   0.001114
    15  C   -0.427762   0.202354
    16  C    0.176280  -0.554990
    17  H    0.146157   0.005195
    18  H    0.091878   0.032477
    19  H    0.145289  -0.006091
    20  H    0.105496   0.021503
    21  H    0.040582   0.102531
    22  H    0.043276   0.097684
    23  H    0.213464  -0.036255
    24  H    0.153112  -0.000687
    25  H    0.084053   0.051434
    26  H    0.109425   0.017157
    27  H   -0.015692   0.170176
    28  H   -0.143551   0.272027
    29  H   -0.043017   0.177319
    30  H    0.052618   0.101994
    31  H    0.149971  -0.025772
    32  H    0.108199  -0.001183
    33  H    0.183950  -0.000325
    34  H    0.057429  -0.012636
    35  H    0.125723  -0.010224
    36  H    0.081744   0.002155
    37  H    0.110582  -0.008013
    38  H    0.143226  -0.033333
    39  H    0.067897   0.074368
    40  H   -0.043363   0.190888
    41  H   -0.175573   0.283233
    42  H    0.118799   0.025987
 Sum of Mulliken charges =  -1.00000   1.00000

 Dipole moment (field-independent basis, Debye):
    X=              2.6387    Y=              2.0834    Z=              0.3575  Tot=              3.3809
 Quadrupole moment (field-independent basis, Debye-Ang):
   XX=           -187.4086   YY=           -132.0753   ZZ=           -121.1643
   XY=              6.6493   XZ=             -8.9478   YZ=              0.8105

 Summary of Natural Population Analysis:

                                       Natural Population
                Natural  -----------------------------------------------
    Atom  No    Charge         Core      Valence    Rydberg      Total
 -----------------------------------------------------------------------
      C    1   -0.28706      0.99967     2.28325    0.00414     3.28706
      C    2   -0.19189      0.99964     2.18367    0.00858     3.19189
      C    3   -0.19387      0.99961     2.18352    0.01073     3.19387
      C    4   -0.10519      0.99959     2.09602    0.00959     3.10519
      C    5   -0.19028      0.99962     2.18099    0.00967     3.19028
      C    6   -0.29042      0.99967     2.28538    0.00538     3.29042
      C    7   -0.21377      0.99961     2.20236    0.01180     3.21377
      C    8   -0.03132      0.99956     2.02269    0.00907     3.03132
      C    9   -0.12301      0.99951     2.11458    0.00891     3.12301
      C   10   -0.07437      0.99954     2.06464    0.01019     3.07437
      C   11   -0.08201      0.99952     2.07369    0.00880     3.08201
      C   12    0.15792      0.99939     1.82934    0.01335     2.84208
      C   13   -0.22930      0.99956     2.22217    0.00757     3.22930
      O   14   -0.28530      0.99986     3.27468    0.01077     4.28530
      C   15   -0.01140      0.99959     1.99953    0.01228     3.01140
      C   16   -0.30239      0.99966     2.29771    0.00502     3.30239
      H   17    0.09737      0.00000     0.40169    0.00095     0.40263
      H   18    0.09320      0.00000     0.40593    0.00087     0.40680
      H   19    0.09872      0.00000     0.40044    0.00084     0.40128
      H   20    0.09106      0.00000     0.40783    0.00111     0.40894
      H   21    0.09237      0.00000     0.40664    0.00099     0.40763
      H   22    0.09429      0.00000     0.40476    0.00094     0.40571
      H   23    0.10504      0.00000     0.39397    0.00099     0.39496
      H   24    0.10034      0.00000     0.39774    0.00192     0.39966
      H   25    0.09589      0.00000     0.40316    0.00095     0.40411
      H   26    0.09197      0.00000     0.40703    0.00100     0.40803
      H   27    0.09795      0.00000     0.40112    0.00093     0.40205
      H   28    0.09598      0.00000     0.40320    0.00082     0.40402
      H   29    0.09526      0.00000     0.40385    0.00088     0.40474
      H   30    0.10104      0.00000     0.39772    0.00123     0.39896
      H   31    0.09488      0.00000     0.40398    0.00115     0.40512
      H   32    0.08180      0.00000     0.41730    0.00090     0.41820
      H   33    0.10381      0.00000     0.39492    0.00127     0.39619
      H   34    0.08494      0.00000     0.41364    0.00142     0.41506
      H   35    0.08681      0.00000     0.41189    0.00130     0.41319
      H   36    0.08637      0.00000     0.41272    0.00091     0.41363
      H   37    0.09339      0.00000     0.40586    0.00075     0.40661
      H   38    0.08253      0.00000     0.41618    0.00129     0.41747
      H   39    0.08581      0.00000     0.41320    0.00099     0.41419
      H   40    0.10737      0.00000     0.39160    0.00103     0.39263
      H   41    0.09534      0.00000     0.40343    0.00123     0.40466
      H   42    0.10017      0.00000     0.39885    0.00099     0.39983
 =======================================================================
   * Total *   -0.00000     15.99361    45.83288    0.17352    62.00000

 Normal termination of Gaussian 16 at Thu Dec 10 22:08:48 2020.
