 Gaussian 16, Revision A.03,

 -----------------------------------------------------------
 # opt freq B3LYP/6-31G(d) empiricaldispersion=gd3bj scf=xqc
 -----------------------------------------------------------

 -------------------------------
 CID_103572120_JID_6025_neutraal
 -------------------------------
 Symbolic Z-matrix:
 Charge =  0 Multiplicity = 1

 SCF Done:  E(RB3LYP) =  -745.350031597     A.U. after   14 cycles
 SCF Done:  E(RB3LYP) =  -745.355170219     A.U. after   12 cycles
 SCF Done:  E(RB3LYP) =  -745.356391771     A.U. after   12 cycles
 SCF Done:  E(RB3LYP) =  -745.356461435     A.U. after   13 cycles
 SCF Done:  E(RB3LYP) =  -745.357196841     A.U. after   13 cycles
 SCF Done:  E(RB3LYP) =  -745.357559265     A.U. after   11 cycles
 SCF Done:  E(RB3LYP) =  -745.357669704     A.U. after   11 cycles
 SCF Done:  E(RB3LYP) =  -745.357683585     A.U. after   10 cycles
 SCF Done:  E(RB3LYP) =  -745.357700277     A.U. after   10 cycles
 SCF Done:  E(RB3LYP) =  -745.357711215     A.U. after   10 cycles
 SCF Done:  E(RB3LYP) =  -745.357721940     A.U. after   10 cycles
 SCF Done:  E(RB3LYP) =  -745.357725433     A.U. after    9 cycles
 SCF Done:  E(RB3LYP) =  -745.357726293     A.U. after    8 cycles
 SCF Done:  E(RB3LYP) =  -745.357726399     A.U. after    7 cycles
 SCF Done:  E(RB3LYP) =  -745.357726422     A.U. after    6 cycles
 Optimization completed.
    -- Stationary point found.
 Normal termination of Gaussian 16 at Thu Dec 10 21:10:43 2020.

 --------------------------------------------------------------------
 #N Geom=AllCheck Guess=TCheck SCRF=Check GenChk RB3LYP/6-31G(d) Freq
 --------------------------------------------------------------------

 Structure from the checkpoint file:  "JID_6025.chk"
 -------------------------------
 CID_103572120_JID_6025_neutraal
 -------------------------------
 Charge =  0 Multiplicity = 1

 SCF Done:  E(RB3LYP) =  -745.357726422     A.U. after    1 cycles

  Exact polarizability: 173.990  -1.297 121.394   0.443  -4.177 120.952
 Approx polarizability: 215.136  -5.708 163.616   3.472 -11.458 208.478

                      1                      2                      3
                      A                      A                      A
 Frequencies --     17.2920                27.2669                45.9928
 Red. masses --      3.7770                 3.5447                 4.3425
 Frc consts  --      0.0007                 0.0016                 0.0054
 IR Inten    --      0.4462                 0.8262                 0.8175

                      4                      5                      6
                      A                      A                      A
 Frequencies --     60.2597                63.1926                87.4711
 Red. masses --      2.9171                 3.1988                 3.9469
 Frc consts  --      0.0062                 0.0075                 0.0178
 IR Inten    --      1.4519                 0.7289                 0.0991

                      7                      8                      9
                      A                      A                      A
 Frequencies --    110.8036               123.6274               138.5645
 Red. masses --      2.0141                 2.6383                 1.6601
 Frc consts  --      0.0146                 0.0238                 0.0188
 IR Inten    --      0.2335                 1.1435                 1.4030

                     10                     11                     12
                      A                      A                      A
 Frequencies --    145.6095               182.4092               216.7359
 Red. masses --      1.8076                 3.0676                 4.5072
 Frc consts  --      0.0226                 0.0601                 0.1247
 IR Inten    --      0.0750                 0.5974                 5.0331

                     13                     14                     15
                      A                      A                      A
 Frequencies --    237.2585               246.3739               263.6857
 Red. masses --      2.9933                 1.5168                 1.8821
 Frc consts  --      0.0993                 0.0542                 0.0771
 IR Inten    --      2.0499                 0.3922                 0.5068

                     16                     17                     18
                      A                      A                      A
 Frequencies --    289.7778               310.5798               321.4605
 Red. masses --      2.1152                 3.5452                 1.7249
 Frc consts  --      0.1046                 0.2015                 0.1050
 IR Inten    --      1.2472                 6.8264                 8.8808

                     19                     20                     21
                      A                      A                      A
 Frequencies --    356.7762               411.8001               429.7778
 Red. masses --      4.4719                 2.4724                 3.3744
 Frc consts  --      0.3354                 0.2470                 0.3672
 IR Inten    --     13.3929                 3.3671                 6.7177

                     22                     23                     24
                      A                      A                      A
 Frequencies --    475.7510               502.4571               642.4802
 Red. masses --      2.9897                 2.8639                 3.4319
 Frc consts  --      0.3987                 0.4260                 0.8346
 IR Inten    --      1.5539                 1.8835                 9.8706

                     25                     26                     27
                      A                      A                      A
 Frequencies --    658.1150               688.6372               705.5767
 Red. masses --      5.1279                 2.9173                 2.7203
 Frc consts  --      1.3085                 0.8151                 0.7979
 IR Inten    --      0.4058                 5.5185                41.8506

                     28                     29                     30
                      A                      A                      A
 Frequencies --    727.0578               782.7038               789.1638
 Red. masses --      2.9003                 1.6434                 1.3563
 Frc consts  --      0.9033                 0.5932                 0.4977
 IR Inten    --      6.0341                52.5467                17.5387

                     31                     32                     33
                      A                      A                      A
 Frequencies --    807.2771               819.4404               858.6180
 Red. masses --      1.9586                 1.5116                 3.7012
 Frc consts  --      0.7520                 0.5980                 1.6077
 IR Inten    --     45.9612                26.5629                 0.9426

                     34                     35                     36
                      A                      A                      A
 Frequencies --    880.9821               887.0555               908.4469
 Red. masses --      2.3409                 1.4586                 2.2412
 Frc consts  --      1.0704                 0.6762                 1.0897
 IR Inten    --      1.4695                 8.7618                 3.6068

                     37                     38                     39
                      A                      A                      A
 Frequencies --    916.6081               934.9392              1004.8740
 Red. masses --      1.3452                 3.4289                 3.7930
 Frc consts  --      0.6659                 1.7659                 2.2566
 IR Inten    --      4.2055                31.9893                37.6554

                     40                     41                     42
                      A                      A                      A
 Frequencies --   1014.5773              1044.9041              1049.5379
 Red. masses --      3.6952                 2.9360                 2.1523
 Frc consts  --      2.2411                 1.8887                 1.3969
 IR Inten    --     12.4848                26.0541                14.7246

                     43                     44                     45
                      A                      A                      A
 Frequencies --   1055.0843              1102.9977              1115.3607
 Red. masses --      2.8051                 2.1772                 1.8346
 Frc consts  --      1.8398                 1.5606                 1.3447
 IR Inten    --      3.1151                 7.6565                 9.8417

                     46                     47                     48
                      A                      A                      A
 Frequencies --   1127.2526              1169.8314              1179.9306
 Red. masses --      1.7667                 2.6435                 1.5446
 Frc consts  --      1.3227                 2.1315                 1.2670
 IR Inten    --      5.2400                53.0275                18.2142

                     49                     50                     51
                      A                      A                      A
 Frequencies --   1185.5092              1197.0781              1209.1188
 Red. masses --      1.2832                 2.2835                 1.9724
 Frc consts  --      1.0626                 1.9279                 1.6989
 IR Inten    --      0.7216                78.2006                76.7523

                     52                     53                     54
                      A                      A                      A
 Frequencies --   1222.6798              1235.3995              1258.4152
 Red. masses --      1.6427                 1.8933                 1.7033
 Frc consts  --      1.4468                 1.7024                 1.5892
 IR Inten    --     37.7258               119.0404                 4.0956

                     55                     56                     57
                      A                      A                      A
 Frequencies --   1305.0895              1317.0035              1334.7261
 Red. masses --      1.4845                 1.1986                 1.7382
 Frc consts  --      1.4897                 1.2249                 1.8245
 IR Inten    --     14.5131                 2.5089                74.9571

                     58                     59                     60
                      A                      A                      A
 Frequencies --   1363.9923              1389.2602              1398.0227
 Red. masses --      2.1269                 1.3239                 1.5361
 Frc consts  --      2.3314                 1.5055                 1.7689
 IR Inten    --     20.1966                27.9632                11.3598

                     61                     62                     63
                      A                      A                      A
 Frequencies --   1404.5377              1405.1891              1414.7770
 Red. masses --      1.6477                 1.5287                 2.0093
 Frc consts  --      1.9151                 1.7784                 2.3695
 IR Inten    --      3.9058                16.0004                15.9808

                     64                     65                     66
                      A                      A                      A
 Frequencies --   1437.8189              1442.3468              1446.5401
 Red. masses --      1.2493                 3.3837                 1.2879
 Frc consts  --      1.5217                 4.1474                 1.5878
 IR Inten    --     12.4897                12.8785                 6.2053

                     67                     68                     69
                      A                      A                      A
 Frequencies --   1490.5999              1495.3922              1505.8826
 Red. masses --      1.2329                 3.1667                 1.0678
 Frc consts  --      1.6140                 4.1722                 1.4267
 IR Inten    --      5.9964                37.3741                 7.2398

                     70                     71                     72
                      A                      A                      A
 Frequencies --   1510.9370              1512.7870              1514.9036
 Red. masses --      1.1489                 1.0484                 1.1120
 Frc consts  --      1.5453                 1.4137                 1.5036
 IR Inten    --      5.6371                 7.0203                 1.5807

                     73                     74                     75
                      A                      A                      A
 Frequencies --   1521.2520              1523.4566              1527.4656
 Red. masses --      1.1138                 1.0497                 1.1246
 Frc consts  --      1.5186                 1.4355                 1.5460
 IR Inten    --     15.8691                 8.9666                 4.6137

                     76                     77                     78
                      A                      A                      A
 Frequencies --   1530.6647              1536.9384              1541.8803
 Red. masses --      1.0497                 1.0596                 1.0727
 Frc consts  --      1.4491                 1.4748                 1.5026
 IR Inten    --      5.0351                 6.3662                10.1404

                     79                     80                     81
                      A                      A                      A
 Frequencies --   1611.0458              1811.6292              3036.5580
 Red. masses --      5.0338                10.8067                 1.0632
 Frc consts  --      7.6977                20.8969                 5.7758
 IR Inten    --     25.3507               154.9449                44.1475

                     82                     83                     84
                      A                      A                      A
 Frequencies --   3046.6490              3047.9629              3052.2585
 Red. masses --      1.0390                 1.0358                 1.0646
 Frc consts  --      5.6819                 5.6695                 5.8437
 IR Inten    --     20.7611                20.6781                28.7736

                     85                     86                     87
                      A                      A                      A
 Frequencies --   3074.3514              3077.2305              3077.3339
 Red. masses --      1.0606                 1.0467                 1.0828
 Frc consts  --      5.9064                 5.8397                 6.0413
 IR Inten    --     34.3476                16.2735                28.7309

                     88                     89                     90
                      A                      A                      A
 Frequencies --   3084.6937              3096.7203              3112.3718
 Red. masses --      1.0844                 1.0963                 1.1011
 Frc consts  --      6.0794                 6.1940                 6.2842
 IR Inten    --     13.3414                 7.1269                61.3756

                     91                     92                     93
                      A                      A                      A
 Frequencies --   3115.2221              3126.3136              3129.0830
 Red. masses --      1.1008                 1.1053                 1.1033
 Frc consts  --      6.2941                 6.3650                 6.3645
 IR Inten    --     32.6094                27.7095                29.7078

                     94                     95                     96
                      A                      A                      A
 Frequencies --   3129.5956              3153.2779              3185.2061
 Red. masses --      1.1033                 1.1076                 1.1074
 Frc consts  --      6.3670                 6.4889                 6.6193
 IR Inten    --     41.0324                19.6580                16.6769

                     97                     98                     99
                      A                      A                      A
 Frequencies --   3266.4834              3272.9150              3493.6712
 Red. masses --      1.0960                 1.0979                 1.0735
 Frc consts  --      6.8898                 6.9289                 7.7197
 IR Inten    --      1.3134                 0.5928                 1.3717

 - Thermochemistry -
 -------------------
 Temperature   298.150 Kelvin.  Pressure   1.00000 Atm.
 Atom     1 has atomic number  6 and mass  12.00000

 Molecular mass:   225.14773 amu.
 Principal axes and moments of inertia in atomic units:
                           1         2         3
     Eigenvalues --  1996.069616632.067177522.02105
           X            0.99994   0.01067   0.00352
           Y           -0.01065   0.99993  -0.00517
           Z           -0.00357   0.00514   0.99998
 This molecule is an asymmetric top.
 Rotational symmetry number  1.
 Warning -- assumption of classical behavior for rotation
           may cause significant error
 Rotational temperatures (Kelvin)      0.04339     0.01306     0.01151
 Rotational constants (GHZ):           0.90415     0.27212     0.23993
 Zero-point vibrational energy     796214.2 (Joules/Mol)
                                  190.29975 (Kcal/Mol)
 Warning -- explicit consideration of  23 degrees of freedom as
           vibrations may cause significant error
 Vibrational temperatures:     24.88    39.23    66.17    86.70    90.92
          (Kelvin)            125.85   159.42   177.87   199.36   209.50
                              262.45   311.83   341.36   354.48   379.38
                              416.93   446.86   462.51   513.32   592.49
                              618.35   684.50   722.92   924.39   946.88
                              990.80  1015.17  1046.07  1126.14  1135.43
                             1161.49  1178.99  1235.36  1267.54  1276.27
                             1307.05  1318.79  1345.17  1445.79  1459.75
                             1503.38  1510.05  1518.03  1586.97  1604.76
                             1621.87  1683.13  1697.66  1705.68  1722.33
                             1739.65  1759.16  1777.46  1810.58  1877.73
                             1894.87  1920.37  1962.48  1998.84  2011.44
                             2020.82  2021.75  2035.55  2068.70  2075.22
                             2081.25  2144.64  2151.54  2166.63  2173.90
                             2176.56  2179.61  2188.74  2191.91  2197.68
                             2202.29  2211.31  2218.42  2317.94  2606.53
                             4368.93  4383.45  4385.34  4391.52  4423.31
                             4427.45  4427.60  4438.19  4455.49  4478.01
                             4482.11  4498.07  4502.05  4502.79  4536.86
                             4582.80  4699.74  4708.99  5026.61

 Zero-point correction=                           0.303262 (Hartree/Particle)
 Thermal correction to Energy=                    0.320805
 Thermal correction to Enthalpy=                  0.321749
 Thermal correction to Gibbs Free Energy=         0.255265
 Sum of electronic and zero-point Energies=           -745.054464
 Sum of electronic and thermal Energies=              -745.036921
 Sum of electronic and thermal Enthalpies=            -745.035977
 Sum of electronic and thermal Free Energies=         -745.102462

                     E (Thermal)             CV                S
                      KCal/Mol        Cal/Mol-Kelvin    Cal/Mol-Kelvin
 Total                  201.308             62.729            139.929
 Electronic               0.000              0.000              0.000
 Translational            0.889              2.981             42.137
 Rotational               0.889              2.981             32.965
 Vibrational            199.531             56.767             64.826
 Vibration     1          0.593              1.986              6.923
 Vibration     2          0.593              1.984              6.019
 Vibration     3          0.595              1.979              4.983
 Vibration     4          0.597              1.973              4.449
 Vibration     5          0.597              1.972              4.355
 Vibration     6          0.601              1.958              3.716
 Vibration     7          0.607              1.941              3.255
 Vibration     8          0.610              1.929              3.043
 Vibration     9          0.614              1.915              2.824
 Vibration    10          0.617              1.907              2.729
 Vibration    11          0.630              1.864              2.304
 Vibration    12          0.646              1.816              1.986
 Vibration    13          0.656              1.784              1.823
 Vibration    14          0.661              1.769              1.756
 Vibration    15          0.670              1.739              1.637
 Vibration    16          0.686              1.693              1.475
 Vibration    17          0.699              1.654              1.359
 Vibration    18          0.707              1.632              1.303
 Vibration    19          0.732              1.561              1.136
 Vibration    20          0.776              1.445              0.920
 Vibration    21          0.791              1.405              0.859
 Vibration    22          0.832              1.304              0.722
 Vibration    23          0.858              1.245              0.652

                           ! Non-Optimized Parameters !
 Normal termination of Gaussian 16 at Thu Dec 10 21:22:04 2020.

 ----------------------------------------------------------------------
 # B3LYP/6-311++G(d,p) empiricaldispersion=gd3bj scf=xqc pop=npa geom=c
 heck
 ----------------------------------------------------------------------

 ---------------------------------------
 CID_103572120_JID_6025_Energie_neutraal
 ---------------------------------------
 Structure from the checkpoint file:  "JID_6025.chk"
 Charge =  0 Multiplicity = 1

 SCF Done:  E(RB3LYP) =  -745.570474452     A.U. after   15 cycles
 Normal termination of Gaussian 16 at Thu Dec 10 21:27:01 2020.

 ----------------------------------------------------------------------
 # B3LYP/6-311++G(d,p) empiricaldispersion=gd3bj scf=xqc pop=npa geom=c
 heck
 ----------------------------------------------------------------------

 -------------------------------------
 CID_103572120_JID_6025_Energie_kation
 -------------------------------------
 Structure from the checkpoint file:  "JID_6025.chk"
 Charge =  1 Multiplicity = 2

 SCF Done:  E(UB3LYP) =  -745.271314110     A.U. after   27 cycles
 Normal termination of Gaussian 16 at Thu Dec 10 21:40:35 2020.
 Gaussian 16:  ES64L-G16RevA.03 25-Dec-2016

 ----------------------------------------------------------------------
 # B3LYP/6-311++G(d,p) empiricaldispersion=gd3bj scf=xqc pop=npa geom=c
 heck
 ----------------------------------------------------------------------

 ------------------------------------
 CID_103572120_JID_6025_Energie_anion
 ------------------------------------
 Structure from the checkpoint file:  "JID_6025.chk"
 Charge = -1 Multiplicity = 2

                         Standard orientation:
 ---------------------------------------------------------------------
 Center     Atomic      Atomic             Coordinates (Angstroms)
 Number     Number       Type             X           Y           Z
 ---------------------------------------------------------------------
      1          6           0        4.088719    1.261196    1.241889
      2          6           0        4.617426    0.348157    0.134803
      3          6           0        3.851075   -0.974079    0.027490
      4          7           0        2.442663   -0.769428   -0.275531
      5          6           0        1.379485   -0.893227    0.559877
      6          6           0        0.259705   -0.484322   -0.144839
      7          6           0        0.768416   -0.118649   -1.414937
      8          7           0        2.089357   -0.287032   -1.489339
      9          6           0       -1.171885   -0.486336    0.328133
     10          6           0       -1.843686    0.763404   -0.250007
     11          8           0       -2.288441    0.829653   -1.377781
     12          8           0       -1.858938    1.788028    0.624341
     13          6           0       -2.418703    3.013308    0.120404
     14          7           0       -1.852624   -1.722866   -0.049821
     15          6           0       -3.094475   -2.005694    0.673738
     16          6           0       -4.236175   -0.982436    0.570935
     17          1           0        3.042482    1.529971    1.062674
     18          1           0        4.669003    2.188230    1.295267
     19          1           0        4.147202    0.773018    2.222997
     20          1           0        4.555170    0.855818   -0.833897
     21          1           0        5.675102    0.110963    0.308125
     22          1           0        4.274727   -1.602102   -0.761777
     23          1           0        3.897899   -1.530785    0.969282
     24          1           0        1.490197   -1.265199    1.568431
     25          1           0        0.218808    0.256435   -2.267609
     26          1           0       -1.190022   -0.412169    1.420261
     27          1           0       -1.848517    3.364710   -0.743244
     28          1           0       -3.459305    2.861627   -0.177394
     29          1           0       -2.352114    3.725860    0.942543
     30          1           0       -2.025075   -1.693242   -1.053965
     31          1           0       -3.448390   -2.979337    0.314262
     32          1           0       -2.828752   -2.146481    1.730330
     33          1           0       -4.497604   -0.783859   -0.473766
     34          1           0       -5.128553   -1.359550    1.084762
     35          1           0       -3.968409   -0.028006    1.038158
 ---------------------------------------------------------------------

 SCF Done:  E(UB3LYP) =  -745.557704258     A.U. after   33 cycles
 SCF Done:  E(UB3LYP) =  -745.557704258     a.u. after    1 cycles

 The electronic state is 2-A.
 Alpha  occ. eigenvalues --  -19.08668 -19.02849 -14.29713 -14.23516 -14.21266
 Alpha  occ. eigenvalues --  -10.21357 -10.13691 -10.13216 -10.12244 -10.11336
 Alpha  occ. eigenvalues --  -10.10789 -10.09624 -10.08339 -10.08165 -10.07137
 Alpha  occ. eigenvalues --  -10.06773  -1.02545  -0.95902  -0.93819  -0.82651
 Alpha  occ. eigenvalues --   -0.75913  -0.71161  -0.68739  -0.66196  -0.64883
 Alpha  occ. eigenvalues --   -0.61090  -0.58494  -0.52494  -0.52292  -0.50476
 Alpha  occ. eigenvalues --   -0.48489  -0.46941  -0.43758  -0.43449  -0.40438
 Alpha  occ. eigenvalues --   -0.39905  -0.39057  -0.38547  -0.36301  -0.35947
 Alpha  occ. eigenvalues --   -0.34887  -0.34063  -0.33242  -0.32434  -0.31895
 Alpha  occ. eigenvalues --   -0.31507  -0.30835  -0.30354  -0.29716  -0.27769
 Alpha  occ. eigenvalues --   -0.26991  -0.26386  -0.26132  -0.25640  -0.25301
 Alpha  occ. eigenvalues --   -0.22647  -0.20680  -0.19864  -0.16519  -0.15411
 Alpha  occ. eigenvalues --   -0.14329   0.04002
 Alpha virt. eigenvalues --    0.05447   0.06241   0.07252   0.07498   0.08046
 Alpha virt. eigenvalues --    0.08335   0.08622   0.09239   0.09490   0.09686
 Alpha virt. eigenvalues --    0.10169   0.10551   0.11120   0.11269   0.11601

  Beta  occ. eigenvalues --  -19.08662 -19.02842 -14.29713 -14.23502 -14.21265
  Beta  occ. eigenvalues --  -10.21350 -10.13654 -10.13211 -10.12220 -10.11315
  Beta  occ. eigenvalues --  -10.10775 -10.09621 -10.08341 -10.08149 -10.07116
  Beta  occ. eigenvalues --  -10.06746  -1.02531  -0.95888  -0.93805  -0.82643
  Beta  occ. eigenvalues --   -0.75890  -0.71141  -0.68710  -0.66164  -0.64847
  Beta  occ. eigenvalues --   -0.61049  -0.58453  -0.52451  -0.52242  -0.50446
  Beta  occ. eigenvalues --   -0.48453  -0.46907  -0.43716  -0.43426  -0.40409
  Beta  occ. eigenvalues --   -0.39881  -0.39024  -0.38525  -0.36276  -0.35922
  Beta  occ. eigenvalues --   -0.34855  -0.34037  -0.33215  -0.32408  -0.31866
  Beta  occ. eigenvalues --   -0.31471  -0.30793  -0.30324  -0.29690  -0.27739
  Beta  occ. eigenvalues --   -0.26960  -0.26353  -0.26091  -0.25619  -0.25265
  Beta  occ. eigenvalues --   -0.22626  -0.20665  -0.19848  -0.16481  -0.15393
  Beta  occ. eigenvalues --   -0.14316
  Beta virt. eigenvalues --    0.06036   0.06562   0.06875   0.07702   0.07923
  Beta virt. eigenvalues --    0.08330   0.08549   0.09022   0.09493   0.09784
  Beta virt. eigenvalues --    0.10012   0.10479   0.10816   0.11367   0.11421

 Mulliken charges and spin densities:
               1          2
     1  C    0.414654  -0.914430
     2  C   -0.514278   0.225335
     3  C    0.610510  -0.813600
     4  N    0.347319   0.034401
     5  C   -0.689881   0.540104
     6  C    1.048059  -0.811329
     7  C    0.091185  -0.437340
     8  N   -0.381200   0.147805
     9  C   -0.281989  -0.259342
    10  C   -0.524430  -0.185981
    11  O   -0.190342   0.028970
    12  O   -0.006264   0.070908
    13  C    0.724060  -0.944210
    14  N    0.059410   0.057526
    15  C    0.055499  -0.258589
    16  C    0.098503  -0.534804
    17  H    0.125992   0.038355
    18  H   -0.220991   0.358745
    19  H   -0.120088   0.264029
    20  H    0.196094  -0.039193
    21  H   -0.355029   0.502213
    22  H   -0.019305   0.198423
    23  H   -0.472684   0.631493
    24  H   -0.480915   0.660402
    25  H    0.133113   0.034522
    26  H    0.117951   0.125873
    27  H   -0.039964   0.212539
    28  H   -0.137458   0.309103
    29  H   -0.445173   0.597300
    30  H    0.233167   0.022873
    31  H   -0.015491   0.177504
    32  H   -0.043426   0.180864
    33  H    0.149218   0.000452
    34  H   -0.344825   0.502515
    35  H   -0.120998   0.276563
 Sum of Mulliken charges =  -1.00000   1.00000

 Dipole moment (field-independent basis, Debye):
    X=             -2.1813    Y=             -0.8294    Z=             -3.6281  Tot=              4.3138
 Quadrupole moment (field-independent basis, Debye-Ang):
   XX=           -195.5393   YY=           -143.8359   ZZ=           -138.5647
   XY=              7.0074   XZ=             -4.6727   YZ=              0.7654

 Summary of Natural Population Analysis:

                                       Natural Population
                Natural  -----------------------------------------------
    Atom  No    Charge         Core      Valence    Rydberg      Total
 -----------------------------------------------------------------------
      C    1   -0.28937      0.99967     2.28453    0.00518     3.28937
      C    2   -0.19568      0.99964     2.18812    0.00792     3.19568
      C    3   -0.07930      0.99960     2.06767    0.01202     3.07930
      N    4   -0.10572      0.99966     2.59243    0.01363     3.60572
      C    5    0.00802      0.99949     1.98105    0.01143     2.99198
      C    6   -0.07620      0.99950     2.06507    0.01163     3.07620
      C    7   -0.01068      0.99957     1.99809    0.01302     3.01068
      N    8   -0.15319      0.99973     2.64275    0.01070     3.65319
      C    9   -0.05948      0.99950     2.04520    0.01477     3.05948
      C   10    0.41090      0.99967     1.56152    0.02791     2.58910
      O   11   -0.31499      0.99987     3.30939    0.00574     4.31499
      O   12   -0.27453      0.99986     3.26571    0.00896     4.27453
      C   13   -0.10584      0.99959     2.09707    0.00919     3.10584
      N   14   -0.33007      0.99975     2.81959    0.01073     3.83007
      C   15   -0.08809      0.99964     2.07715    0.01130     3.08809
      C   16   -0.30091      0.99967     2.29647    0.00477     3.30091
      H   17    0.10134      0.00000     0.39736    0.00130     0.39866
      H   18    0.09984      0.00000     0.39934    0.00082     0.40016
      H   19    0.09845      0.00000     0.40004    0.00150     0.40155
      H   20    0.10140      0.00000     0.39727    0.00134     0.39860
      H   21    0.09904      0.00000     0.39948    0.00148     0.40096
      H   22    0.10275      0.00000     0.39599    0.00126     0.39725
      H   23    0.10174      0.00000     0.39616    0.00210     0.39826
      H   24    0.10860      0.00000     0.38987    0.00153     0.39140
      H   25    0.10396      0.00000     0.39502    0.00102     0.39604
      H   26    0.11056      0.00000     0.38714    0.00230     0.38944
      H   27    0.09219      0.00000     0.40672    0.00109     0.40781
      H   28    0.09221      0.00000     0.40654    0.00125     0.40779
      H   29    0.09511      0.00000     0.40342    0.00147     0.40489
      H   30    0.17665      0.00000     0.32087    0.00248     0.32335
      H   31    0.09202      0.00000     0.40711    0.00087     0.40798
      H   32    0.09011      0.00000     0.40867    0.00122     0.40989
      H   33    0.10054      0.00000     0.39856    0.00090     0.39946
      H   34    0.10045      0.00000     0.39847    0.00109     0.39955
      H   35    0.09818      0.00000     0.40037    0.00145     0.40182
 =======================================================================
   * Total *    0.00000     15.99440    44.80023    0.20538    61.00000

 Normal termination of Gaussian 16 at Thu Dec 10 21:56:52 2020.
