 Gaussian 16, Revision A.03,

 -----------------------------------------------------------
 # opt freq B3LYP/6-31G(d) empiricaldispersion=gd3bj scf=xqc
 -----------------------------------------------------------

 ------------------------------
 CID_80001671_JID_7429_neutraal
 ------------------------------
 Symbolic Z-matrix:
 Charge =  0 Multiplicity = 1

 SCF Done:  E(RB3LYP) =  -767.458684062     A.U. after   15 cycles
 SCF Done:  E(RB3LYP) =  -767.463362792     A.U. after   13 cycles
 SCF Done:  E(RB3LYP) =  -767.464238482     A.U. after   13 cycles
 SCF Done:  E(RB3LYP) =  -767.465902704     A.U. after   13 cycles
 SCF Done:  E(RB3LYP) =  -767.468861738     A.U. after   12 cycles
 SCF Done:  E(RB3LYP) =  -767.469306358     A.U. after   13 cycles
 SCF Done:  E(RB3LYP) =  -767.469357311     A.U. after   12 cycles
 SCF Done:  E(RB3LYP) =  -767.469201831     A.U. after   12 cycles
 SCF Done:  E(RB3LYP) =  -767.470283349     A.U. after   12 cycles
 SCF Done:  E(RB3LYP) =  -767.470405258     A.U. after   12 cycles
 SCF Done:  E(RB3LYP) =  -767.470499040     A.U. after    8 cycles
 SCF Done:  E(RB3LYP) =  -767.470499515     A.U. after    8 cycles
 SCF Done:  E(RB3LYP) =  -767.470499875     A.U. after    8 cycles
 SCF Done:  E(RB3LYP) =  -767.470499961     A.U. after    8 cycles
 SCF Done:  E(RB3LYP) =  -767.470499976     A.U. after    6 cycles
 Optimization completed.
    -- Stationary point found.
 Normal termination of Gaussian 16 at Sun Dec 13 20:30:58 2020.

 --------------------------------------------------------------------
 #N Geom=AllCheck Guess=TCheck SCRF=Check GenChk RB3LYP/6-31G(d) Freq
 --------------------------------------------------------------------

 Structure from the checkpoint file:  "JID_7429.chk"
 ------------------------------
 CID_80001671_JID_7429_neutraal
 ------------------------------
 Charge =  0 Multiplicity = 1

 SCF Done:  E(RB3LYP) =  -767.470499976     A.U. after    1 cycles

  Exact polarizability: 179.416 -11.331 155.938  14.836  13.736 121.653
 Approx polarizability: 257.211 -20.134 238.906  34.735  31.143 192.655

                      1                      2                      3
                      A                      A                      A
 Frequencies --     17.6015                41.7844                49.4750
 Red. masses --      3.6365                 1.0408                 3.7138
 Frc consts  --      0.0007                 0.0011                 0.0054
 IR Inten    --      0.0226                 0.4511                 0.4334

                      4                      5                      6
                      A                      A                      A
 Frequencies --     59.7948                64.0664                90.6216
 Red. masses --      6.7223                 4.1499                 2.9871
 Frc consts  --      0.0142                 0.0100                 0.0145
 IR Inten    --      1.6132                 0.0873                 0.1307

                      7                      8                      9
                      A                      A                      A
 Frequencies --    120.0013               139.8108               153.6134
 Red. masses --      1.0866                 3.4591                 2.2462
 Frc consts  --      0.0092                 0.0398                 0.0312
 IR Inten    --      0.0345                 1.1465                 0.4422

                     10                     11                     12
                      A                      A                      A
 Frequencies --    176.6867               192.1090               226.2533
 Red. masses --      2.8539                 3.2022                 2.2255
 Frc consts  --      0.0525                 0.0696                 0.0671
 IR Inten    --      0.5059                 2.3084                 2.5506

                     13                     14                     15
                      A                      A                      A
 Frequencies --    247.9616               264.9208               284.8065
 Red. masses --      1.7307                 2.5785                 2.3956
 Frc consts  --      0.0627                 0.1066                 0.1145
 IR Inten    --      0.0803                 0.5753                25.4771

                     16                     17                     18
                      A                      A                      A
 Frequencies --    297.2072               302.1194               321.1243
 Red. masses --      3.4961                 3.9478                 2.7033
 Frc consts  --      0.1820                 0.2123                 0.1642
 IR Inten    --      1.9102                 3.3232                 7.3637

                     19                     20                     21
                      A                      A                      A
 Frequencies --    340.3305               357.2780               381.0799
 Red. masses --      1.7514                 2.2683                 3.0426
 Frc consts  --      0.1195                 0.1706                 0.2603
 IR Inten    --     15.6389                12.8738                 5.2054

                     22                     23                     24
                      A                      A                      A
 Frequencies --    401.5663               471.5456               476.8942
 Red. masses --      4.4780                 3.1941                 5.5280
 Frc consts  --      0.4254                 0.4185                 0.7407
 IR Inten    --      3.1028                 3.6699                 2.4348

                     25                     26                     27
                      A                      A                      A
 Frequencies --    504.1778               536.9169               543.4595
 Red. masses --      2.3636                 1.6144                 3.4835
 Frc consts  --      0.3540                 0.2742                 0.6062
 IR Inten    --      7.0712                38.5583                 3.1866

                     28                     29                     30
                      A                      A                      A
 Frequencies --    580.6742               603.2785               621.9709
 Red. masses --      3.1701                 3.9523                 1.9454
 Frc consts  --      0.6298                 0.8475                 0.4434
 IR Inten    --      1.4549                 2.5169                84.9473

                     31                     32                     33
                      A                      A                      A
 Frequencies --    671.8312               693.2525               745.4560
 Red. masses --      1.6868                 3.2279                 2.8295
 Frc consts  --      0.4486                 0.9140                 0.9264
 IR Inten    --    106.7483                 4.7565                23.4831

                     34                     35                     36
                      A                      A                      A
 Frequencies --    762.1620               776.0339               798.6551
 Red. masses --      3.2568                 2.5804                 4.0792
 Frc consts  --      1.1146                 0.9156                 1.5330
 IR Inten    --     20.9940                 6.9081                15.1241

                     37                     38                     39
                      A                      A                      A
 Frequencies --    822.3022               878.1513               886.3275
 Red. masses --      2.3492                 1.3604                 2.5271
 Frc consts  --      0.9359                 0.6181                 1.1697
 IR Inten    --      4.4879                16.1357                 1.0230

                     40                     41                     42
                      A                      A                      A
 Frequencies --    908.7682               911.8721               961.0355
 Red. masses --      1.3554                 1.4397                 1.4933
 Frc consts  --      0.6595                 0.7053                 0.8126
 IR Inten    --     14.4243                77.9960                86.6155

                     43                     44                     45
                      A                      A                      A
 Frequencies --    975.9655               990.1026               997.2233
 Red. masses --      2.1389                 3.9497                 1.9579
 Frc consts  --      1.2004                 2.2812                 1.1472
 IR Inten    --     20.1249                 1.4754                 0.3716

                     46                     47                     48
                      A                      A                      A
 Frequencies --   1048.8144              1072.5310              1075.1642
 Red. masses --      1.4609                 2.3449                 1.7667
 Frc consts  --      0.9468                 1.5893                 1.2033
 IR Inten    --      5.9589                 5.3977                19.7338

                     49                     50                     51
                      A                      A                      A
 Frequencies --   1075.7106              1076.7094              1092.1111
 Red. masses --      1.5842                 1.6782                 1.3109
 Frc consts  --      1.0801                 1.1462                 0.9212
 IR Inten    --      0.9613                 8.3022                 2.5415

                     52                     53                     54
                      A                      A                      A
 Frequencies --   1132.0939              1153.8671              1187.5030
 Red. masses --      1.7892                 2.0830                 1.7739
 Frc consts  --      1.3510                 1.6340                 1.4739
 IR Inten    --     20.0605                 1.7486                 7.9057

                     55                     56                     57
                      A                      A                      A
 Frequencies --   1223.0650              1238.1625              1255.2820
 Red. masses --      1.5228                 2.2794                 1.4794
 Frc consts  --      1.3421                 2.0588                 1.3734
 IR Inten    --      7.9335               151.2439                42.4779

                     58                     59                     60
                      A                      A                      A
 Frequencies --   1269.6737              1287.8993              1307.6011
 Red. masses --      1.5969                 2.7629                 2.0455
 Frc consts  --      1.5167                 2.7001                 2.0606
 IR Inten    --     37.1188               100.9795                19.5645

                     61                     62                     63
                      A                      A                      A
 Frequencies --   1329.9086              1361.2274              1379.7846
 Red. masses --      1.2825                 2.9980                 1.5078
 Frc consts  --      1.3364                 3.2730                 1.6913
 IR Inten    --     22.7352                19.8379                18.3246

                     64                     65                     66
                      A                      A                      A
 Frequencies --   1390.3627              1394.0712              1406.1553
 Red. masses --      1.9736                 1.5818                 1.5014
 Frc consts  --      2.2478                 1.8113                 1.7491
 IR Inten    --     30.6224                24.0681                21.5445

                     67                     68                     69
                      A                      A                      A
 Frequencies --   1427.8425              1438.9335              1443.5089
 Red. masses --      1.9147                 1.3948                 1.2454
 Frc consts  --      2.2999                 1.7015                 1.5289
 IR Inten    --     17.6441                14.1069                 0.1998

                     70                     71                     72
                      A                      A                      A
 Frequencies --   1446.2058              1447.1554              1478.6497
 Red. masses --      1.2642                 1.2708                 2.5111
 Frc consts  --      1.5579                 1.5680                 3.2348
 IR Inten    --      1.0484                 2.0728                30.9796

                     73                     74                     75
                      A                      A                      A
 Frequencies --   1508.1157              1513.2446              1515.2237
 Red. masses --      1.0445                 1.3566                 1.0818
 Frc consts  --      1.3996                 1.8302                 1.4633
 IR Inten    --      6.4761                12.3604                 5.7081

                     76                     77                     78
                      A                      A                      A
 Frequencies --   1517.0139              1520.5315              1531.6737
 Red. masses --      1.0548                 1.0614                 1.0851
 Frc consts  --      1.4303                 1.4459                 1.4998
 IR Inten    --      3.2720                 2.4857                17.9775

                     79                     80                     81
                      A                      A                      A
 Frequencies --   1534.9543              1537.7459              1547.4716
 Red. masses --      1.2566                 1.0683                 2.1479
 Frc consts  --      1.7443                 1.4883                 3.0305
 IR Inten    --     12.9853                 4.7159               102.7536

                     82                     83                     84
                      A                      A                      A
 Frequencies --   1667.3989              1672.0664              1695.1326
 Red. masses --      6.0431                 5.9800                 1.0926
 Frc consts  --      9.8990                 9.8505                 1.8498
 IR Inten    --     10.5414                 3.2414                29.2060

                     85                     86                     87
                      A                      A                      A
 Frequencies --   1786.0195              3038.2978              3040.9223
 Red. masses --      8.4899                 1.0618                 1.0407
 Frc consts  --     15.9561                 5.7751                 5.6700
 IR Inten    --    317.7639                21.2124                32.4852

                     88                     89                     90
                      A                      A                      A
 Frequencies --   3048.8567              3051.9522              3052.4868
 Red. masses --      1.0387                 1.0364                 1.0650
 Frc consts  --      5.6886                 5.6876                 5.8465
 IR Inten    --     21.7085                26.1012                 8.4388

                     91                     92                     93
                      A                      A                      A
 Frequencies --   3071.9415              3097.6928              3097.9891
 Red. masses --      1.0948                 1.1016                 1.0971
 Frc consts  --      6.0873                 6.2281                 6.2036
 IR Inten    --     45.3628                 7.9401                28.7039

                     94                     95                     96
                      A                      A                      A
 Frequencies --   3104.8398              3109.6020              3125.9354
 Red. masses --      1.1005                 1.1019                 1.1025
 Frc consts  --      6.2503                 6.2778                 6.3472
 IR Inten    --     13.9742                44.6022                15.0418

                     97                     98                     99
                      A                      A                      A
 Frequencies --   3130.5929              3135.7217              3143.5031
 Red. masses --      1.0983                 1.1027                 1.0866
 Frc consts  --      6.3420                 6.3881                 6.3261
 IR Inten    --     34.8520                15.7681                24.3979

                    100                    101                    102
                      A                      A                      A
 Frequencies --   3175.9664              3190.6192              3451.2504
 Red. masses --      1.0898                 1.0909                 1.0491
 Frc consts  --      6.4769                 6.5431                 7.3624
 IR Inten    --     18.7090                 6.5831                 2.0034

                    103                    104                    105
                      A                      A                      A
 Frequencies --   3540.3129              3546.4986              3658.5486
 Red. masses --      1.0924                 1.0750                 1.0642
 Frc consts  --      8.0674                 7.9664                 8.3929
 IR Inten    --      1.8351                20.1813                75.1947

 - Thermochemistry -
 -------------------
 Temperature   298.150 Kelvin.  Pressure   1.00000 Atm.
 Atom     1 has atomic number  6 and mass  12.00000

 Molecular mass:   236.15248 amu.
 Principal axes and moments of inertia in atomic units:
                           1         2         3
     Eigenvalues --  2902.364794918.009565931.60601
           X            0.99998  -0.00298  -0.00615
           Y            0.00303   0.99996   0.00846
           Z            0.00612  -0.00848   0.99995
 This molecule is an asymmetric top.
 Rotational symmetry number  1.
 Warning -- assumption of classical behavior for rotation
           may cause significant error
 Rotational temperatures (Kelvin)      0.02984     0.01761     0.01460
 Rotational constants (GHZ):           0.62182     0.36697     0.30426
 Zero-point vibrational energy     840067.9 (Joules/Mol)
                                  200.78105 (Kcal/Mol)
 Warning -- explicit consideration of  29 degrees of freedom as
           vibrations may cause significant error
 Vibrational temperatures:     25.32    60.12    71.18    86.03    92.18
          (Kelvin)            130.38   172.66   201.16   221.02   254.21
                              276.40   325.53   356.76   381.16   409.77
                              427.61   434.68   462.03   489.66   514.04
                              548.29   577.76   678.45   686.14   725.40
                              772.50   781.92   835.46   867.98   894.88
                              966.62   997.44  1072.54  1096.58  1116.54
                             1149.09  1183.11  1263.46  1275.23  1307.51
                             1311.98  1382.72  1404.20  1424.54  1434.78
                             1509.01  1543.13  1546.92  1547.71  1549.14
                             1571.30  1628.83  1660.16  1708.55  1759.72
                             1781.44  1806.07  1826.78  1853.00  1881.35
                             1913.44  1958.50  1985.20  2000.42  2005.76
                             2023.14  2054.35  2070.30  2076.89  2080.77
                             2082.13  2127.45  2169.84  2177.22  2180.07
                             2182.64  2187.71  2203.74  2208.46  2212.47
                             2226.47  2399.02  2405.73  2438.92  2569.68
                             4371.43  4375.21  4386.62  4391.08  4391.85
                             4419.84  4456.89  4457.32  4467.17  4474.02
                             4497.52  4504.23  4511.60  4522.80  4569.51
                             4590.59  4965.58  5093.72  5102.62  5263.84

 Zero-point correction=                           0.319965 (Hartree/Particle)
 Thermal correction to Energy=                    0.338500
 Thermal correction to Enthalpy=                  0.339444
 Thermal correction to Gibbs Free Energy=         0.272359
 Sum of electronic and zero-point Energies=           -767.150535
 Sum of electronic and thermal Energies=              -767.132000
 Sum of electronic and thermal Enthalpies=            -767.131056
 Sum of electronic and thermal Free Energies=         -767.198141

                     E (Thermal)             CV                S
                      KCal/Mol        Cal/Mol-Kelvin    Cal/Mol-Kelvin
 Total                  212.412             68.943            141.193
 Electronic               0.000              0.000              0.000
 Translational            0.889              2.981             42.279
 Rotational               0.889              2.981             32.804
 Vibrational            210.634             62.981             66.109
 Vibration     1          0.593              1.986              6.888
 Vibration     2          0.594              1.980              5.173
 Vibration     3          0.595              1.978              4.838
 Vibration     4          0.597              1.973              4.464
 Vibration     5          0.597              1.971              4.328
 Vibration     6          0.602              1.956              3.647
 Vibration     7          0.609              1.933              3.100
 Vibration     8          0.615              1.914              2.806
 Vibration     9          0.619              1.899              2.627
 Vibration    10          0.628              1.871              2.363
 Vibration    11          0.634              1.851              2.207
 Vibration    12          0.650              1.801              1.908
 Vibration    13          0.662              1.766              1.745
 Vibration    14          0.671              1.737              1.629
 Vibration    15          0.683              1.702              1.505
 Vibration    16          0.691              1.679              1.433
 Vibration    17          0.694              1.670              1.405
 Vibration    18          0.707              1.633              1.304
 Vibration    19          0.720              1.595              1.211
 Vibration    20          0.732              1.560              1.134
 Vibration    21          0.751              1.511              1.035
 Vibration    22          0.767              1.467              0.957
 Vibration    23          0.828              1.313              0.733
 Vibration    24          0.833              1.301              0.718
 Vibration    25          0.859              1.241              0.648
 Vibration    26          0.892              1.168              0.572
 Vibration    27          0.899              1.154              0.558
 Vibration    28          0.937              1.073              0.484
 Vibration    29          0.962              1.025              0.444

 Optimization completed.
    -- Stationary point found.
 Normal termination of Gaussian 16 at Sun Dec 13 20:46:18 2020.

 ----------------------------------------------------------------------
 # B3LYP/6-311++G(d,p) empiricaldispersion=gd3bj scf=xqc pop=npa geom=c
 heck
 ----------------------------------------------------------------------

 --------------------------------------
 CID_80001671_JID_7429_Energie_neutraal
 --------------------------------------
 Structure from the checkpoint file:  "JID_7429.chk"
 Charge =  0 Multiplicity = 1

 SCF Done:  E(RB3LYP) =  -767.699997698     A.U. after   16 cycles
 Normal termination of Gaussian 16 at Sun Dec 13 20:54:42 2020.

 ----------------------------------------------------------------------
 # B3LYP/6-311++G(d,p) empiricaldispersion=gd3bj scf=xqc pop=npa geom=c
 heck
 ----------------------------------------------------------------------

 ------------------------------------
 CID_80001671_JID_7429_Energie_kation
 ------------------------------------
 Structure from the checkpoint file:  "JID_7429.chk"
 Charge =  1 Multiplicity = 2

 SCF Done:  E(UB3LYP) =  -767.404837044     A.U. after   26 cycles
 Normal termination of Gaussian 16 at Sun Dec 13 21:13:56 2020.
 Gaussian 16:  ES64L-G16RevA.03 25-Dec-2016

 ----------------------------------------------------------------------
 # B3LYP/6-311++G(d,p) empiricaldispersion=gd3bj scf=xqc pop=npa geom=c
 heck
 ----------------------------------------------------------------------

 -----------------------------------
 CID_80001671_JID_7429_Energie_anion
 -----------------------------------
 Structure from the checkpoint file:  "JID_7429.chk"
 Charge = -1 Multiplicity = 2

                         Standard orientation:
 ---------------------------------------------------------------------
 Center     Atomic      Atomic             Coordinates (Angstroms)
 Number     Number       Type             X           Y           Z
 ---------------------------------------------------------------------
      1          6           0       -0.346798   -2.188767    1.648451
      2          6           0       -1.577946   -2.261679    0.739197
      3          6           0       -2.592473   -1.135930    0.983381
      4          6           0       -2.116719    0.259198    0.549009
      5          6           0       -2.051095    0.315123   -0.986138
      6          8           0       -3.069403    0.265896   -1.661836
      7          7           0       -0.817149    0.501856   -1.597696
      8          6           0        0.461339    0.300452   -0.987355
      9          6           0        1.190751   -0.875228   -1.168836
     10          6           0        2.426498   -1.048174   -0.546016
     11          6           0        2.908314   -0.008580    0.262389
     12          6           0        2.212811    1.185917    0.451854
     13          6           0        0.981245    1.336586   -0.201837
     14          8           0        0.290498    2.503968   -0.039888
     15          6           0        2.744215    2.303661    1.308568
     16          6           0        3.196913   -2.337853   -0.689800
     17          7           0       -3.048006    1.274532    1.055019
     18          1           0        0.213387   -1.259412    1.509177
     19          1           0        0.342774   -3.015748    1.444421
     20          1           0       -0.641381   -2.249537    2.703155
     21          1           0       -1.262471   -2.257262   -0.313008
     22          1           0       -2.082450   -3.223349    0.895968
     23          1           0       -3.526933   -1.350769    0.450428
     24          1           0       -2.834731   -1.071878    2.050403
     25          1           0       -1.139717    0.464596    0.987659
     26          1           0       -0.874125    0.427827   -2.609211
     27          1           0        0.769710   -1.663854   -1.786577
     28          1           0        3.866742   -0.131314    0.762258
     29          1           0       -0.444104    2.475907   -0.680899
     30          1           0        2.061406    2.526621    2.136793
     31          1           0        3.721050    2.045057    1.726820
     32          1           0        2.847060    3.229423    0.730814
     33          1           0        4.276728   -2.158171   -0.728214
     34          1           0        3.009020   -3.008767    0.158875
     35          1           0        2.911130   -2.874678   -1.599971
     36          1           0       -2.652237    2.202700    0.908100
     37          1           0       -3.895882    1.230619    0.488342
 ---------------------------------------------------------------------

 SCF Done:  E(UB3LYP) =  -767.689289801     A.U. after   33 cycles
 SCF Done:  E(UB3LYP) =  -767.689289801     a.u. after    1 cycles

 The electronic state is 2-A.
 Alpha  occ. eigenvalues --  -19.06088 -19.00598 -14.25479 -14.20910 -10.18553
 Alpha  occ. eigenvalues --  -10.13670 -10.11621 -10.11465 -10.08490 -10.08303
 Alpha  occ. eigenvalues --  -10.07825 -10.07735 -10.07615 -10.07298 -10.07182
 Alpha  occ. eigenvalues --  -10.06919 -10.06456  -0.97476  -0.95613  -0.84099
 Alpha  occ. eigenvalues --   -0.80362  -0.75968  -0.70162  -0.68713  -0.66063
 Alpha  occ. eigenvalues --   -0.62635  -0.59701  -0.58695  -0.56781  -0.53698
 Alpha  occ. eigenvalues --   -0.50870  -0.48381  -0.46984  -0.45059  -0.42631
 Alpha  occ. eigenvalues --   -0.41452  -0.40148  -0.38032  -0.37757  -0.35456
 Alpha  occ. eigenvalues --   -0.35385  -0.34043  -0.33961  -0.32695  -0.32196
 Alpha  occ. eigenvalues --   -0.31903  -0.31207  -0.30493  -0.30196  -0.29882
 Alpha  occ. eigenvalues --   -0.28802  -0.28333  -0.27502  -0.26579  -0.24895
 Alpha  occ. eigenvalues --   -0.24738  -0.24600  -0.23794  -0.23188  -0.19299
 Alpha  occ. eigenvalues --   -0.18701  -0.15969  -0.14887  -0.12596   0.04219
 Alpha virt. eigenvalues --    0.06321   0.06649   0.06970   0.07446   0.08019
 Alpha virt. eigenvalues --    0.08704   0.08992   0.09182   0.09607   0.09931
 Alpha virt. eigenvalues --    0.10435   0.11035   0.11337   0.11750   0.12262

  Beta  occ. eigenvalues --  -19.06064 -19.00586 -14.25451 -14.20895 -10.18549
  Beta  occ. eigenvalues --  -10.13678 -10.11611 -10.11409 -10.08454 -10.08312
  Beta  occ. eigenvalues --  -10.07821 -10.07733 -10.07578 -10.07254 -10.07161
  Beta  occ. eigenvalues --  -10.06884 -10.06445  -0.97434  -0.95593  -0.84024
  Beta  occ. eigenvalues --   -0.80334  -0.75907  -0.70146  -0.68652  -0.65990
  Beta  occ. eigenvalues --   -0.62606  -0.59629  -0.58631  -0.56740  -0.53615
  Beta  occ. eigenvalues --   -0.50826  -0.48319  -0.46936  -0.45000  -0.42587
  Beta  occ. eigenvalues --   -0.41392  -0.40096  -0.37988  -0.37740  -0.35405
  Beta  occ. eigenvalues --   -0.35361  -0.34003  -0.33889  -0.32664  -0.32140
  Beta  occ. eigenvalues --   -0.31863  -0.31169  -0.30472  -0.30155  -0.29854
  Beta  occ. eigenvalues --   -0.28776  -0.28299  -0.27474  -0.26532  -0.24854
  Beta  occ. eigenvalues --   -0.24722  -0.24585  -0.23754  -0.23096  -0.19252
  Beta  occ. eigenvalues --   -0.18649  -0.15896  -0.14698  -0.12479
  Beta virt. eigenvalues --    0.06365   0.06955   0.07277   0.07377   0.07898
  Beta virt. eigenvalues --    0.08473   0.08842   0.09166   0.09407   0.09926
  Beta virt. eigenvalues --    0.10241   0.10575   0.11266   0.11581   0.12049

 Mulliken charges and spin densities:
               1          2
     1  C   -0.168725  -0.389570
     2  C   -0.435054   0.358525
     3  C   -0.180740  -0.220554
     4  C    0.409844  -0.802823
     5  C   -0.775821   0.587155
     6  O   -0.304412   0.019247
     7  N   -0.588807   0.297340
     8  C    1.121374  -1.242972
     9  C    1.421565  -1.551742
    10  C   -0.447647   1.007204
    11  C   -4.279517   3.400959
    12  C   -0.044395   0.563031
    13  C   -0.133540  -0.136500
    14  O   -0.175556   0.009451
    15  C    1.703244  -2.042054
    16  C    2.512923  -3.128371
    17  N   -0.163278   0.013082
    18  H    0.316778  -0.166086
    19  H   -0.130086   0.250435
    20  H    0.068108   0.058380
    21  H    0.113950  -0.010330
    22  H    0.085665   0.093914
    23  H    0.185636  -0.018955
    24  H    0.147720   0.026338
    25  H    0.499438  -0.196705
    26  H   -0.477389   0.823662
    27  H   -0.149221   0.340120
    28  H   -0.426242   0.602284
    29  H   -0.003453   0.311788
    30  H   -0.072000   0.256603
    31  H   -0.287606   0.429679
    32  H    0.040064   0.134693
    33  H   -0.156589   0.294215
    34  H    0.003071   0.170992
    35  H   -0.500737   0.648178
    36  H    0.074750   0.162717
    37  H    0.196687   0.046670
 Sum of Mulliken charges =  -1.00000   1.00000

 Dipole moment (field-independent basis, Debye):
    X=             -3.2879    Y=              0.1866    Z=              2.6337  Tot=              4.2168
 Quadrupole moment (field-independent basis, Debye-Ang):
   XX=           -169.1865   YY=           -149.0715   ZZ=           -152.5382
   XY=              9.1358   XZ=             -5.0314   YZ=             -6.3177

 Summary of Natural Population Analysis:

                                       Natural Population
                Natural  -----------------------------------------------
    Atom  No    Charge         Core      Valence    Rydberg      Total
 -----------------------------------------------------------------------
      C    1   -0.28753      0.99966     2.28266    0.00521     3.28753
      C    2   -0.19307      0.99964     2.18639    0.00704     3.19307
      C    3   -0.18861      0.99961     2.18039    0.00861     3.18861
      C    4   -0.05816      0.99954     2.04624    0.01238     3.05816
      C    5    0.34420      0.99964     1.63046    0.02571     2.65580
      O    6   -0.32265      0.99987     3.31641    0.00636     4.32265
      N    7   -0.33413      0.99965     2.82012    0.01436     3.83413
      C    8    0.04046      0.99941     1.94684    0.01328     2.95954
      C    9   -0.09504      0.99946     2.08475    0.01083     3.09504
      C   10   -0.02420      0.99952     2.01474    0.00995     3.02420
      C   11   -0.08543      0.99948     2.07657    0.00938     3.08543
      C   12   -0.02666      0.99948     2.01801    0.00918     3.02666
      C   13    0.14965      0.99928     1.83675    0.01431     2.85035
      O   14   -0.34427      0.99988     3.33777    0.00663     4.34427
      C   15   -0.29050      0.99964     2.28567    0.00519     3.29050
      C   16   -0.29086      0.99963     2.28536    0.00587     3.29086
      N   17   -0.41397      0.99978     2.90447    0.00973     3.91397
      H   18    0.10272      0.00000     0.39579    0.00149     0.39728
      H   19    0.10039      0.00000     0.39875    0.00087     0.39961
      H   20    0.09270      0.00000     0.40647    0.00083     0.40730
      H   21    0.09638      0.00000     0.40211    0.00151     0.40362
      H   22    0.09404      0.00000     0.40513    0.00083     0.40596
      H   23    0.10196      0.00000     0.39698    0.00106     0.39804
      H   24    0.10100      0.00000     0.39775    0.00125     0.39900
      H   25    0.10542      0.00000     0.39215    0.00243     0.39458
      H   26    0.20429      0.00000     0.28808    0.00763     0.29571
      H   27    0.10447      0.00000     0.39403    0.00150     0.39553
      H   28    0.09860      0.00000     0.40037    0.00104     0.40140
      H   29    0.23990      0.00000     0.25592    0.00418     0.26010
      H   30    0.10693      0.00000     0.39160    0.00146     0.39307
      H   31    0.10114      0.00000     0.39777    0.00109     0.39886
      H   32    0.10608      0.00000     0.39265    0.00127     0.39392
      H   33    0.10259      0.00000     0.39631    0.00110     0.39741
      H   34    0.10380      0.00000     0.39493    0.00127     0.39620
      H   35    0.10407      0.00000     0.39452    0.00140     0.39593
      H   36    0.17629      0.00000     0.32217    0.00153     0.32371
      H   37    0.17803      0.00000     0.32013    0.00185     0.32197
 =======================================================================
   * Total *   -0.00000     16.99317    46.79720    0.20963    64.00000

 Normal termination of Gaussian 16 at Sun Dec 13 21:36:57 2020.
