 Gaussian 16, Revision A.03,

 -----------------------------------------------------------
 # opt freq B3LYP/6-31G(d) empiricaldispersion=gd3bj scf=xqc
 -----------------------------------------------------------

 -------------------------------
 CID_104826862_JID_4068_neutraal
 -------------------------------
 Symbolic Z-matrix:
 Charge =  0 Multiplicity = 1

 SCF Done:  E(RB3LYP) =  -667.901615341     A.U. after   14 cycles
 SCF Done:  E(RB3LYP) =  -667.905721919     A.U. after   12 cycles
 SCF Done:  E(RB3LYP) =  -667.906239104     A.U. after   11 cycles
 SCF Done:  E(RB3LYP) =  -667.906535184     A.U. after   11 cycles
 SCF Done:  E(RB3LYP) =  -667.906676008     A.U. after   11 cycles
 SCF Done:  E(RB3LYP) =  -667.906773294     A.U. after   11 cycles
 SCF Done:  E(RB3LYP) =  -667.906853309     A.U. after   11 cycles
 SCF Done:  E(RB3LYP) =  -667.906944739     A.U. after   12 cycles
 SCF Done:  E(RB3LYP) =  -667.907098994     A.U. after   12 cycles
 SCF Done:  E(RB3LYP) =  -667.907236778     A.U. after   11 cycles
 SCF Done:  E(RB3LYP) =  -667.907447854     A.U. after   11 cycles
 SCF Done:  E(RB3LYP) =  -667.907448723     A.U. after    9 cycles
 SCF Done:  E(RB3LYP) =  -667.907449237     A.U. after    9 cycles
 SCF Done:  E(RB3LYP) =  -667.907449459     A.U. after    7 cycles
 SCF Done:  E(RB3LYP) =  -667.907449496     A.U. after    7 cycles
 Optimization completed.
    -- Stationary point found.
 Normal termination of Gaussian 16 at Thu Dec 10 09:23:05 2020.

 --------------------------------------------------------------------
 #N Geom=AllCheck Guess=TCheck SCRF=Check GenChk RB3LYP/6-31G(d) Freq
 --------------------------------------------------------------------

 Structure from the checkpoint file:  "JID_4068.chk"
 -------------------------------
 CID_104826862_JID_4068_neutraal
 -------------------------------
 Charge =  0 Multiplicity = 1

 SCF Done:  E(RB3LYP) =  -667.907449495     A.U. after    1 cycles

  Exact polarizability: 141.128  -8.210 107.635   3.077  -4.549 103.880
 Approx polarizability: 179.441 -15.229 148.956   1.269 -12.997 173.332

                      1                      2                      3
                      A                      A                      A
 Frequencies --     22.9192                25.2261                54.6426
 Red. masses --      4.6964                 4.7193                 2.8422
 Frc consts  --      0.0015                 0.0018                 0.0050
 IR Inten    --      1.0947                 0.2449                 0.1694

                      4                      5                      6
                      A                      A                      A
 Frequencies --     66.0250               123.0855               139.2307
 Red. masses --      4.1244                 5.7178                 2.5821
 Frc consts  --      0.0106                 0.0510                 0.0295
 IR Inten    --      0.1101                 0.6741                 0.1063

                      7                      8                      9
                      A                      A                      A
 Frequencies --    158.1087               187.6934               217.2297
 Red. masses --      3.5209                 3.2395                 4.1404
 Frc consts  --      0.0519                 0.0672                 0.1151
 IR Inten    --      1.4757                 0.7388                 2.1299

                     10                     11                     12
                      A                      A                      A
 Frequencies --    237.2387               256.4285               264.3040
 Red. masses --      1.0554                 1.3526                 2.6186
 Frc consts  --      0.0350                 0.0524                 0.1078
 IR Inten    --      0.1358                 0.3381                 8.6127

                     13                     14                     15
                      A                      A                      A
 Frequencies --    287.2090               308.5348               332.8529
 Red. masses --      2.0714                 1.4660                 1.9746
 Frc consts  --      0.1007                 0.0822                 0.1289
 IR Inten    --      2.7115                30.8618                15.5417

                     16                     17                     18
                      A                      A                      A
 Frequencies --    358.2403               408.0259               422.8121
 Red. masses --      3.1323                 3.0412                 2.2817
 Frc consts  --      0.2368                 0.2983                 0.2403
 IR Inten    --      1.9809                 0.9380                 1.3548

                     19                     20                     21
                      A                      A                      A
 Frequencies --    486.5528               490.0855               538.9859
 Red. masses --      2.6564                 3.4204                 1.0829
 Frc consts  --      0.3705                 0.4840                 0.1853
 IR Inten    --      6.0305                 2.2371               170.6547

                     22                     23                     24
                      A                      A                      A
 Frequencies --    566.6891               639.6025               696.9350
 Red. masses --      3.1781                 3.2372                 4.2422
 Frc consts  --      0.6013                 0.7803                 1.2140
 IR Inten    --      9.4833                12.2614                 9.5808

                     25                     26                     27
                      A                      A                      A
 Frequencies --    718.7458               787.7835               832.8999
 Red. masses --      3.9049                 6.1751                 2.6977
 Frc consts  --      1.1885                 2.2579                 1.1026
 IR Inten    --      6.8253                 2.6900                 4.9669

                     28                     29                     30
                      A                      A                      A
 Frequencies --    878.7447               890.2029               927.3307
 Red. masses --      2.3250                 1.5689                 2.4673
 Frc consts  --      1.0578                 0.7325                 1.2501
 IR Inten    --      7.0733               131.8051                25.1406

                     31                     32                     33
                      A                      A                      A
 Frequencies --    937.1034               946.3628               953.6165
 Red. masses --      2.0429                 1.2394                 2.8868
 Frc consts  --      1.0570                 0.6540                 1.5467
 IR Inten    --     74.3312                 2.5338                23.9902

                     34                     35                     36
                      A                      A                      A
 Frequencies --    962.3822               982.2946              1005.0174
 Red. masses --      1.9137                 1.5928                 2.9099
 Frc consts  --      1.0443                 0.9055                 1.7317
 IR Inten    --      0.2609                 0.9446                 3.6319

                     37                     38                     39
                      A                      A                      A
 Frequencies --   1027.6402              1062.7044              1083.1177
 Red. masses --      5.1743                 4.2582                 2.0971
 Frc consts  --      3.2195                 2.8334                 1.4495
 IR Inten    --      3.2164                22.8595                12.7418

                     40                     41                     42
                      A                      A                      A
 Frequencies --   1104.4647              1106.1039              1123.3251
 Red. masses --      2.9377                 1.5844                 2.3591
 Frc consts  --      2.1114                 1.1421                 1.7539
 IR Inten    --     42.2628                37.9530                16.2413

                     43                     44                     45
                      A                      A                      A
 Frequencies --   1163.6635              1208.7853              1227.8638
 Red. masses --      2.1857                 1.7203                 1.1708
 Frc consts  --      1.7438                 1.4810                 1.0400
 IR Inten    --      1.6699                 4.9786                33.9758

                     46                     47                     48
                      A                      A                      A
 Frequencies --   1231.2415              1241.8924              1257.6870
 Red. masses --      1.5587                 1.5729                 2.0773
 Frc consts  --      1.3922                 1.4293                 1.9360
 IR Inten    --      0.0402                32.5485                13.2461

                     49                     50                     51
                      A                      A                      A
 Frequencies --   1307.8031              1333.2029              1347.4184
 Red. masses --      1.8847                 1.8534                 1.4037
 Frc consts  --      1.8992                 1.9409                 1.5015
 IR Inten    --     44.5382                 2.6797                20.2842

                     52                     53                     54
                      A                      A                      A
 Frequencies --   1367.4329              1391.4839              1403.4701
 Red. masses --      1.3949                 1.3251                 1.4163
 Frc consts  --      1.5368                 1.5116                 1.6437
 IR Inten    --     21.0198                 8.3015                 1.4353

                     55                     56                     57
                      A                      A                      A
 Frequencies --   1419.0679              1423.3306              1432.3638
 Red. masses --      1.4017                 1.3676                 1.4207
 Frc consts  --      1.6631                 1.6324                 1.7174
 IR Inten    --     16.1229                 8.7093                19.9983

                     58                     59                     60
                      A                      A                      A
 Frequencies --   1434.2258              1452.1832              1460.4164
 Red. masses --      1.8278                 1.2368                 1.2180
 Frc consts  --      2.2152                 1.5368                 1.5306
 IR Inten    --     42.3400                 4.5015                82.0156

                     61                     62                     63
                      A                      A                      A
 Frequencies --   1490.2831              1508.7377              1521.4169
 Red. masses --      1.1768                 1.0900                 1.0527
 Frc consts  --      1.5399                 1.4619                 1.4356
 IR Inten    --     23.4458                 0.1358                 0.8450

                     64                     65                     66
                      A                      A                      A
 Frequencies --   1526.1586              1533.5714              1536.1759
 Red. masses --      1.0516                 1.1106                 1.0583
 Frc consts  --      1.4431                 1.5389                 1.4714
 IR Inten    --      3.6090                 1.1915                 1.5557

                     67                     68                     69
                      A                      A                      A
 Frequencies --   1546.6825              1560.9520              1620.7491
 Red. masses --      1.0467                 6.2818                 8.1945
 Frc consts  --      1.4753                 9.0180                12.6825
 IR Inten    --      9.2619                 2.8385                70.5746

                     70                     71                     72
                      A                      A                      A
 Frequencies --   1698.8979              3005.4208              3017.8981
 Red. masses --      1.0950                 1.0714                 1.0830
 Frc consts  --      1.8621                 5.7019                 5.8115
 IR Inten    --     26.6772                55.4429                18.6665

                     73                     74                     75
                      A                      A                      A
 Frequencies --   3037.8460              3040.0737              3045.5124
 Red. masses --      1.0533                 1.0413                 1.0419
 Frc consts  --      5.7268                 5.6700                 5.6938
 IR Inten    --     10.8526                36.2172                27.2042

                     76                     77                     78
                      A                      A                      A
 Frequencies --   3055.9445              3087.8133              3098.0013
 Red. masses --      1.0615                 1.0980                 1.1006
 Frc consts  --      5.8408                 6.1682                 6.2234
 IR Inten    --      7.5953                 8.8409                12.5619

                     79                     80                     81
                      A                      A                      A
 Frequencies --   3103.9312              3107.7356              3108.6397
 Red. masses --      1.1009                 1.0944                 1.0996
 Frc consts  --      6.2489                 6.2275                 6.2610
 IR Inten    --      6.2209                49.7193                32.6114

                     82                     83                     84
                      A                      A                      A
 Frequencies --   3112.2263              3115.8286              3125.7061
 Red. masses --      1.0910                 1.1016                 1.0999
 Frc consts  --      6.2262                 6.3011                 6.3314
 IR Inten    --     41.7230                46.8999                24.8107

                     85                     86                     87
                      A                      A                      A
 Frequencies --   3469.5748              3557.0263              3690.1053
 Red. masses --      1.0494                 1.0932                 1.0656
 Frc consts  --      7.4427                 8.1495                 8.5490
 IR Inten    --      0.2146                 0.6713                86.8797

 - Thermochemistry -
 -------------------
 Temperature   298.150 Kelvin.  Pressure   1.00000 Atm.
 Atom     1 has atomic number  6 and mass  12.00000

 Molecular mass:   199.13208 amu.
 Principal axes and moments of inertia in atomic units:
                           1         2         3
     Eigenvalues --  1563.455975233.478235802.84226
           X            0.99994   0.00697   0.00812
           Y           -0.00696   0.99998  -0.00110
           Z           -0.00813   0.00105   0.99997
 This molecule is an asymmetric top.
 Rotational symmetry number  1.
 Warning -- assumption of classical behavior for rotation
           may cause significant error
 Rotational temperatures (Kelvin)      0.05540     0.01655     0.01493
 Rotational constants (GHZ):           1.15433     0.34485     0.31101
 Zero-point vibrational energy     706065.5 (Joules/Mol)
                                  168.75371 (Kcal/Mol)
 Warning -- explicit consideration of  22 degrees of freedom as
           vibrations may cause significant error
 Vibrational temperatures:     32.98    36.29    78.62    95.00   177.09
          (Kelvin)            200.32   227.48   270.05   312.55   341.33
                              368.94   380.27   413.23   443.91   478.90
                              515.43   587.06   608.33   700.04   705.12
                              775.48   815.34   920.25  1002.73  1034.11
                             1133.44  1198.36  1264.32  1280.80  1334.22
                             1348.28  1361.61  1372.04  1384.65  1413.30
                             1446.00  1478.54  1528.99  1558.36  1589.08
                             1591.44  1616.21  1674.25  1739.17  1766.62
                             1771.48  1786.81  1809.53  1881.64  1918.18
                             1938.63  1967.43  2002.03  2019.28  2041.72
                             2047.86  2060.85  2063.53  2089.37  2101.21
                             2144.19  2170.74  2188.98  2195.80  2206.47
                             2210.21  2225.33  2245.86  2331.90  2444.34
                             4324.13  4342.08  4370.78  4373.99  4381.81
                             4396.82  4442.67  4457.33  4465.86  4471.34
                             4472.64  4477.80  4482.98  4497.19  4991.94
                             5117.77  5309.24

 Zero-point correction=                           0.268926 (Hartree/Particle)
 Thermal correction to Energy=                    0.284036
 Thermal correction to Enthalpy=                  0.284980
 Thermal correction to Gibbs Free Energy=         0.225033
 Sum of electronic and zero-point Energies=           -667.638523
 Sum of electronic and thermal Energies=              -667.623414
 Sum of electronic and thermal Enthalpies=            -667.622470
 Sum of electronic and thermal Free Energies=         -667.682416

                     E (Thermal)             CV                S
                      KCal/Mol        Cal/Mol-Kelvin    Cal/Mol-Kelvin
 Total                  178.235             55.487            126.169
 Electronic               0.000              0.000              0.000
 Translational            0.889              2.981             41.771
 Rotational               0.889              2.981             32.229
 Vibrational            176.458             49.526             52.168
 Vibration     1          0.593              1.985              6.364
 Vibration     2          0.593              1.985              6.173
 Vibration     3          0.596              1.976              4.642
 Vibration     4          0.597              1.970              4.268
 Vibration     5          0.610              1.930              3.051
 Vibration     6          0.615              1.914              2.814
 Vibration     7          0.621              1.894              2.572
 Vibration     8          0.632              1.857              2.250
 Vibration     9          0.646              1.815              1.982
 Vibration    10          0.656              1.784              1.823
 Vibration    11          0.666              1.752              1.686
 Vibration    12          0.671              1.738              1.633
 Vibration    13          0.684              1.697              1.490
 Vibration    14          0.698              1.657              1.370
 Vibration    15          0.715              1.610              1.246
 Vibration    16          0.733              1.558              1.130
 Vibration    17          0.773              1.453              0.934
 Vibration    18          0.785              1.421              0.882
 Vibration    19          0.843              1.280              0.693
 Vibration    20          0.846              1.272              0.683
 Vibration    21          0.894              1.164              0.567
 Vibration    22          0.923              1.103              0.511

 Optimization completed.
    -- Stationary point found.
 Normal termination of Gaussian 16 at Thu Dec 10 09:31:10 2020.

 ----------------------------------------------------------------------
 # B3LYP/6-311++G(d,p) empiricaldispersion=gd3bj scf=xqc pop=npa geom=c
 heck
 ----------------------------------------------------------------------

 ---------------------------------------
 CID_104826862_JID_4068_Energie_neutraal
 ---------------------------------------
 Structure from the checkpoint file:  "JID_4068.chk"
 Charge =  0 Multiplicity = 1

 SCF Done:  E(RB3LYP) =  -668.110401259     A.U. after   14 cycles
 Normal termination of Gaussian 16 at Thu Dec 10 09:34:27 2020.

 ----------------------------------------------------------------------
 # B3LYP/6-311++G(d,p) empiricaldispersion=gd3bj scf=xqc pop=npa geom=c
 heck
 ----------------------------------------------------------------------

 -------------------------------------
 CID_104826862_JID_4068_Energie_kation
 -------------------------------------
 Structure from the checkpoint file:  "JID_4068.chk"
 Charge =  1 Multiplicity = 2

 SCF Done:  E(UB3LYP) =  -667.770178646     A.U. after   25 cycles
 Normal termination of Gaussian 16 at Thu Dec 10 09:43:47 2020.
 Gaussian 16:  ES64L-G16RevA.03 25-Dec-2016

 ----------------------------------------------------------------------
 # B3LYP/6-311++G(d,p) empiricaldispersion=gd3bj scf=xqc pop=npa geom=c
 heck
 ----------------------------------------------------------------------

 ------------------------------------
 CID_104826862_JID_4068_Energie_anion
 ------------------------------------
 Structure from the checkpoint file:  "JID_4068.chk"
 Charge = -1 Multiplicity = 2

                         Standard orientation:
 ---------------------------------------------------------------------
 Center     Atomic      Atomic             Coordinates (Angstroms)
 Number     Number       Type             X           Y           Z
 ---------------------------------------------------------------------
      1          6           0       -2.683595   -1.543141    1.219969
      2          6           0       -2.507331   -1.098819   -0.238073
      3          6           0       -3.528809   -1.789202   -1.150002
      4          6           0       -2.613884    0.426624   -0.402308
      5          6           0       -1.643318    1.254347    0.457051
      6          6           0       -0.225869    0.780576    0.281999
      7          7           0        0.578965    0.262790    1.166661
      8          6           0        1.730720    0.033056    0.436763
      9          7           0        1.647191    0.394017   -0.820908
     10          8           0        0.334673    0.893969   -0.938347
     11          6           0        2.974401   -0.563449    1.018382
     12          6           0        3.939886   -1.109643   -0.042500
     13          8           0        4.442355   -0.103954   -0.900622
     14          7           0       -1.821614    2.678662    0.158185
     15          1           0       -3.638056   -1.182226    1.624776
     16          1           0       -1.876970   -1.172317    1.860480
     17          1           0       -2.684385   -2.636503    1.292340
     18          1           0       -1.503959   -1.407193   -0.567038
     19          1           0       -4.553044   -1.528397   -0.854695
     20          1           0       -3.396184   -1.491684   -2.196668
     21          1           0       -3.432752   -2.879190   -1.093764
     22          1           0       -2.444976    0.685483   -1.456543
     23          1           0       -3.626626    0.764526   -0.151988
     24          1           0       -1.874498    1.106931    1.515239
     25          1           0        3.483928    0.205908    1.612899
     26          1           0        2.676498   -1.357040    1.713836
     27          1           0        4.806727   -1.548577    0.460605
     28          1           0        3.440865   -1.913043   -0.607362
     29          1           0        3.680493    0.236214   -1.402028
     30          1           0       -1.213830    3.241588    0.751158
     31          1           0       -1.544445    2.865004   -0.804749
 ---------------------------------------------------------------------

 SCF Done:  E(UB3LYP) =  -668.100948896     A.U. after   33 cycles
 SCF Done:  E(UB3LYP) =  -668.100948896     a.u. after    1 cycles

 The electronic state is 2-A.
 Alpha  occ. eigenvalues --  -19.09136 -19.01669 -14.24305 -14.20034 -14.19384
 Alpha  occ. eigenvalues --  -10.14439 -10.12424 -10.12300 -10.11064 -10.08307
 Alpha  occ. eigenvalues --  -10.07603 -10.06708 -10.06254 -10.05706  -1.04203
 Alpha  occ. eigenvalues --   -0.92210  -0.82033  -0.79984  -0.75102  -0.70996
 Alpha  occ. eigenvalues --   -0.66420  -0.62498  -0.58728  -0.55621  -0.54985
 Alpha  occ. eigenvalues --   -0.50293  -0.47747  -0.45055  -0.41393  -0.40307
 Alpha  occ. eigenvalues --   -0.39229  -0.38073  -0.36247  -0.35799  -0.34481
 Alpha  occ. eigenvalues --   -0.33399  -0.32703  -0.32057  -0.30302  -0.29760
 Alpha  occ. eigenvalues --   -0.28780  -0.28202  -0.27399  -0.26360  -0.24580
 Alpha  occ. eigenvalues --   -0.23107  -0.23079  -0.22682  -0.21948  -0.20938
 Alpha  occ. eigenvalues --   -0.18588  -0.18274  -0.17278  -0.14820   0.04684
 Alpha virt. eigenvalues --    0.06509   0.07160   0.07929   0.08410   0.08941
 Alpha virt. eigenvalues --    0.09487   0.10107   0.10430   0.10579   0.11095
 Alpha virt. eigenvalues --    0.11782   0.12712   0.12807   0.13404   0.13929

  Beta  occ. eigenvalues --  -19.08939 -19.01664 -14.24094 -14.20056 -14.19307
  Beta  occ. eigenvalues --  -10.14212 -10.12366 -10.12292 -10.11070 -10.08302
  Beta  occ. eigenvalues --  -10.07596 -10.06687 -10.06235 -10.05690  -1.03883
  Beta  occ. eigenvalues --   -0.92201  -0.81868  -0.79796  -0.74820  -0.70953
  Beta  occ. eigenvalues --   -0.66339  -0.62385  -0.58691  -0.55485  -0.54834
  Beta  occ. eigenvalues --   -0.50172  -0.47636  -0.44940  -0.41331  -0.40209
  Beta  occ. eigenvalues --   -0.39113  -0.37503  -0.36120  -0.35738  -0.34352
  Beta  occ. eigenvalues --   -0.33279  -0.32647  -0.31967  -0.30154  -0.29709
  Beta  occ. eigenvalues --   -0.28741  -0.28113  -0.27256  -0.26302  -0.24470
  Beta  occ. eigenvalues --   -0.23070  -0.23011  -0.22643  -0.21761  -0.20439
  Beta  occ. eigenvalues --   -0.18493  -0.17910  -0.16733  -0.14529
  Beta virt. eigenvalues --    0.06756   0.07338   0.08026   0.08631   0.09162
  Beta virt. eigenvalues --    0.09397   0.09737   0.10479   0.10600   0.10829
  Beta virt. eigenvalues --    0.11224   0.11890   0.12790   0.12989   0.13594

 Mulliken charges and spin densities:
               1          2
     1  C    0.129703  -0.902990
     2  C   -0.846827   1.472963
     3  C    0.340318  -0.851007
     4  C    0.214908  -0.834748
     5  C    0.831392  -1.043228
     6  C   -1.462533   0.860036
     7  N    0.043730   0.059489
     8  C    0.669203  -0.332907
     9  N   -0.646572   0.221028
    10  O    0.337907   0.033110
    11  C    0.080260  -0.409155
    12  C   -0.028394  -0.444876
    13  O   -0.289652   0.023933
    14  N   -0.357270   0.114401
    15  H   -0.056295   0.194458
    16  H    0.139409   0.031466
    17  H   -0.124152   0.249981
    18  H    0.073608   0.125552
    19  H    0.004560   0.119059
    20  H   -0.058356   0.190746
    21  H   -0.235263   0.387003
    22  H    0.054459   0.102813
    23  H    0.067205   0.098320
    24  H    0.154914   0.089778
    25  H   -0.019044   0.218198
    26  H   -0.019654   0.152757
    27  H    0.075623   0.086866
    28  H    0.009587   0.137612
    29  H    0.230501   0.045571
    30  H   -0.294725   0.547518
    31  H   -0.018549   0.256254
 Sum of Mulliken charges =  -1.00000   1.00000

 Dipole moment (field-independent basis, Debye):
    X=              0.6662    Y=             -1.6717    Z=              0.0627  Tot=              1.8007
 Quadrupole moment (field-independent basis, Debye-Ang):
   XX=           -152.1742   YY=           -132.4935   ZZ=           -112.3192
   XY=             -4.3172   XZ=              3.6172   YZ=             -2.5024

 Summary of Natural Population Analysis:

                                       Natural Population
                Natural  -----------------------------------------------
    Atom  No    Charge         Core      Valence    Rydberg      Total
 -----------------------------------------------------------------------
      C    1   -0.28696      0.99965     2.28211    0.00521     3.28696
      C    2   -0.12042      0.99961     2.10999    0.01082     3.12042
      C    3   -0.27969      0.99965     2.27518    0.00486     3.27969
      C    4   -0.18058      0.99960     2.17223    0.00875     3.18058
      C    5   -0.04434      0.99954     2.03110    0.01370     3.04434
      C    6    0.31937      0.99959     1.65891    0.02213     2.68063
      N    7   -0.28231      0.99967     2.77266    0.00998     3.78231
      C    8    0.18392      0.99964     1.79726    0.01918     2.81608
      N    9   -0.09959      0.99963     2.58615    0.01380     3.59959
      O   10   -0.16090      0.99985     3.15259    0.00846     4.16090
      C   11   -0.22102      0.99958     2.21392    0.00752     3.22102
      C   12   -0.00609      0.99962     1.99448    0.01199     3.00609
      O   13   -0.37893      0.99990     3.37160    0.00743     4.37893
      N   14   -0.40988      0.99977     2.89996    0.01014     3.90988
      H   15    0.09306      0.00000     0.40590    0.00104     0.40694
      H   16    0.10643      0.00000     0.39227    0.00130     0.39357
      H   17    0.09897      0.00000     0.39994    0.00109     0.40103
      H   18    0.09629      0.00000     0.40159    0.00212     0.40371
      H   19    0.09409      0.00000     0.40486    0.00106     0.40591
      H   20    0.09819      0.00000     0.40081    0.00100     0.40181
      H   21    0.09907      0.00000     0.39985    0.00108     0.40093
      H   22    0.09899      0.00000     0.39967    0.00134     0.40101
      H   23    0.10060      0.00000     0.39816    0.00124     0.39940
      H   24    0.10491      0.00000     0.39310    0.00199     0.39509
      H   25    0.10967      0.00000     0.38864    0.00169     0.39033
      H   26    0.11005      0.00000     0.38834    0.00161     0.38995
      H   27    0.08291      0.00000     0.41569    0.00139     0.41709
      H   28    0.07732      0.00000     0.42114    0.00154     0.42268
      H   29    0.24129      0.00000     0.25505    0.00366     0.25871
      H   30    0.18057      0.00000     0.31634    0.00309     0.31943
      H   31    0.17499      0.00000     0.32274    0.00227     0.32501
 =======================================================================
   * Total *   -0.00000     13.99528    39.82225    0.18247    54.00000

 Normal termination of Gaussian 16 at Thu Dec 10 09:54:46 2020.
