 Gaussian 16, Revision A.03,

 -----------------------------------------------------------
 # opt freq B3LYP/6-31G(d) empiricaldispersion=gd3bj scf=xqc
 -----------------------------------------------------------

 ----------------------------
 CID_767187_JID_2628_neutraal
 ----------------------------
 Symbolic Z-matrix:
 Charge =  0 Multiplicity = 1

 SCF Done:  E(RB3LYP) =  -930.938275184     A.U. after   15 cycles
 SCF Done:  E(RB3LYP) =  -930.945042265     A.U. after   13 cycles
 SCF Done:  E(RB3LYP) =  -930.946068015     A.U. after   12 cycles
 SCF Done:  E(RB3LYP) =  -930.945196481     A.U. after   12 cycles
 SCF Done:  E(RB3LYP) =  -930.946584895     A.U. after   12 cycles
 SCF Done:  E(RB3LYP) =  -930.946739819     A.U. after   11 cycles
 SCF Done:  E(RB3LYP) =  -930.946859914     A.U. after   12 cycles
 SCF Done:  E(RB3LYP) =  -930.946904652     A.U. after   11 cycles
 SCF Done:  E(RB3LYP) =  -930.946964617     A.U. after   12 cycles
 SCF Done:  E(RB3LYP) =  -930.947005453     A.U. after   11 cycles
 SCF Done:  E(RB3LYP) =  -930.947020326     A.U. after   11 cycles
 SCF Done:  E(RB3LYP) =  -930.947021793     A.U. after   10 cycles
 SCF Done:  E(RB3LYP) =  -930.947021916     A.U. after    8 cycles
 Optimization completed.
    -- Stationary point found.
 Normal termination of Gaussian 16 at Wed Dec  9 17:45:06 2020.

 --------------------------------------------------------------------
 #N Geom=AllCheck Guess=TCheck SCRF=Check GenChk RB3LYP/6-31G(d) Freq
 --------------------------------------------------------------------

 Structure from the checkpoint file:  "JID_2628.chk"
 ----------------------------
 CID_767187_JID_2628_neutraal
 ----------------------------
 Charge =  0 Multiplicity = 1

 SCF Done:  E(RB3LYP) =  -930.947021916     A.U. after    1 cycles

  Exact polarizability: 148.789  -5.650 109.616   7.072  -0.008  70.274
 Approx polarizability: 208.799 -24.829 185.744  16.288  -1.559 108.354

                      1                      2                      3
                      A                      A                      A
 Frequencies --     26.0354                69.8609               144.8429
 Red. masses --      5.1363                 5.4615                 3.9388
 Frc consts  --      0.0021                 0.0157                 0.0487
 IR Inten    --      2.2077                 0.4097                 1.3119

                      4                      5                      6
                      A                      A                      A
 Frequencies --    151.4374               167.5251               258.3182
 Red. masses --      4.4973                 4.5493                 2.2039
 Frc consts  --      0.0608                 0.0752                 0.0866
 IR Inten    --      3.3219                 1.8967                 1.0700

                      7                      8                      9
                      A                      A                      A
 Frequencies --    277.2018               327.4377               381.5929
 Red. masses --      3.5357                 4.9940                 8.4145
 Frc consts  --      0.1601                 0.3155                 0.7219
 IR Inten    --      8.8675                 5.2922                 7.6900

                     10                     11                     12
                      A                      A                      A
 Frequencies --    424.8273               450.1494               485.5711
 Red. masses --      1.9082                 4.2780                 3.0814
 Frc consts  --      0.2029                 0.5107                 0.4281
 IR Inten    --      1.2578                 1.6796                 0.5553

                     13                     14                     15
                      A                      A                      A
 Frequencies --    522.8980               557.3328               572.0555
 Red. masses --      6.0532                 2.9584                 5.3607
 Frc consts  --      0.9751                 0.5414                 1.0336
 IR Inten    --      2.3354                 0.6106                 9.7236

                     16                     17                     18
                      A                      A                      A
 Frequencies --    641.2857               666.1470               671.5870
 Red. masses --      2.1167                11.2250                 8.6112
 Frc consts  --      0.5129                 2.9348                 2.2883
 IR Inten    --     10.5132                12.1814                93.7831

                     19                     20                     21
                      A                      A                      A
 Frequencies --    789.2909               849.5507               865.6142
 Red. masses --      5.0880                 5.3211                 1.6408
 Frc consts  --      1.8676                 2.2627                 0.7244
 IR Inten    --      1.9864                 9.5712                 0.5887

                     22                     23                     24
                      A                      A                      A
 Frequencies --    876.4222               927.2961               944.5964
 Red. masses --      3.8134                 2.4812                 1.7010
 Frc consts  --      1.7258                 1.2571                 0.8942
 IR Inten    --     12.7541                22.8613                 7.6206

                     25                     26                     27
                      A                      A                      A
 Frequencies --    956.1999              1029.6433              1061.2429
 Red. masses --      3.2696                 2.3601                 2.4548
 Frc consts  --      1.7614                 1.4742                 1.6289
 IR Inten    --    115.0846                 5.1999                14.3510

                     28                     29                     30
                      A                      A                      A
 Frequencies --   1103.7021              1134.0574              1147.2461
 Red. masses --      1.7433                 4.6522                 2.7404
 Frc consts  --      1.2512                 3.5251                 2.1251
 IR Inten    --     11.5630               142.5104                46.2348

                     31                     32                     33
                      A                      A                      A
 Frequencies --   1156.6476              1164.6062              1235.1664
 Red. masses --      2.5298                 1.4834                 1.7530
 Frc consts  --      1.9941                 1.1854                 1.5757
 IR Inten    --    119.9746                40.1355                 5.4488

                     34                     35                     36
                      A                      A                      A
 Frequencies --   1255.8257              1263.1882              1302.5161
 Red. masses --      1.1472                 1.6871                 1.4218
 Frc consts  --      1.0660                 1.5861                 1.4212
 IR Inten    --     36.3226               115.0747                29.2172

                     37                     38                     39
                      A                      A                      A
 Frequencies --   1322.9782              1342.1330              1376.8621
 Red. masses --      1.6493                 1.2220                 1.2411
 Frc consts  --      1.7009                 1.2969                 1.3863
 IR Inten    --    143.5708                22.9120                 0.4717

                     40                     41                     42
                      A                      A                      A
 Frequencies --   1406.9041              1415.8656              1441.3138
 Red. masses --      1.2698                 1.4055                 1.3494
 Frc consts  --      1.4809                 1.6601                 1.6516
 IR Inten    --     21.2242                11.1461                 8.5683

                     43                     44                     45
                      A                      A                      A
 Frequencies --   1490.2101              1507.2111              1511.8443
 Red. masses --      1.2609                 1.1034                 1.6968
 Frc consts  --      1.6498                 1.4768                 2.2851
 IR Inten    --     13.3158                 5.0588                25.4116

                     46                     47                     48
                      A                      A                      A
 Frequencies --   1513.2675              1517.5165              1526.7482
 Red. masses --      1.1609                 1.4380                 1.1104
 Frc consts  --      1.5663                 1.9511                 1.5250
 IR Inten    --     18.2812                18.9716                 4.5463

                     49                     50                     51
                      A                      A                      A
 Frequencies --   1648.4499              1857.0183              2996.4459
 Red. masses --      7.2035                13.0790                 1.0709
 Frc consts  --     11.5331                26.5740                 5.6653
 IR Inten    --    851.4982               447.3152                35.1147

                     52                     53                     54
                      A                      A                      A
 Frequencies --   3010.8889              3045.1714              3053.4356
 Red. masses --      1.0708                 1.0706                 1.0705
 Frc consts  --      5.7194                 5.8490                 5.8803
 IR Inten    --     44.1170                23.6167                52.8468

                     55                     56                     57
                      A                      A                      A
 Frequencies --   3070.9941              3116.8488              3122.0332
 Red. masses --      1.0570                 1.1074                 1.0947
 Frc consts  --      5.8731                 6.3386                 6.2865
 IR Inten    --     21.6376                 2.1890                36.0423

                     58                     59                     60
                      A                      A                      A
 Frequencies --   3129.7870              3159.1613              3175.2811
 Red. masses --      1.0957                 1.0931                 1.0948
 Frc consts  --      6.3238                 6.4275                 6.5035
 IR Inten    --     32.1391                11.5038                 3.4296

 - Thermochemistry -
 -------------------
 Temperature   298.150 Kelvin.  Pressure   1.00000 Atm.
 Atom     1 has atomic number  6 and mass  12.00000

 Molecular mass:   186.04630 amu.
 Principal axes and moments of inertia in atomic units:
                           1         2         3
     Eigenvalues --   902.592063991.879984684.82673
           X            0.99999   0.00385  -0.00241
           Y           -0.00386   0.99999  -0.00126
           Z            0.00240   0.00127   1.00000
 This molecule is an asymmetric top.
 Rotational symmetry number  1.
 Warning -- assumption of classical behavior for rotation
           may cause significant error
 Rotational temperatures (Kelvin)      0.09596     0.02170     0.01849
 Rotational constants (GHZ):           1.99951     0.45210     0.38523
 Zero-point vibrational energy     464254.5 (Joules/Mol)
                                  110.95948 (Kcal/Mol)
 Warning -- explicit consideration of  15 degrees of freedom as
           vibrations may cause significant error
 Vibrational temperatures:     37.46   100.51   208.40   217.88   241.03
          (Kelvin)            371.66   398.83   471.11   549.03   611.23
                              647.66   698.63   752.33   801.88   823.06
                              922.67   958.44   966.26  1135.61  1222.31
                             1245.43  1260.98  1334.17  1359.06  1375.76
                             1481.43  1526.89  1587.98  1631.66  1650.63
                             1664.16  1675.61  1777.13  1806.85  1817.45
                             1874.03  1903.47  1931.03  1981.00  2024.22
                             2037.11  2073.73  2144.08  2168.54  2175.21
                             2177.25  2183.37  2196.65  2371.75  2671.84
                             4311.22  4332.00  4381.32  4393.21  4418.48
                             4484.45  4491.91  4503.07  4545.33  4568.52

 Zero-point correction=                           0.176825 (Hartree/Particle)
 Thermal correction to Energy=                    0.187333
 Thermal correction to Enthalpy=                  0.188277
 Thermal correction to Gibbs Free Energy=         0.139200
 Sum of electronic and zero-point Energies=           -930.770197
 Sum of electronic and thermal Energies=              -930.759689
 Sum of electronic and thermal Enthalpies=            -930.758745
 Sum of electronic and thermal Free Energies=         -930.807822

                     E (Thermal)             CV                S
                      KCal/Mol        Cal/Mol-Kelvin    Cal/Mol-Kelvin
 Total                  117.553             39.794            103.292
 Electronic               0.000              0.000              0.000
 Translational            0.889              2.981             41.569
 Rotational               0.889              2.981             31.202
 Vibrational            115.776             33.833             30.521
 Vibration     1          0.593              1.985              6.111
 Vibration     2          0.598              1.968              4.157
 Vibration     3          0.616              1.908              2.739
 Vibration     4          0.619              1.901              2.654
 Vibration     5          0.624              1.882              2.463
 Vibration     6          0.667              1.749              1.673
 Vibration     7          0.678              1.716              1.551
 Vibration     8          0.711              1.621              1.273
 Vibration     9          0.751              1.509              1.033
 Vibration    10          0.787              1.416              0.876
 Vibration    11          0.809              1.361              0.795
 Vibration    12          0.842              1.282              0.695
 Vibration    13          0.878              1.199              0.603
 Vibration    14          0.913              1.124              0.529
 Vibration    15          0.928              1.092              0.500

 Optimization completed.
    -- Stationary point found.
 Normal termination of Gaussian 16 at Wed Dec  9 17:50:36 2020.

 ----------------------------------------------------------------------
 # B3LYP/6-311++G(d,p) empiricaldispersion=gd3bj scf=xqc pop=npa geom=c
 heck
 ----------------------------------------------------------------------

 ------------------------------------
 CID_767187_JID_2628_Energie_neutraal
 ------------------------------------
 Structure from the checkpoint file:  "JID_2628.chk"
 Charge =  0 Multiplicity = 1

 SCF Done:  E(RB3LYP) =  -931.124768285     A.U. after   14 cycles
 Normal termination of Gaussian 16 at Wed Dec  9 17:53:02 2020.

 ----------------------------------------------------------------------
 # B3LYP/6-311++G(d,p) empiricaldispersion=gd3bj scf=xqc pop=npa geom=c
 heck
 ----------------------------------------------------------------------

 ----------------------------------
 CID_767187_JID_2628_Energie_kation
 ----------------------------------
 Structure from the checkpoint file:  "JID_2628.chk"
 Charge =  1 Multiplicity = 2

 SCF Done:  E(UB3LYP) =  -930.808928546     A.U. after   26 cycles
 Normal termination of Gaussian 16 at Wed Dec  9 17:59:54 2020.
 Gaussian 16:  ES64L-G16RevA.03 25-Dec-2016

 ----------------------------------------------------------------------
 # B3LYP/6-311++G(d,p) empiricaldispersion=gd3bj scf=xqc pop=npa geom=c
 heck
 ----------------------------------------------------------------------

 ---------------------------------
 CID_767187_JID_2628_Energie_anion
 ---------------------------------
 Structure from the checkpoint file:  "JID_2628.chk"
 Charge = -1 Multiplicity = 2

                         Standard orientation:
 ---------------------------------------------------------------------
 Center     Atomic      Atomic             Coordinates (Angstroms)
 Number     Number       Type             X           Y           Z
 ---------------------------------------------------------------------
      1          6           0        1.604812    1.239828    0.566092
      2          6           0        2.764719    1.279324   -0.425469
      3          8           0        3.616276    0.149822   -0.265413
      4          6           0        2.910261   -1.058247   -0.483369
      5          6           0        1.751367   -1.206918    0.507024
      6          7           0        0.888206   -0.032148    0.419633
      7          6           0       -0.442174   -0.063037    0.212409
      8          7           0       -1.139114    1.035229    0.134990
      9          6           0       -2.493232    0.831292   -0.076213
     10          8           0       -3.345983    1.670671   -0.186596
     11         16           0       -2.900857   -0.986095   -0.180384
     12          6           0       -1.153398   -1.406266    0.067177
     13          1           0        1.991445    1.307337    1.591364
     14          1           0        0.896822    2.050340    0.395909
     15          1           0        2.371676    1.314673   -1.453945
     16          1           0        3.385295    2.162526   -0.254217
     17          1           0        3.628867   -1.871947   -0.352052
     18          1           0        2.516330   -1.093463   -1.512649
     19          1           0        2.151940   -1.280142    1.527152
     20          1           0        1.186434   -2.115103    0.295084
     21          1           0       -1.015181   -2.014968    0.966452
     22          1           0       -0.760042   -1.963094   -0.789154
 ---------------------------------------------------------------------

 SCF Done:  E(UB3LYP) =  -931.124487636     A.U. after   29 cycles

 The electronic state is 2-A.
 Alpha  occ. eigenvalues --  -88.73700 -19.03687 -18.98598 -14.25492 -14.18684
 Alpha  occ. eigenvalues --  -10.16931 -10.14894 -10.12983 -10.12372 -10.11297
 Alpha  occ. eigenvalues --  -10.10982 -10.10946  -7.82369  -5.78718  -5.78384
 Alpha  occ. eigenvalues --   -5.77789  -0.95538  -0.93599  -0.88452  -0.80671
 Alpha  occ. eigenvalues --   -0.69462  -0.67678  -0.64518  -0.57850  -0.56464
 Alpha  occ. eigenvalues --   -0.51652  -0.47495  -0.44328  -0.41342  -0.39234
 Alpha  occ. eigenvalues --   -0.38726  -0.37399  -0.36870  -0.35971  -0.34045
 Alpha  occ. eigenvalues --   -0.33390  -0.31329  -0.30088  -0.29912  -0.28024
 Alpha  occ. eigenvalues --   -0.27300  -0.24632  -0.24315  -0.22528  -0.18162
 Alpha  occ. eigenvalues --   -0.17481  -0.14643  -0.14372  -0.12743   0.03957
 Alpha virt. eigenvalues --    0.07041   0.07683   0.07790   0.08622   0.10274
 Alpha virt. eigenvalues --    0.10409   0.11159   0.11365   0.11735   0.12022
 Alpha virt. eigenvalues --    0.13549   0.14204   0.15054   0.15523   0.15645

  Beta  occ. eigenvalues --  -88.73698 -19.03681 -18.98485 -14.25483 -14.18697
  Beta  occ. eigenvalues --  -10.16831 -10.14616 -10.12968 -10.12329 -10.11257
  Beta  occ. eigenvalues --  -10.10971 -10.10933  -7.82367  -5.78714  -5.78385
  Beta  occ. eigenvalues --   -5.77785  -0.95519  -0.93389  -0.88268  -0.80546
  Beta  occ. eigenvalues --   -0.69405  -0.67622  -0.64341  -0.57781  -0.56322
  Beta  occ. eigenvalues --   -0.51542  -0.47327  -0.44199  -0.41160  -0.39176
  Beta  occ. eigenvalues --   -0.38579  -0.37239  -0.36762  -0.35799  -0.33922
  Beta  occ. eigenvalues --   -0.33309  -0.31268  -0.29942  -0.29429  -0.27968
  Beta  occ. eigenvalues --   -0.27250  -0.24504  -0.23908  -0.22343  -0.18038
  Beta  occ. eigenvalues --   -0.17418  -0.14586  -0.14122  -0.12665
  Beta virt. eigenvalues --    0.06937   0.08027   0.08319   0.08831   0.09564
  Beta virt. eigenvalues --    0.10683   0.10920   0.11440   0.11527   0.12001
  Beta virt. eigenvalues --    0.12265   0.13743   0.14521   0.15162   0.15584

 Mulliken charges and spin densities:
               1          2
     1  C    0.073168  -0.271490
     2  C   -0.024075  -0.222332
     3  O   -0.207743   0.083574
     4  C    1.133292  -1.545753
     5  C    0.139438  -0.185084
     6  N   -0.009799   0.152891
     7  C   -0.597631   0.268492
     8  N   -0.107719  -0.004327
     9  C    0.024973   0.082365
    10  O   -0.348268   0.037345
    11  S   -0.057747  -0.095662
    12  C    0.800864  -0.917758
    13  H   -0.158154   0.331662
    14  H    0.224180  -0.031595
    15  H    0.044611   0.086765
    16  H   -0.030000   0.206726
    17  H   -0.566133   0.761933
    18  H   -0.083127   0.229672
    19  H   -0.323428   0.521981
    20  H   -0.685326   0.857986
    21  H   -0.062913   0.266928
    22  H   -0.178464   0.385681
 Sum of Mulliken charges =  -1.00000   1.00000

 Dipole moment (field-independent basis, Debye):
    X=              0.1066    Y=              2.1722    Z=             -0.4515  Tot=              2.2212
 Quadrupole moment (field-independent basis, Debye-Ang):
   XX=           -148.7078   YY=           -118.4753   ZZ=            -99.4236
   XY=             19.2332   XZ=             -5.3278   YZ=             -0.8007

 Summary of Natural Population Analysis:

                                       Natural Population
                Natural  -----------------------------------------------
    Atom  No    Charge         Core      Valence    Rydberg      Total
 -----------------------------------------------------------------------
      C    1   -0.10055      0.99961     2.09191    0.00903     3.10055
      C    2   -0.01319      0.99958     2.00289    0.01071     3.01319
      O    3   -0.29723      0.99989     3.28762    0.00972     4.29723
      C    4   -0.01418      0.99958     2.00037    0.01423     3.01418
      C    5   -0.09914      0.99961     2.08738    0.01216     3.09914
      N    6   -0.23362      0.99962     2.72285    0.01115     3.73362
      C    7    0.29948      0.99956     1.68508    0.01589     2.70052
      N    8   -0.31869      0.99960     2.80785    0.01123     3.81869
      C    9    0.29264      0.99973     1.67836    0.02927     2.70736
      O   10   -0.28759      0.99986     3.27952    0.00821     4.28759
      S   11    0.04749      4.99961     2.93459    0.01830     7.95251
      C   12   -0.28862      0.99957     2.27954    0.00950     3.28862
      H   13    0.09616      0.00000     0.40229    0.00155     0.40384
      H   14    0.12098      0.00000     0.37704    0.00198     0.37902
      H   15    0.08022      0.00000     0.41823    0.00155     0.41978
      H   16    0.09245      0.00000     0.40624    0.00131     0.40755
      H   17    0.09927      0.00000     0.39761    0.00313     0.40073
      H   18    0.07917      0.00000     0.41904    0.00180     0.42083
      H   19    0.10038      0.00000     0.39605    0.00357     0.39962
      H   20    0.11067      0.00000     0.38558    0.00376     0.38933
      H   21    0.11377      0.00000     0.38473    0.00151     0.38623
      H   22    0.12014      0.00000     0.37706    0.00280     0.37986
 =======================================================================
   * Total *   -0.00000     15.99581    32.82181    0.18237    49.00000

 Normal termination of Gaussian 16 at Wed Dec  9 18:07:31 2020.
