 Gaussian 16, Revision A.03,

 -----------------------------------------------------------
 # opt freq B3LYP/6-31G(d) empiricaldispersion=gd3bj scf=xqc
 -----------------------------------------------------------

 -------------------------------
 CID_106489736_JID_6807_neutraal
 -------------------------------
 Symbolic Z-matrix:
 Charge =  0 Multiplicity = 1

 SCF Done:  E(RB3LYP) =  -751.565421631     A.U. after   14 cycles
 SCF Done:  E(RB3LYP) =  -751.571796788     A.U. after   13 cycles
 SCF Done:  E(RB3LYP) =  -751.573668960     A.U. after   13 cycles
 SCF Done:  E(RB3LYP) =  -751.574564533     A.U. after   12 cycles
 SCF Done:  E(RB3LYP) =  -751.574766627     A.U. after   12 cycles
 SCF Done:  E(RB3LYP) =  -751.574988094     A.U. after   12 cycles
 SCF Done:  E(RB3LYP) =  -751.575472683     A.U. after   12 cycles
 SCF Done:  E(RB3LYP) =  -751.575605888     A.U. after   12 cycles
 SCF Done:  E(RB3LYP) =  -751.575933802     A.U. after   12 cycles
 SCF Done:  E(RB3LYP) =  -751.576175846     A.U. after   11 cycles
 SCF Done:  E(RB3LYP) =  -751.581871600     A.U. after   10 cycles
 SCF Done:  E(RB3LYP) =  -751.581875746     A.U. after    9 cycles
 SCF Done:  E(RB3LYP) =  -751.581876211     A.U. after    9 cycles
 SCF Done:  E(RB3LYP) =  -751.581876558     A.U. after    7 cycles
 SCF Done:  E(RB3LYP) =  -751.581876601     A.U. after    7 cycles
 Optimization completed.
    -- Stationary point found.
 Normal termination of Gaussian 16 at Fri Dec 11 01:03:03 2020.

 --------------------------------------------------------------------
 #N Geom=AllCheck Guess=TCheck SCRF=Check GenChk RB3LYP/6-31G(d) Freq
 --------------------------------------------------------------------

 Structure from the checkpoint file:  "JID_6807.chk"
 -------------------------------
 CID_106489736_JID_6807_neutraal
 -------------------------------
 Charge =  0 Multiplicity = 1

 SCF Done:  E(RB3LYP) =  -751.581876601     A.U. after    1 cycles

  Exact polarizability: 161.440  -3.181 131.198  -2.732   0.524 125.018
 Approx polarizability: 189.730  -6.757 190.561  -0.621  -2.697 195.065

                      1                      2                      3
                      A                      A                      A
 Frequencies --     26.1436                39.7790                46.4420
 Red. masses --      4.0038                 3.2529                 2.9350
 Frc consts  --      0.0016                 0.0030                 0.0037
 IR Inten    --      0.0164                 0.0941                 0.2701

                      4                      5                      6
                      A                      A                      A
 Frequencies --     50.5021                87.6729               104.1207
 Red. masses --      3.8442                 4.8465                 4.3691
 Frc consts  --      0.0058                 0.0219                 0.0279
 IR Inten    --      0.2460                 1.7136                 2.1081

                      7                      8                      9
                      A                      A                      A
 Frequencies --    132.4900               151.9106               158.1153
 Red. masses --      4.0549                 3.3362                 2.8311
 Frc consts  --      0.0419                 0.0454                 0.0417
 IR Inten    --      1.2434                 2.4381                 3.3537

                     10                     11                     12
                      A                      A                      A
 Frequencies --    173.6391               203.5671               222.8607
 Red. masses --      3.1876                 2.9768                 1.5274
 Frc consts  --      0.0566                 0.0727                 0.0447
 IR Inten    --      4.3549                 1.3910                 2.5987

                     13                     14                     15
                      A                      A                      A
 Frequencies --    230.3733               232.4623               252.1291
 Red. masses --      1.3437                 1.4869                 3.5984
 Frc consts  --      0.0420                 0.0473                 0.1348
 IR Inten    --      3.0782                28.0433                 2.5560

                     16                     17                     18
                      A                      A                      A
 Frequencies --    263.8348               316.3864               322.5342
 Red. masses --      1.1091                 2.9853                 2.0182
 Frc consts  --      0.0455                 0.1761                 0.1237
 IR Inten    --      0.2031                 0.0520                 3.5872

                     19                     20                     21
                      A                      A                      A
 Frequencies --    335.5703               348.8098               385.0037
 Red. masses --      3.2029                 2.4407                 2.9826
 Frc consts  --      0.2125                 0.1750                 0.2605
 IR Inten    --      5.2036                 4.6982                 1.4492

                     22                     23                     24
                      A                      A                      A
 Frequencies --    398.6597               429.4784               452.2200
 Red. masses --      4.0101                 2.1907                 2.7233
 Frc consts  --      0.3755                 0.2381                 0.3281
 IR Inten    --      2.7717                 0.2031                 0.8072

                     25                     26                     27
                      A                      A                      A
 Frequencies --    472.0464               483.5714               571.2172
 Red. masses --      3.0765                 3.7753                 2.3489
 Frc consts  --      0.4039                 0.5201                 0.4516
 IR Inten    --      0.2096                 5.8305                14.9468

                     28                     29                     30
                      A                      A                      A
 Frequencies --    611.0313               650.9893               699.2738
 Red. masses --      1.4007                 3.3259                 2.4401
 Frc consts  --      0.3081                 0.8304                 0.7030
 IR Inten    --     76.5328                56.3814                11.3332

                     31                     32                     33
                      A                      A                      A
 Frequencies --    757.8678               804.2471               816.5824
 Red. masses --      3.3971                 1.0888                 2.2411
 Frc consts  --      1.1496                 0.4149                 0.8805
 IR Inten    --     63.5854                 3.0866                13.8913

                     34                     35                     36
                      A                      A                      A
 Frequencies --    839.8338               849.3070               871.9785
 Red. masses --      2.5172                 1.2320                 1.4261
 Frc consts  --      1.0460                 0.5236                 0.6389
 IR Inten    --      1.0688                 9.1192                92.1566

                     37                     38                     39
                      A                      A                      A
 Frequencies --    904.6944               925.9911               937.7682
 Red. masses --      2.2548                 2.7752                 1.4761
 Frc consts  --      1.0873                 1.4020                 0.7648
 IR Inten    --      8.2779                10.0963                 4.5281

                     40                     41                     42
                      A                      A                      A
 Frequencies --    950.4410               962.3951               976.5026
 Red. masses --      1.1976                 2.3211                 1.3911
 Frc consts  --      0.6374                 1.2666                 0.7815
 IR Inten    --      1.5862                33.6815                 1.7010

                     43                     44                     45
                      A                      A                      A
 Frequencies --    980.2674               992.0048               993.6268
 Red. masses --      2.5606                 1.8774                 1.7828
 Frc consts  --      1.4497                 1.0885                 1.0371
 IR Inten    --      8.1124                 6.4411                 1.7276

                     46                     47                     48
                      A                      A                      A
 Frequencies --   1062.7616              1069.1800              1084.3667
 Red. masses --      2.6956                 1.5159                 2.5177
 Frc consts  --      1.7938                 1.0210                 1.7442
 IR Inten    --     23.5516                 7.5528                 8.1470

                     49                     50                     51
                      A                      A                      A
 Frequencies --   1091.7396              1100.6458              1113.9369
 Red. masses --      1.9490                 1.4347                 3.0556
 Frc consts  --      1.3687                 1.0240                 2.2339
 IR Inten    --     12.4814                 3.0480                20.0718

                     52                     53                     54
                      A                      A                      A
 Frequencies --   1121.2605              1169.4714              1171.5612
 Red. masses --      1.5897                 2.1907                 1.0868
 Frc consts  --      1.1775                 1.7653                 0.8789
 IR Inten    --     10.4582                31.8665                 2.1078

                     55                     56                     57
                      A                      A                      A
 Frequencies --   1184.6991              1187.3234              1202.0322
 Red. masses --      5.4806                 2.3311                 1.7630
 Frc consts  --      4.5321                 1.9362                 1.5009
 IR Inten    --    126.4361               250.1166                 2.2795

                     58                     59                     60
                      A                      A                      A
 Frequencies --   1215.9237              1222.0615              1225.9790
 Red. masses --      1.7058                 1.4290                 1.8910
 Frc consts  --      1.4859                 1.2574                 1.6746
 IR Inten    --      2.5939                 1.1497                 8.5352

                     61                     62                     63
                      A                      A                      A
 Frequencies --   1255.8008              1266.0717              1285.6296
 Red. masses --      1.7715                 1.6584                 1.3569
 Frc consts  --      1.6460                 1.5662                 1.3214
 IR Inten    --     17.6533                20.9200                 1.8320

                     64                     65                     66
                      A                      A                      A
 Frequencies --   1290.1477              1302.9785              1346.3303
 Red. masses --      1.2394                 1.5222                 1.3094
 Frc consts  --      1.2154                 1.5226                 1.3983
 IR Inten    --      8.6570                 0.8785                 4.7521

                     67                     68                     69
                      A                      A                      A
 Frequencies --   1352.1263              1379.8414              1392.9964
 Red. masses --      1.1922                 2.2020                 1.4072
 Frc consts  --      1.2842                 2.4701                 1.6088
 IR Inten    --     11.3817                25.3418                17.7204

                     70                     71                     72
                      A                      A                      A
 Frequencies --   1396.3234              1414.2631              1417.9624
 Red. masses --      1.3534                 1.4010                 1.3769
 Frc consts  --      1.5547                 1.6510                 1.6311
 IR Inten    --      1.9456                25.7582                18.1180

                     73                     74                     75
                      A                      A                      A
 Frequencies --   1431.0507              1446.1953              1463.2859
 Red. masses --      1.2701                 1.2798                 1.4274
 Frc consts  --      1.5325                 1.5771                 1.8008
 IR Inten    --      5.2305                12.8967                 6.7572

                     76                     77                     78
                      A                      A                      A
 Frequencies --   1467.9973              1483.4964              1511.0841
 Red. masses --      1.4114                 1.0938                 1.0895
 Frc consts  --      1.7920                 1.4183                 1.4658
 IR Inten    --      2.5437                 2.2005                 8.4448

                     79                     80                     81
                      A                      A                      A
 Frequencies --   1521.5102              1522.8595              1530.1646
 Red. masses --      1.0541                 1.0440                 1.3652
 Frc consts  --      1.4377                 1.4265                 1.8833
 IR Inten    --      2.7307                 1.1604                 2.8442

                     82                     83                     84
                      A                      A                      A
 Frequencies --   1534.4767              1538.8508              1547.1791
 Red. masses --      1.0523                 1.0844                 1.0634
 Frc consts  --      1.4599                 1.5130                 1.4998
 IR Inten    --      5.7953                 6.4779                 3.6321

                     85                     86                     87
                      A                      A                      A
 Frequencies --   1550.9488              1563.0818              1697.3787
 Red. masses --      1.0793                 1.0850                 1.0863
 Frc consts  --      1.5296                 1.5619                 1.8440
 IR Inten    --     12.0640                 1.9917                28.3720

                     88                     89                     90
                      A                      A                      A
 Frequencies --   1826.6795              2960.7884              2971.8994
 Red. masses --      9.6567                 1.0567                 1.0610
 Frc consts  --     18.9848                 5.4577                 5.5213
 IR Inten    --    205.8076                26.6337                94.5691

                     91                     92                     93
                      A                      A                      A
 Frequencies --   2993.9754              3002.4902              3022.9932
 Red. masses --      1.1047                 1.0966                 1.0731
 Frc consts  --      5.8345                 5.8248                 5.7778
 IR Inten    --     52.2457                62.9888                56.2473

                     94                     95                     96
                      A                      A                      A
 Frequencies --   3033.1665              3038.8537              3043.9922
 Red. masses --      1.0830                 1.0375                 1.0406
 Frc consts  --      5.8703                 5.6451                 5.6810
 IR Inten    --     15.5077                26.0928                52.9132

                     97                     98                     99
                      A                      A                      A
 Frequencies --   3078.3246              3099.1445              3104.4471
 Red. masses --      1.0619                 1.1010                 1.1014
 Frc consts  --      5.9287                 6.2304                 6.2540
 IR Inten    --     20.0309                14.3194                57.1232

                    100                    101                    102
                      A                      A                      A
 Frequencies --   3116.1414              3119.9340              3124.5578
 Red. masses --      1.1013                 1.0899                 1.1027
 Frc consts  --      6.3009                 6.2509                 6.3429
 IR Inten    --     38.4954                18.9658                11.2221

                    103                    104                    105
                      A                      A                      A
 Frequencies --   3143.5369              3148.5171              3152.0225
 Red. masses --      1.0999                 1.0564                 1.0578
 Frc consts  --      6.4038                 6.1703                 6.1922
 IR Inten    --     11.1336                25.9628                21.5811

                    106                    107                    108
                      A                      A                      A
 Frequencies --   3164.8372              3229.3549              3255.7189
 Red. masses --      1.0873                 1.1165                 1.1131
 Frc consts  --      6.4165                 6.8602                 6.9514
 IR Inten    --      9.1709                13.7262                 2.7921

                    109                    110                    111
                      A                      A                      A
 Frequencies --   3474.7167              3557.1827              3682.3934
 Red. masses --      1.0497                 1.0922                 1.0639
 Frc consts  --      7.4674                 8.1428                 8.4995
 IR Inten    --      1.3416                 0.0665                37.3831

 - Thermochemistry -
 -------------------
 Temperature   298.150 Kelvin.  Pressure   1.00000 Atm.
 Atom     1 has atomic number  6 and mass  12.00000

 Molecular mass:   229.16779 amu.
 Principal axes and moments of inertia in atomic units:
                           1         2         3
     Eigenvalues --  1821.517726045.680746586.73105
           X            0.99999  -0.00276  -0.00277
           Y            0.00276   1.00000   0.00036
           Z            0.00277  -0.00037   1.00000
 This molecule is an asymmetric top.
 Rotational symmetry number  1.
 Warning -- assumption of classical behavior for rotation
           may cause significant error
 Rotational temperatures (Kelvin)      0.04755     0.01433     0.01315
 Rotational constants (GHZ):           0.99079     0.29852     0.27400
 Zero-point vibrational energy     914515.1 (Joules/Mol)
                                  218.57435 (Kcal/Mol)
 Warning -- explicit consideration of  28 degrees of freedom as
           vibrations may cause significant error
 Vibrational temperatures:     37.61    57.23    66.82    72.66   126.14
          (Kelvin)            149.81   190.62   218.57   227.49   249.83
                              292.89   320.65   331.46   334.46   362.76
                              379.60   455.21   464.05   482.81   501.86
                              553.93   573.58   617.92   650.64   679.17
                              695.75   821.85   879.14   936.63  1006.10
                             1090.40  1157.13  1174.88  1208.33  1221.96
                             1254.58  1301.65  1332.29  1349.24  1367.47
                             1384.67  1404.97  1410.39  1427.27  1429.61
                             1529.08  1538.31  1560.16  1570.77  1583.58
                             1602.71  1613.24  1682.61  1685.62  1704.52
                             1708.29  1729.46  1749.44  1758.27  1763.91
                             1806.82  1821.59  1849.73  1856.23  1874.70
                             1937.07  1945.41  1985.28  2004.21  2009.00
                             2034.81  2040.13  2058.96  2080.75  2105.34
                             2112.12  2134.42  2174.11  2189.11  2191.06
                             2201.57  2207.77  2214.06  2226.05  2231.47
                             2248.93  2442.15  2628.18  4259.91  4275.90
                             4307.66  4319.91  4349.41  4364.05  4372.23
                             4379.63  4429.02  4458.98  4466.61  4483.43
                             4488.89  4495.54  4522.85  4530.01  4535.06
                             4553.49  4646.32  4684.25  4999.34  5117.99
                             5298.14

 Zero-point correction=                           0.348320 (Hartree/Particle)
 Thermal correction to Energy=                    0.366764
 Thermal correction to Enthalpy=                  0.367708
 Thermal correction to Gibbs Free Energy=         0.301280
 Sum of electronic and zero-point Energies=           -751.233556
 Sum of electronic and thermal Energies=              -751.215113
 Sum of electronic and thermal Enthalpies=            -751.214169
 Sum of electronic and thermal Free Energies=         -751.280597

                     E (Thermal)             CV                S
                      KCal/Mol        Cal/Mol-Kelvin    Cal/Mol-Kelvin
 Total                  230.148             68.611            139.810
 Electronic               0.000              0.000              0.000
 Translational            0.889              2.981             42.190
 Rotational               0.889              2.981             32.650
 Vibrational            228.370             62.649             64.970
 Vibration     1          0.593              1.985              6.102
 Vibration     2          0.594              1.981              5.270
 Vibration     3          0.595              1.979              4.963
 Vibration     4          0.595              1.977              4.798
 Vibration     5          0.601              1.958              3.711
 Vibration     6          0.605              1.946              3.376
 Vibration     7          0.613              1.921              2.910
 Vibration     8          0.619              1.901              2.648
 Vibration     9          0.621              1.894              2.572
 Vibration    10          0.627              1.875              2.396
 Vibration    11          0.639              1.835              2.101
 Vibration    12          0.649              1.806              1.936
 Vibration    13          0.652              1.795              1.876
 Vibration    14          0.653              1.791              1.860
 Vibration    15          0.664              1.759              1.716
 Vibration    16          0.670              1.739              1.636
 Vibration    17          0.703              1.642              1.329
 Vibration    18          0.708              1.630              1.297
 Vibration    19          0.717              1.604              1.233
 Vibration    20          0.726              1.578              1.172
 Vibration    21          0.754              1.502              1.019
 Vibration    22          0.765              1.473              0.968
 Vibration    23          0.791              1.406              0.860
 Vibration    24          0.811              1.356              0.789
 Vibration    25          0.829              1.312              0.732
 Vibration    26          0.840              1.286              0.700
 Vibration    27          0.927              1.094              0.502
 Vibration    28          0.970              1.008              0.431

 Optimization completed.
    -- Stationary point found.
 Normal termination of Gaussian 16 at Fri Dec 11 01:17:17 2020.

 ----------------------------------------------------------------------
 # B3LYP/6-311++G(d,p) empiricaldispersion=gd3bj scf=xqc pop=npa geom=c
 heck
 ----------------------------------------------------------------------

 ---------------------------------------
 CID_106489736_JID_6807_Energie_neutraal
 ---------------------------------------
 Structure from the checkpoint file:  "JID_6807.chk"
 Charge =  0 Multiplicity = 1

 SCF Done:  E(RB3LYP) =  -751.812793776     A.U. after   15 cycles
 Normal termination of Gaussian 16 at Fri Dec 11 01:23:45 2020.

 ----------------------------------------------------------------------
 # B3LYP/6-311++G(d,p) empiricaldispersion=gd3bj scf=xqc pop=npa geom=c
 heck
 ----------------------------------------------------------------------

 -------------------------------------
 CID_106489736_JID_6807_Energie_kation
 -------------------------------------
 Structure from the checkpoint file:  "JID_6807.chk"
 Charge =  1 Multiplicity = 2

 SCF Done:  E(UB3LYP) =  -751.494099904     A.U. after   26 cycles
 Normal termination of Gaussian 16 at Fri Dec 11 01:38:39 2020.
 Gaussian 16:  ES64L-G16RevA.03 25-Dec-2016

 ----------------------------------------------------------------------
 # B3LYP/6-311++G(d,p) empiricaldispersion=gd3bj scf=xqc pop=npa geom=c
 heck
 ----------------------------------------------------------------------

 ------------------------------------
 CID_106489736_JID_6807_Energie_anion
 ------------------------------------
 Structure from the checkpoint file:  "JID_6807.chk"
 Charge = -1 Multiplicity = 2

                         Standard orientation:
 ---------------------------------------------------------------------
 Center     Atomic      Atomic             Coordinates (Angstroms)
 Number     Number       Type             X           Y           Z
 ---------------------------------------------------------------------
      1          6           0       -3.537450    1.319920   -0.473185
      2          6           0       -3.406445    0.064012    0.396566
      3          6           0       -4.774585   -0.476996    0.824298
      4          6           0       -2.610662   -1.022416   -0.323605
      5          8           0       -1.341910   -0.494846   -0.653372
      6          6           0       -0.421834   -1.418546   -1.191102
      7          6           0        0.913101   -0.700820   -1.362010
      8          6           0        1.407489    0.043803   -0.093519
      9          6           0        1.362827   -0.862810    1.154577
     10          7           0        2.165310   -2.083916    0.994432
     11          6           0        2.787486    0.646959   -0.419090
     12          6           0        3.878643    0.870115    0.596177
     13          6           0        4.066356   -0.147298   -0.504908
     14          6           0        0.506826    1.271849    0.108138
     15          8           0        0.260058    2.085148   -0.756641
     16          8           0        0.063568    1.433248    1.379999
     17          1           0       -4.098837    1.097478   -1.390224
     18          1           0       -2.555326    1.702534   -0.763861
     19          1           0       -4.077956    2.108747    0.063131
     20          1           0       -2.831260    0.325261    1.296208
     21          1           0       -5.374970   -0.759270   -0.049985
     22          1           0       -4.678937   -1.360992    1.466218
     23          1           0       -5.336691    0.281725    1.379460
     24          1           0       -2.496061   -1.908481    0.324437
     25          1           0       -3.138666   -1.346926   -1.237647
     26          1           0       -0.327626   -2.286742   -0.515269
     27          1           0       -0.774955   -1.804932   -2.161357
     28          1           0        1.678141   -1.424350   -1.663761
     29          1           0        0.824524    0.034352   -2.167072
     30          1           0        1.764654   -0.310977    2.007338
     31          1           0        0.306834   -1.058947    1.388739
     32          1           0        2.177190   -2.589925    1.877850
     33          1           0        1.722396   -2.706752    0.321550
     34          1           0        2.689843    1.433792   -1.163196
     35          1           0        4.427959    1.806636    0.555069
     36          1           0        3.742307    0.480832    1.600306
     37          1           0        4.027716   -1.188235   -0.207596
     38          1           0        4.745976    0.089702   -1.319686
     39          1           0       -0.457660    2.257861    1.364431
 ---------------------------------------------------------------------

 SCF Done:  E(UB3LYP) =  -751.801304586     A.U. after   33 cycles
 SCF Done:  E(UB3LYP) =  -751.801304586     a.u. after    1 cycles

 The electronic state is 2-A.
 Alpha  occ. eigenvalues --  -19.07415 -19.02735 -19.01421 -14.19129 -10.20800
 Alpha  occ. eigenvalues --  -10.12029 -10.11501 -10.10493 -10.09139 -10.08752
 Alpha  occ. eigenvalues --  -10.07814 -10.07681 -10.07622 -10.07160 -10.06466
 Alpha  occ. eigenvalues --  -10.05694  -1.01387  -0.94553  -0.92185  -0.79256
 Alpha  occ. eigenvalues --   -0.76254  -0.71673  -0.69654  -0.63737  -0.58848
 Alpha  occ. eigenvalues --   -0.57793  -0.54856  -0.53221  -0.50707  -0.50129
 Alpha  occ. eigenvalues --   -0.47087  -0.44844  -0.42461  -0.41441  -0.40322
 Alpha  occ. eigenvalues --   -0.39242  -0.38618  -0.38159  -0.35837  -0.35153
 Alpha  occ. eigenvalues --   -0.35025  -0.33796  -0.33146  -0.31448  -0.31410
 Alpha  occ. eigenvalues --   -0.31083  -0.29623  -0.28833  -0.28436  -0.27481
 Alpha  occ. eigenvalues --   -0.26808  -0.25868  -0.24963  -0.24293  -0.23522
 Alpha  occ. eigenvalues --   -0.23129  -0.22714  -0.21682  -0.20268  -0.19471
 Alpha  occ. eigenvalues --   -0.18157  -0.16557  -0.14257   0.04236
 Alpha virt. eigenvalues --    0.06180   0.06778   0.07235   0.07957   0.08546
 Alpha virt. eigenvalues --    0.08839   0.09581   0.09649   0.09919   0.10169
 Alpha virt. eigenvalues --    0.10642   0.11195   0.11792   0.11910   0.12886

  Beta  occ. eigenvalues --  -19.07401 -19.02725 -19.01418 -14.19076 -10.20798
  Beta  occ. eigenvalues --  -10.11999 -10.11479 -10.10493 -10.09120 -10.08751
  Beta  occ. eigenvalues --  -10.07806 -10.07672 -10.07615 -10.07154 -10.06439
  Beta  occ. eigenvalues --  -10.05680  -1.01368  -0.94534  -0.92171  -0.79198
  Beta  occ. eigenvalues --   -0.76221  -0.71645  -0.69625  -0.63699  -0.58805
  Beta  occ. eigenvalues --   -0.57748  -0.54785  -0.53173  -0.50680  -0.50087
  Beta  occ. eigenvalues --   -0.47035  -0.44818  -0.42426  -0.41420  -0.40277
  Beta  occ. eigenvalues --   -0.39229  -0.38580  -0.38134  -0.35801  -0.35123
  Beta  occ. eigenvalues --   -0.34997  -0.33773  -0.33073  -0.31425  -0.31385
  Beta  occ. eigenvalues --   -0.31050  -0.29593  -0.28809  -0.28411  -0.27466
  Beta  occ. eigenvalues --   -0.26787  -0.25840  -0.24939  -0.24266  -0.23493
  Beta  occ. eigenvalues --   -0.23102  -0.22694  -0.21631  -0.20260  -0.19458
  Beta  occ. eigenvalues --   -0.18145  -0.16534  -0.14208
  Beta virt. eigenvalues --    0.06361   0.06810   0.07261   0.07880   0.08305
  Beta virt. eigenvalues --    0.08701   0.09232   0.09699   0.10021   0.10220
  Beta virt. eigenvalues --    0.10335   0.10874   0.11487   0.12046   0.12133

 Mulliken charges and spin densities:
               1          2
     1  C    0.148041  -0.653471
     2  C   -1.275489   1.521001
     3  C    0.109051  -0.752277
     4  C    0.734208  -1.122992
     5  O   -0.056777   0.032751
     6  C    0.180426  -0.561737
     7  C   -0.525448  -0.019384
     8  C    1.271621   0.241794
     9  C    1.321485  -2.358143
    10  N   -0.744208   0.388555
    11  C   -0.740328   0.736565
    12  C   -0.175415  -0.238351
    13  C   -0.280361  -0.204111
    14  C   -0.143117  -0.689188
    15  O   -0.183108   0.018142
    16  O   -0.098595   0.034860
    17  H    0.004453   0.116761
    18  H    0.237852  -0.047520
    19  H   -0.114659   0.242489
    20  H    0.172335  -0.003706
    21  H   -0.011126   0.135532
    22  H   -0.261966   0.406473
    23  H   -0.274470   0.427520
    24  H   -0.091100   0.224217
    25  H    0.078762   0.065923
    26  H   -0.333935   0.475447
    27  H   -0.355448   0.516036
    28  H    0.006003   0.171219
    29  H    0.228552  -0.007984
    30  H    0.096601   0.118705
    31  H   -0.020212   0.222598
    32  H   -0.318185   0.571871
    33  H   -0.038085   0.267286
    34  H    0.167972   0.084908
    35  H    0.060297   0.082643
    36  H   -0.020138   0.170916
    37  H    0.148422   0.060475
    38  H    0.055935   0.071237
    39  H    0.040155   0.252943
 Sum of Mulliken charges =  -1.00000   1.00000

 Dipole moment (field-independent basis, Debye):
    X=              2.5620    Y=              4.3429    Z=             -2.9070  Tot=              5.8202
 Quadrupole moment (field-independent basis, Debye-Ang):
   XX=           -171.0807   YY=           -152.1012   ZZ=           -136.6463
   XY=              5.8421   XZ=              0.1676   YZ=              9.0225

 Summary of Natural Population Analysis:

                                       Natural Population
                Natural  -----------------------------------------------
    Atom  No    Charge         Core      Valence    Rydberg      Total
 -----------------------------------------------------------------------
      C    1   -0.28689      0.99964     2.28180    0.00545     3.28689
      C    2   -0.12665      0.99961     2.11582    0.01122     3.12665
      C    3   -0.28294      0.99965     2.27851    0.00478     3.28294
      C    4    0.00039      0.99955     1.98794    0.01213     2.99961
      O    5   -0.30718      0.99987     3.29628    0.01103     4.30718
      C    6   -0.00573      0.99958     1.99411    0.01205     3.00573
      C    7   -0.19723      0.99959     2.18680    0.01083     3.19723
      C    8   -0.07849      0.99948     2.06256    0.01645     3.07849
      C    9   -0.09583      0.99958     2.08161    0.01464     3.09583
      N   10   -0.42801      0.99977     2.91690    0.01134     3.92801
      C   11   -0.11086      0.99956     2.10054    0.01076     3.11086
      C   12   -0.19761      0.99962     2.19162    0.00637     3.19761
      C   13   -0.20087      0.99961     2.19338    0.00789     3.20087
      C   14    0.42746      0.99963     1.54368    0.02923     2.57254
      O   15   -0.31785      0.99986     3.31197    0.00601     4.31785
      O   16   -0.34318      0.99987     3.33668    0.00663     4.34318
      H   17    0.09335      0.00000     0.40577    0.00088     0.40665
      H   18    0.11156      0.00000     0.38709    0.00135     0.38844
      H   19    0.09560      0.00000     0.40337    0.00103     0.40440
      H   20    0.09663      0.00000     0.40067    0.00270     0.40337
      H   21    0.09473      0.00000     0.40419    0.00108     0.40527
      H   22    0.10116      0.00000     0.39761    0.00122     0.39884
      H   23    0.09997      0.00000     0.39895    0.00108     0.40003
      H   24    0.08475      0.00000     0.41347    0.00179     0.41525
      H   25    0.07609      0.00000     0.42252    0.00140     0.42391
      H   26    0.08085      0.00000     0.41666    0.00249     0.41915
      H   27    0.08307      0.00000     0.41577    0.00116     0.41693
      H   28    0.10649      0.00000     0.39252    0.00100     0.39351
      H   29    0.10950      0.00000     0.38926    0.00124     0.39050
      H   30    0.09853      0.00000     0.39978    0.00169     0.40147
      H   31    0.09408      0.00000     0.40315    0.00277     0.40592
      H   32    0.18187      0.00000     0.31450    0.00363     0.31813
      H   33    0.17529      0.00000     0.32173    0.00298     0.32471
      H   34    0.10988      0.00000     0.38895    0.00117     0.39012
      H   35    0.09790      0.00000     0.40115    0.00096     0.40210
      H   36    0.10454      0.00000     0.39434    0.00112     0.39546
      H   37    0.12086      0.00000     0.37774    0.00140     0.37914
      H   38    0.09515      0.00000     0.40393    0.00092     0.40485
      H   39    0.23964      0.00000     0.25696    0.00340     0.26036
 =======================================================================
   * Total *    0.00000     15.99447    46.79027    0.21525    63.00000

 Normal termination of Gaussian 16 at Fri Dec 11 01:57:03 2020.
