 Gaussian 16, Revision A.03,

 -----------------------------------------------------------
 # opt freq B3LYP/6-31G(d) empiricaldispersion=gd3bj scf=xqc
 -----------------------------------------------------------

 ------------------------------
 CID_54195437_JID_1026_neutraal
 ------------------------------
 Symbolic Z-matrix:
 Charge =  0 Multiplicity = 1

 SCF Done:  E(RB3LYP) =  -896.646119226     A.U. after   15 cycles
 SCF Done:  E(RB3LYP) =  -896.651045489     A.U. after   13 cycles
 SCF Done:  E(RB3LYP) =  -896.651389317     A.U. after   13 cycles
 SCF Done:  E(RB3LYP) =  -896.650646351     A.U. after   13 cycles
 SCF Done:  E(RB3LYP) =  -896.651702169     A.U. after   12 cycles
 SCF Done:  E(RB3LYP) =  -896.651700526     A.U. after   12 cycles
 SCF Done:  E(RB3LYP) =  -896.651790633     A.U. after   11 cycles
 SCF Done:  E(RB3LYP) =  -896.651805530     A.U. after   10 cycles
 SCF Done:  E(RB3LYP) =  -896.651812801     A.U. after   10 cycles
 SCF Done:  E(RB3LYP) =  -896.651814675     A.U. after    9 cycles
 SCF Done:  E(RB3LYP) =  -896.651815217     A.U. after    8 cycles
 SCF Done:  E(RB3LYP) =  -896.651815329     A.U. after    7 cycles
 Optimization completed.
    -- Stationary point found.
 Normal termination of Gaussian 16 at Tue Dec  8 19:10:42 2020.

 --------------------------------------------------------------------
 #N Geom=AllCheck Guess=TCheck SCRF=Check GenChk RB3LYP/6-31G(d) Freq
 --------------------------------------------------------------------

 Structure from the checkpoint file:  "JID_1026.chk"
 ------------------------------
 CID_54195437_JID_1026_neutraal
 ------------------------------
 Charge =  0 Multiplicity = 1

 SCF Done:  E(RB3LYP) =  -896.651815329     A.U. after    1 cycles

  Exact polarizability: 105.134  -3.372 101.327  -2.588  -5.049  71.205
 Approx polarizability: 139.623 -10.920 169.269  -2.056 -14.654 119.491

                      1                      2                      3
                      A                      A                      A
 Frequencies --     58.0239                65.1278                88.7267
 Red. masses --      7.7551                 4.2191                 5.1689
 Frc consts  --      0.0154                 0.0105                 0.0240
 IR Inten    --      0.8194                 0.5099                 2.3401

                      4                      5                      6
                      A                      A                      A
 Frequencies --    129.6172               215.2589               236.0880
 Red. masses --      4.9630                 1.5447                 4.0699
 Frc consts  --      0.0491                 0.0422                 0.1337
 IR Inten    --      4.3354                31.6591                18.0264

                      7                      8                      9
                      A                      A                      A
 Frequencies --    243.5217               267.7152               300.1447
 Red. masses --      1.2220                 2.4647                 2.9638
 Frc consts  --      0.0427                 0.1041                 0.1573
 IR Inten    --     11.0213                11.4747                64.8362

                     10                     11                     12
                      A                      A                      A
 Frequencies --    316.9749               400.3708               404.9638
 Red. masses --      3.8195                 2.6968                 3.3036
 Frc consts  --      0.2261                 0.2547                 0.3192
 IR Inten    --      2.3530                14.1951                21.8080

                     13                     14                     15
                      A                      A                      A
 Frequencies --    473.0905               482.0560               531.6705
 Red. masses --      5.5928                 3.5151                 5.8854
 Frc consts  --      0.7375                 0.4813                 0.9802
 IR Inten    --      3.3210                 4.4399                10.6798

                     16                     17                     18
                      A                      A                      A
 Frequencies --    616.2366               643.7126               673.0884
 Red. masses --      1.4931                 2.8196                 3.7200
 Frc consts  --      0.3341                 0.6884                 0.9930
 IR Inten    --     68.3142                54.7326                20.8768

                     19                     20                     21
                      A                      A                      A
 Frequencies --    682.1595               707.6286               770.1657
 Red. masses --      1.6176                 2.7984                 4.8250
 Frc consts  --      0.4435                 0.8256                 1.6862
 IR Inten    --     31.6611                16.0421                35.8271

                     22                     23                     24
                      A                      A                      A
 Frequencies --    789.9467               825.4967               914.7347
 Red. masses --      3.9923                 3.8938                 2.6360
 Frc consts  --      1.4678                 1.5633                 1.2995
 IR Inten    --     26.1675                 1.7372                 8.1745

                     25                     26                     27
                      A                      A                      A
 Frequencies --    921.8762               956.7071               987.8190
 Red. masses --      1.2339                 2.1653                 2.0015
 Frc consts  --      0.6178                 1.1677                 1.1507
 IR Inten    --      1.0405                 2.1784                 6.7483

                     28                     29                     30
                      A                      A                      A
 Frequencies --   1000.2226              1042.3645              1104.5785
 Red. masses --      1.8471                 2.6289                 2.7710
 Frc consts  --      1.0888                 1.6829                 1.9920
 IR Inten    --      3.8181                 9.6456                67.7514

                     31                     32                     33
                      A                      A                      A
 Frequencies --   1138.8535              1146.1950              1195.2337
 Red. masses --      1.0636                 2.5871                 1.8895
 Frc consts  --      0.8127                 2.0025                 1.5904
 IR Inten    --      1.7992               151.6916               122.9904

                     34                     35                     36
                      A                      A                      A
 Frequencies --   1212.8301              1230.5310              1289.1018
 Red. masses --      1.2829                 2.0527                 1.3616
 Frc consts  --      1.1118                 1.8313                 1.3331
 IR Inten    --     20.7718                12.6952                16.6540

                     37                     38                     39
                      A                      A                      A
 Frequencies --   1319.9064              1348.5204              1367.8741
 Red. masses --      1.3689                 1.6142                 1.7233
 Frc consts  --      1.4051                 1.7296                 1.8998
 IR Inten    --     14.6281                 0.3238                53.8738

                     40                     41                     42
                      A                      A                      A
 Frequencies --   1378.6094              1430.7971              1438.8813
 Red. masses --      1.5913                 1.6253                 1.3225
 Frc consts  --      1.7820                 1.9604                 1.6132
 IR Inten    --      8.7495                24.3701                16.8522

                     43                     44                     45
                      A                      A                      A
 Frequencies --   1509.5288              1516.9801              1531.1224
 Red. masses --      1.0985                 1.0665                 1.0534
 Frc consts  --      1.4747                 1.4460                 1.4550
 IR Inten    --      0.3883                 5.7676                 4.2911

                     46                     47                     48
                      A                      A                      A
 Frequencies --   1676.9153              1839.5099              3037.2503
 Red. masses --      6.3325                10.3344                 1.0620
 Frc consts  --     10.4918                20.6035                 5.7723
 IR Inten    --     13.0686               228.0458                16.4716

                     49                     50                     51
                      A                      A                      A
 Frequencies --   3077.1113              3079.0497              3101.2956
 Red. masses --      1.0396                 1.0916                 1.0885
 Frc consts  --      5.7998                 6.0972                 6.1683
 IR Inten    --      7.5322                 9.5570                22.1970

                     52                     53                     54
                      A                      A                      A
 Frequencies --   3149.9884              3163.6785              3206.2348
 Red. masses --      1.1031                 1.1039                 1.0875
 Frc consts  --      6.4490                 6.5097                 6.5869
 IR Inten    --     15.7467                11.4224                 4.7644

                     55                     56                     57
                      A                      A                      A
 Frequencies --   3242.1931              3678.9889              3695.1638
 Red. masses --      1.0996                 1.0641                 1.0648
 Frc consts  --      6.8103                 8.4859                 8.5660
 IR Inten    --     10.1023                61.6587                34.8075

 - Thermochemistry -
 -------------------
 Temperature   298.150 Kelvin.  Pressure   1.00000 Atm.
 Atom     1 has atomic number  6 and mass  12.00000

 Molecular mass:   174.03507 amu.
 Principal axes and moments of inertia in atomic units:
                           1         2         3
     Eigenvalues --  1123.490652338.011702770.98732
           X            0.99997   0.00391  -0.00677
           Y           -0.00403   0.99984  -0.01724
           Z            0.00670   0.01727   0.99983
 This molecule is an asymmetric top.
 Rotational symmetry number  1.
 Warning -- assumption of classical behavior for rotation
           may cause significant error
 Rotational temperatures (Kelvin)      0.07709     0.03705     0.03126
 Rotational constants (GHZ):           1.60637     0.77191     0.65130
 Zero-point vibrational energy     435754.3 (Joules/Mol)
                                  104.14778 (Kcal/Mol)
 Warning -- explicit consideration of  16 degrees of freedom as
           vibrations may cause significant error
 Vibrational temperatures:     83.48    93.70   127.66   186.49   309.71
          (Kelvin)            339.68   350.37   385.18   431.84   456.06
                              576.04   582.65   680.67   693.57   764.96
                              886.63   926.16   968.42   981.48  1018.12
                             1108.10  1136.56  1187.71  1316.10  1326.37
                             1376.49  1421.25  1439.10  1499.73  1589.24
                             1638.56  1649.12  1719.67  1744.99  1770.46
                             1854.73  1899.05  1940.22  1968.07  1983.51
                             2058.60  2070.23  2171.88  2182.60  2202.94
                             2412.71  2646.64  4369.93  4427.28  4430.07
                             4462.07  4532.13  4551.83  4613.06  4664.79
                             5293.24  5316.52

 Zero-point correction=                           0.165970 (Hartree/Particle)
 Thermal correction to Energy=                    0.177304
 Thermal correction to Enthalpy=                  0.178249
 Thermal correction to Gibbs Free Energy=         0.128552
 Sum of electronic and zero-point Energies=           -896.485845
 Sum of electronic and thermal Energies=              -896.474511
 Sum of electronic and thermal Enthalpies=            -896.473567
 Sum of electronic and thermal Free Energies=         -896.523263

                     E (Thermal)             CV                S
                      KCal/Mol        Cal/Mol-Kelvin    Cal/Mol-Kelvin
 Total                  111.260             42.343            104.594
 Electronic               0.000              0.000              0.000
 Translational            0.889              2.981             41.370
 Rotational               0.889              2.981             30.366
 Vibrational            109.483             36.382             32.859
 Vibration     1          0.596              1.974              4.523
 Vibration     2          0.597              1.971              4.295
 Vibration     3          0.602              1.957              3.688
 Vibration     4          0.612              1.924              2.952
 Vibration     5          0.645              1.818              1.999
 Vibration     6          0.655              1.786              1.832
 Vibration     7          0.659              1.773              1.777
 Vibration     8          0.673              1.732              1.611
 Vibration     9          0.693              1.673              1.416
 Vibration    10          0.704              1.641              1.326
 Vibration    11          0.766              1.469              0.961
 Vibration    12          0.770              1.459              0.945
 Vibration    13          0.830              1.310              0.729
 Vibration    14          0.838              1.290              0.705
 Vibration    15          0.887              1.180              0.583
 Vibration    16          0.976              0.998              0.423

                           ! Non-Optimized Parameters !
 Normal termination of Gaussian 16 at Tue Dec  8 19:14:48 2020.

 ----------------------------------------------------------------------
 # B3LYP/6-311++G(d,p) empiricaldispersion=gd3bj scf=xqc pop=npa geom=c
 heck
 ----------------------------------------------------------------------

 --------------------------------------
 CID_54195437_JID_1026_Energie_neutraal
 --------------------------------------
 Structure from the checkpoint file:  "JID_1026.chk"
 Charge =  0 Multiplicity = 1

 SCF Done:  E(RB3LYP) =  -896.840110309     A.U. after   16 cycles
 Normal termination of Gaussian 16 at Tue Dec  8 19:16:20 2020.

 ----------------------------------------------------------------------
 # B3LYP/6-311++G(d,p) empiricaldispersion=gd3bj scf=xqc pop=npa geom=c
 heck
 ----------------------------------------------------------------------

 ------------------------------------
 CID_54195437_JID_1026_Energie_kation
 ------------------------------------
 Structure from the checkpoint file:  "JID_1026.chk"
 Charge =  1 Multiplicity = 2

 SCF Done:  E(UB3LYP) =  -896.546552054     A.U. after   21 cycles
 Normal termination of Gaussian 16 at Tue Dec  8 19:18:55 2020.
 Gaussian 16:  ES64L-G16RevA.03 25-Dec-2016

 ----------------------------------------------------------------------
 # B3LYP/6-311++G(d,p) empiricaldispersion=gd3bj scf=xqc pop=npa geom=c
 heck
 ----------------------------------------------------------------------

 -----------------------------------
 CID_54195437_JID_1026_Energie_anion
 -----------------------------------
 Structure from the checkpoint file:  "JID_1026.chk"
 Charge = -1 Multiplicity = 2

                         Standard orientation:
 ---------------------------------------------------------------------
 Center     Atomic      Atomic             Coordinates (Angstroms)
 Number     Number       Type             X           Y           Z
 ---------------------------------------------------------------------
      1          6           0        1.444683    1.970349   -0.248517
      2          6           0        0.874752    0.629629    0.225983
      3          6           0       -0.453065    0.309634   -0.513591
      4          6           0       -1.569201    1.337627   -0.218997
      5          6           0       -2.878894    0.595424   -0.156678
      6          6           0       -2.776628   -0.727503   -0.019934
      7         16           0       -1.122135   -1.364629   -0.017255
      8          6           0        1.861160   -0.510595   -0.048935
      9          8           0        2.176419   -1.340698    0.774537
     10          8           0        2.303836   -0.526521   -1.324730
     11          8           0        0.679711    0.730127    1.617300
     12          1           0        1.579048    1.981976   -1.332455
     13          1           0        2.409420    2.153125    0.232835
     14          1           0        0.763770    2.774761    0.040966
     15          1           0       -0.251366    0.255112   -1.586928
     16          1           0       -1.371986    1.819486    0.748748
     17          1           0       -1.570916    2.123039   -0.983476
     18          1           0       -3.829461    1.119893   -0.152644
     19          1           0       -3.593628   -1.429474    0.102655
     20          1           0        2.874506   -1.314116   -1.408386
     21          1           0        0.648209   -0.180386    1.961928
 ---------------------------------------------------------------------

 SCF Done:  E(UB3LYP) =  -896.827407586     A.U. after   33 cycles
 SCF Done:  E(UB3LYP) =  -896.827407586     a.u. after    1 cycles

 The electronic state is 2-A.
 Alpha  occ. eigenvalues --  -88.74907 -19.07225 -19.02890 -19.02355 -10.20798
 Alpha  occ. eigenvalues --  -10.15317 -10.11442 -10.09993 -10.08009 -10.07612
 Alpha  occ. eigenvalues --  -10.06792  -7.83547  -5.79918  -5.79560  -5.78950
 Alpha  occ. eigenvalues --   -1.01679  -0.94544  -0.92256  -0.75915  -0.69267
 Alpha  occ. eigenvalues --   -0.62963  -0.62126  -0.57185  -0.51010  -0.47739
 Alpha  occ. eigenvalues --   -0.45560  -0.43351  -0.40341  -0.39497  -0.38622
 Alpha  occ. eigenvalues --   -0.35187  -0.33942  -0.32377  -0.31295  -0.30241
 Alpha  occ. eigenvalues --   -0.29022  -0.28290  -0.26820  -0.26180  -0.25046
 Alpha  occ. eigenvalues --   -0.23275  -0.22424  -0.21375  -0.19599  -0.18435
 Alpha  occ. eigenvalues --   -0.11094   0.04564
 Alpha virt. eigenvalues --    0.06361   0.07576   0.08335   0.09050   0.09348
 Alpha virt. eigenvalues --    0.09661   0.10167   0.10641   0.11808   0.12042
 Alpha virt. eigenvalues --    0.12656   0.13652   0.14118   0.15762   0.16274

  Beta  occ. eigenvalues --  -88.74906 -19.07151 -19.02883 -19.02322 -10.20771
  Beta  occ. eigenvalues --  -10.15309 -10.11428 -10.09988 -10.07981 -10.07593
  Beta  occ. eigenvalues --  -10.06752  -7.83545  -5.79916  -5.79559  -5.78949
  Beta  occ. eigenvalues --   -1.01580  -0.94501  -0.92187  -0.75884  -0.69220
  Beta  occ. eigenvalues --   -0.62927  -0.62077  -0.57075  -0.50912  -0.47693
  Beta  occ. eigenvalues --   -0.45506  -0.43286  -0.40286  -0.39432  -0.38562
  Beta  occ. eigenvalues --   -0.35081  -0.33893  -0.32322  -0.31260  -0.30198
  Beta  occ. eigenvalues --   -0.28979  -0.28236  -0.26781  -0.26147  -0.25010
  Beta  occ. eigenvalues --   -0.23163  -0.22391  -0.21358  -0.19562  -0.18382
  Beta  occ. eigenvalues --   -0.11079
  Beta virt. eigenvalues --    0.06995   0.07706   0.08606   0.08779   0.09464
  Beta virt. eigenvalues --    0.09681   0.10072   0.10398   0.11177   0.12086
  Beta virt. eigenvalues --    0.12585   0.12922   0.13931   0.14216   0.15966

 Mulliken charges and spin densities:
               1          2
     1  C    1.303922  -1.938104
     2  C   -0.640316   0.423202
     3  C    0.128174   0.622499
     4  C    0.748858  -1.761403
     5  C   -0.442610   0.455484
     6  C    0.765268  -1.086217
     7  S   -0.424083   0.157764
     8  C    0.203301  -0.248313
     9  O   -0.269388   0.040756
    10  O   -0.195458   0.102979
    11  O   -0.180221   0.001910
    12  H   -0.110951   0.293480
    13  H   -0.091498   0.278747
    14  H   -0.233364   0.399176
    15  H   -0.122310   0.452650
    16  H    0.098846   0.116384
    17  H   -0.356961   0.509304
    18  H   -0.804014   0.984256
    19  H    0.018135   0.209319
    20  H   -0.561830   0.872194
    21  H    0.166502   0.113934
 Sum of Mulliken charges =  -1.00000   1.00000

 Dipole moment (field-independent basis, Debye):
    X=             -1.3583    Y=             -1.3480    Z=              3.4775  Tot=              3.9692
 Quadrupole moment (field-independent basis, Debye-Ang):
   XX=           -130.8199   YY=           -112.4283   ZZ=           -106.9751
   XY=             13.1164   XZ=              3.7936   YZ=             -0.1262

 Summary of Natural Population Analysis:

                                       Natural Population
                Natural  -----------------------------------------------
    Atom  No    Charge         Core      Valence    Rydberg      Total
 -----------------------------------------------------------------------
      C    1   -0.28854      0.99962     2.28061    0.00831     3.28854
      C    2    0.08623      0.99946     1.89512    0.01920     2.91377
      C    3   -0.15622      0.99952     2.14152    0.01518     3.15622
      C    4   -0.21376      0.99959     2.20307    0.01109     3.21376
      C    5   -0.10653      0.99950     2.09527    0.01176     3.10653
      C    6   -0.17135      0.99946     2.16134    0.01056     3.17135
      S    7    0.10433      4.99956     2.87780    0.01830     7.89567
      C    8    0.40568      0.99964     1.56772    0.02697     2.59432
      O    9   -0.30580      0.99987     3.29920    0.00673     4.30580
      O   10   -0.34028      0.99987     3.33241    0.00799     4.34028
      O   11   -0.37308      0.99989     3.36662    0.00657     4.37308
      H   12    0.11098      0.00000     0.38731    0.00171     0.38902
      H   13    0.10649      0.00000     0.39241    0.00110     0.39351
      H   14    0.10619      0.00000     0.39257    0.00124     0.39381
      H   15    0.11139      0.00000     0.38653    0.00208     0.38861
      H   16    0.11229      0.00000     0.38613    0.00158     0.38771
      H   17    0.11216      0.00000     0.38530    0.00254     0.38784
      H   18    0.10537      0.00000     0.39273    0.00190     0.39463
      H   19    0.10614      0.00000     0.39302    0.00085     0.39386
      H   20    0.24742      0.00000     0.22544    0.02714     0.25258
      H   21    0.24091      0.00000     0.25591    0.00318     0.25909
 =======================================================================
   * Total *   -0.00000     14.99598    30.81804    0.18598    46.00000

 Normal termination of Gaussian 16 at Tue Dec  8 19:23:04 2020.
