 Gaussian 16, Revision A.03,

 -----------------------------------------------------------
 # opt freq B3LYP/6-31G(d) empiricaldispersion=gd3bj scf=xqc
 -----------------------------------------------------------

 -------------------------------
 CID_110699110_JID_9131_neutraal
 -------------------------------
 Symbolic Z-matrix:
 Charge =  0 Multiplicity = 1

 SCF Done:  E(RB3LYP) =  -837.432580895     A.U. after   16 cycles
 SCF Done:  E(RB3LYP) =  -837.369650350     A.U. after   14 cycles
 SCF Done:  E(RB3LYP) =  -837.437679683     A.U. after   14 cycles
 SCF Done:  E(RB3LYP) =  -837.438416898     A.U. after   13 cycles
 SCF Done:  E(RB3LYP) =  -837.439066511     A.U. after   12 cycles
 SCF Done:  E(RB3LYP) =  -837.439278128     A.U. after   12 cycles
 SCF Done:  E(RB3LYP) =  -837.439066050     A.U. after   13 cycles
 SCF Done:  E(RB3LYP) =  -837.439382582     A.U. after   13 cycles
 SCF Done:  E(RB3LYP) =  -837.439401605     A.U. after   10 cycles
 SCF Done:  E(RB3LYP) =  -837.439405870     A.U. after   10 cycles
 SCF Done:  E(RB3LYP) =  -837.439408324     A.U. after    8 cycles
 SCF Done:  E(RB3LYP) =  -837.439408654     A.U. after    8 cycles
 SCF Done:  E(RB3LYP) =  -837.439408750     A.U. after    7 cycles
 SCF Done:  E(RB3LYP) =  -837.439408786     A.U. after    7 cycles
 Optimization completed.
    -- Stationary point found.
 Normal termination of Gaussian 16 at Sun Dec 13 12:39:51 2020.

 --------------------------------------------------------------------
 #N Geom=AllCheck Guess=TCheck SCRF=Check GenChk RB3LYP/6-31G(d) Freq
 --------------------------------------------------------------------

 Structure from the checkpoint file:  "JID_9131.chk"
 -------------------------------
 CID_110699110_JID_9131_neutraal
 -------------------------------
 Charge =  0 Multiplicity = 1

 SCF Done:  E(RB3LYP) =  -837.439408786     A.U. after    1 cycles

  Exact polarizability: 193.801 -20.538 113.533  -3.334  -7.117 160.383
 Approx polarizability: 305.408 -41.985 165.365  -7.134 -15.288 307.550

                      1                      2                      3
                      A                      A                      A
 Frequencies --     36.2265                55.4765                58.1362
 Red. masses --      4.3134                 3.6247                 4.3738
 Frc consts  --      0.0033                 0.0066                 0.0087
 IR Inten    --      0.5482                 0.2159                 0.0730

                      4                      5                      6
                      A                      A                      A
 Frequencies --     68.9733                75.1881                79.9481
 Red. masses --      4.6513                 4.1313                 5.9190
 Frc consts  --      0.0130                 0.0138                 0.0223
 IR Inten    --      1.4403                 0.1555                 0.4072

                      7                      8                      9
                      A                      A                      A
 Frequencies --    106.1888               122.0169               155.7749
 Red. masses --      4.8500                 4.7590                 4.7016
 Frc consts  --      0.0322                 0.0417                 0.0672
 IR Inten    --      5.5789                 0.7335                 3.7332

                     10                     11                     12
                      A                      A                      A
 Frequencies --    217.1904               227.6918               245.5751
 Red. masses --      2.6598                 4.2760                 1.4907
 Frc consts  --      0.0739                 0.1306                 0.0530
 IR Inten    --      2.5331                 0.5475                 4.1712

                     13                     14                     15
                      A                      A                      A
 Frequencies --    304.9674               332.2342               358.4001
 Red. masses --      4.7112                 2.8427                 2.4939
 Frc consts  --      0.2582                 0.1849                 0.1887
 IR Inten    --      0.9605                 4.1913                 1.0104

                     16                     17                     18
                      A                      A                      A
 Frequencies --    373.9569               378.9907               389.5561
 Red. masses --      3.6932                 3.2149                 2.6200
 Frc consts  --      0.3043                 0.2721                 0.2343
 IR Inten    --      4.1619                 0.4335                 0.1639

                     19                     20                     21
                      A                      A                      A
 Frequencies --    419.0021               447.5769               508.2920
 Red. masses --      4.6338                 2.5041                 4.8297
 Frc consts  --      0.4793                 0.2955                 0.7352
 IR Inten    --      7.6960                 4.4538                 9.9446

                     22                     23                     24
                      A                      A                      A
 Frequencies --    517.0271               561.1106               598.6796
 Red. masses --      3.6667                 3.4485                 2.8920
 Frc consts  --      0.5775                 0.6397                 0.6107
 IR Inten    --      2.1560                 6.0948                15.3799

                     25                     26                     27
                      A                      A                      A
 Frequencies --    647.8134               687.7674               688.4447
 Red. masses --      4.3093                 6.7339                 7.1400
 Frc consts  --      1.0655                 1.8767                 1.9938
 IR Inten    --     17.9538                 3.0261                 7.6350

                     28                     29                     30
                      A                      A                      A
 Frequencies --    719.7898               749.2243               762.0226
 Red. masses --      4.6412                 5.5660                 3.6104
 Frc consts  --      1.4168                 1.8408                 1.2352
 IR Inten    --     35.7361                12.1984                 0.7539

                     31                     32                     33
                      A                      A                      A
 Frequencies --    790.3089               795.9535               812.8507
 Red. masses --      2.3313                 1.4803                 3.6775
 Frc consts  --      0.8579                 0.5525                 1.4316
 IR Inten    --      5.6354                13.1218                 1.2850

                     34                     35                     36
                      A                      A                      A
 Frequencies --    825.5593               875.7737               890.0699
 Red. masses --      1.3686                 1.7145                 1.2573
 Frc consts  --      0.5496                 0.7748                 0.5869
 IR Inten    --     14.4933                13.3919                 1.1804

                     37                     38                     39
                      A                      A                      A
 Frequencies --    892.6525               936.7936               966.7630
 Red. masses --      2.5335                 2.2266                 2.0681
 Frc consts  --      1.1894                 1.1513                 1.1388
 IR Inten    --      0.2230                 7.1050                 3.2420

                     40                     41                     42
                      A                      A                      A
 Frequencies --    975.8169               978.0808               991.2167
 Red. masses --      1.3906                 1.4210                 1.4602
 Frc consts  --      0.7802                 0.8009                 0.8453
 IR Inten    --      0.1911                 0.6572                 0.0287

                     43                     44                     45
                      A                      A                      A
 Frequencies --   1011.2223              1016.4442              1019.5180
 Red. masses --      1.4900                 7.4393                 7.7469
 Frc consts  --      0.8977                 4.5284                 4.7443
 IR Inten    --      0.6739                 5.2601                 4.3430

                     46                     47                     48
                      A                      A                      A
 Frequencies --   1023.4141              1054.7833              1103.6631
 Red. masses --      2.8329                 2.1345                 1.9817
 Frc consts  --      1.7482                 1.3992                 1.4222
 IR Inten    --      1.2196                24.1045                 0.1354

                     49                     50                     51
                      A                      A                      A
 Frequencies --   1107.2904              1115.3775              1122.6800
 Red. masses --      1.6030                 1.7906                 1.7260
 Frc consts  --      1.1580                 1.3125                 1.2818
 IR Inten    --      4.7137                 8.6255                 9.2776

                     52                     53                     54
                      A                      A                      A
 Frequencies --   1132.8467              1175.2929              1202.9215
 Red. masses --      1.7292                 1.9671                 2.0508
 Frc consts  --      1.3075                 1.6009                 1.7484
 IR Inten    --      7.7534                47.8914                 5.0038

                     55                     56                     57
                      A                      A                      A
 Frequencies --   1235.6346              1247.0207              1258.5442
 Red. masses --      1.6599                 2.3986                 1.3627
 Frc consts  --      1.4932                 2.1976                 1.2717
 IR Inten    --      2.9415                 1.6609                 3.4872

                     58                     59                     60
                      A                      A                      A
 Frequencies --   1260.6023              1268.6455              1302.9083
 Red. masses --      4.3999                 3.0195                 1.9242
 Frc consts  --      4.1196                 2.8633                 1.9246
 IR Inten    --     11.0358                16.8062                22.4053

                     61                     62                     63
                      A                      A                      A
 Frequencies --   1318.0573              1333.2601              1358.9751
 Red. masses --      4.5689                 1.8462                 1.5074
 Frc consts  --      4.6766                 1.9335                 1.6402
 IR Inten    --      5.6329                 7.8800                52.3756

                     64                     65                     66
                      A                      A                      A
 Frequencies --   1375.9364              1385.5153              1403.1221
 Red. masses --      1.3776                 1.3340                 1.2748
 Frc consts  --      1.5366                 1.5087                 1.4787
 IR Inten    --      2.6082                 2.1055                34.9579

                     67                     68                     69
                      A                      A                      A
 Frequencies --   1421.7061              1432.1370              1436.5466
 Red. masses --      1.2834                 1.6406                 1.2824
 Frc consts  --      1.5284                 1.9825                 1.5593
 IR Inten    --     16.2323                22.0706                15.6107

                     70                     71                     72
                      A                      A                      A
 Frequencies --   1463.6861              1477.2555              1507.0667
 Red. masses --      2.0663                 2.1024                 1.1475
 Frc consts  --      2.6082                 2.7032                 1.5356
 IR Inten    --     20.7541               120.9340                12.1310

                     73                     74                     75
                      A                      A                      A
 Frequencies --   1515.0770              1519.9272              1521.3164
 Red. masses --      1.2920                 1.1217                 1.5306
 Frc consts  --      1.7474                 1.5268                 2.0871
 IR Inten    --      6.7214                 6.5572                 4.0142

                     76                     77                     78
                      A                      A                      A
 Frequencies --   1535.4471              1540.5472              1547.1243
 Red. masses --      1.0523                 1.2438                 1.9945
 Frc consts  --      1.4617                 1.7392                 2.8128
 IR Inten    --      7.5711                26.0476                10.4658

                     79                     80                     81
                      A                      A                      A
 Frequencies --   1604.3916              1621.7151              1634.4367
 Red. masses --      6.7705                 6.6026                 5.8165
 Frc consts  --     10.2682                10.2309                 9.1548
 IR Inten    --     51.4907                11.9995                73.1941

                     82                     83                     84
                      A                      A                      A
 Frequencies --   1657.9706              1726.3076              3053.0621
 Red. masses --      5.3841                10.0646                 1.0598
 Frc consts  --      8.7200                17.6719                 5.8203
 IR Inten    --     41.0158               209.3113                19.4182

                     85                     86                     87
                      A                      A                      A
 Frequencies --   3055.7796              3069.5635              3080.2169
 Red. masses --      1.0366                 1.0678                 1.0674
 Frc consts  --      5.7028                 5.9279                 5.9669
 IR Inten    --     24.3733                25.9581                57.6736

                     88                     89                     90
                      A                      A                      A
 Frequencies --   3095.5394              3116.4709              3134.0750
 Red. masses --      1.1046                 1.1026                 1.1000
 Frc consts  --      6.2361                 6.3097                 6.3658
 IR Inten    --     17.4475                19.1156                16.9144

                     91                     92                     93
                      A                      A                      A
 Frequencies --   3151.2454              3171.0126              3177.4260
 Red. masses --      1.1036                 1.0883                 1.0883
 Frc consts  --      6.4566                 6.4473                 6.4739
 IR Inten    --     20.3657                20.7631                11.1626

                     94                     95                     96
                      A                      A                      A
 Frequencies --   3184.4107              3188.0918              3192.8833
 Red. masses --      1.0939                 1.0896                 1.0929
 Frc consts  --      6.5359                 6.5250                 6.5646
 IR Inten    --      7.0170                30.4439                12.4642

                     97                     98                     99
                      A                      A                      A
 Frequencies --   3198.7965              3201.9428              3260.8778
 Red. masses --      1.0937                 1.0949                 1.0938
 Frc consts  --      6.5933                 6.6140                 6.8524
 IR Inten    --     25.2112                 2.9188                 0.4594

 - Thermochemistry -
 -------------------
 Temperature   298.150 Kelvin.  Pressure   1.00000 Atm.
 Atom     1 has atomic number  6 and mass  12.00000

 Molecular mass:   256.13241 amu.
 Principal axes and moments of inertia in atomic units:
                           1         2         3
     Eigenvalues --  3193.897224956.333176097.09394
           X            0.99993  -0.01025  -0.00519
           Y            0.01029   0.99992   0.00674
           Z            0.00512  -0.00679   0.99996
 This molecule is an asymmetric top.
 Rotational symmetry number  1.
 Warning -- assumption of classical behavior for rotation
           may cause significant error
 Rotational temperatures (Kelvin)      0.02712     0.01748     0.01421
 Rotational constants (GHZ):           0.56506     0.36413     0.29600
 Zero-point vibrational energy     759346.4 (Joules/Mol)
                                  181.48816 (Kcal/Mol)
 Warning -- explicit consideration of  24 degrees of freedom as
           vibrations may cause significant error
 Vibrational temperatures:     52.12    79.82    83.65    99.24   108.18
          (Kelvin)            115.03   152.78   175.56   224.13   312.49
                              327.60   353.33   438.78   478.01   515.66
                              538.04   545.28   560.48   602.85   643.96
                              731.32   743.89   807.31   861.37   932.06
                              989.54   990.52  1035.62  1077.97  1096.38
                             1137.08  1145.20  1169.51  1187.80  1260.04
                             1280.61  1284.33  1347.84  1390.96  1403.98
                             1407.24  1426.14  1454.92  1462.44  1466.86
                             1472.46  1517.60  1587.92  1593.14  1604.78
                             1615.29  1629.91  1690.98  1730.74  1777.80
                             1794.18  1810.76  1813.73  1825.30  1874.59
                             1896.39  1918.26  1955.26  1979.67  1993.45
                             2018.78  2045.52  2060.53  2066.87  2105.92
                             2125.44  2168.33  2179.86  2186.84  2188.84
                             2209.17  2216.50  2225.97  2308.36  2333.29
                             2351.59  2385.45  2483.77  4392.68  4396.59
                             4416.42  4431.75  4453.79  4483.91  4509.23
                             4533.94  4562.38  4571.61  4581.66  4586.95
                             4593.85  4602.35  4606.88  4691.68

 Zero-point correction=                           0.289220 (Hartree/Particle)
 Thermal correction to Energy=                    0.305840
 Thermal correction to Enthalpy=                  0.306784
 Thermal correction to Gibbs Free Energy=         0.243849
 Sum of electronic and zero-point Energies=           -837.150189
 Sum of electronic and thermal Energies=              -837.133569
 Sum of electronic and thermal Enthalpies=            -837.132625
 Sum of electronic and thermal Free Energies=         -837.195559

                     E (Thermal)             CV                S
                      KCal/Mol        Cal/Mol-Kelvin    Cal/Mol-Kelvin
 Total                  191.917             63.162            132.457
 Electronic               0.000              0.000              0.000
 Translational            0.889              2.981             42.522
 Rotational               0.889              2.981             32.934
 Vibrational            190.140             57.201             57.001
 Vibration     1          0.594              1.982              5.455
 Vibration     2          0.596              1.975              4.612
 Vibration     3          0.596              1.974              4.519
 Vibration     4          0.598              1.969              4.182
 Vibration     5          0.599              1.966              4.013
 Vibration     6          0.600              1.963              3.892
 Vibration     7          0.605              1.944              3.337
 Vibration     8          0.610              1.931              3.068
 Vibration     9          0.620              1.896              2.600
 Vibration    10          0.646              1.815              1.982
 Vibration    11          0.651              1.799              1.897
 Vibration    12          0.660              1.770              1.762
 Vibration    13          0.696              1.664              1.389
 Vibration    14          0.714              1.611              1.249
 Vibration    15          0.733              1.558              1.129
 Vibration    16          0.745              1.526              1.064
 Vibration    17          0.749              1.515              1.043
 Vibration    18          0.757              1.492              1.002
 Vibration    19          0.782              1.429              0.895
 Vibration    20          0.807              1.366              0.803
 Vibration    21          0.863              1.232              0.638
 Vibration    22          0.872              1.212              0.617
 Vibration    23          0.917              1.115              0.522
 Vibration    24          0.957              1.035              0.452

                           ! Non-Optimized Parameters !
 Normal termination of Gaussian 16 at Sun Dec 13 13:00:30 2020.

 ----------------------------------------------------------------------
 # B3LYP/6-311++G(d,p) empiricaldispersion=gd3bj scf=xqc pop=npa geom=c
 heck
 ----------------------------------------------------------------------

 ---------------------------------------
 CID_110699110_JID_9131_Energie_neutraal
 ---------------------------------------
 Structure from the checkpoint file:  "JID_9131.chk"
 Charge =  0 Multiplicity = 1

 SCF Done:  E(RB3LYP) =  -837.659286244     A.U. after   17 cycles
 Normal termination of Gaussian 16 at Sun Dec 13 13:09:54 2020.

 ----------------------------------------------------------------------
 # B3LYP/6-311++G(d,p) empiricaldispersion=gd3bj scf=xqc pop=npa geom=c
 heck
 ----------------------------------------------------------------------

 -------------------------------------
 CID_110699110_JID_9131_Energie_kation
 -------------------------------------
 Structure from the checkpoint file:  "JID_9131.chk"
 Charge =  1 Multiplicity = 2

 SCF Done:  E(UB3LYP) =  -837.341743204     A.U. after   33 cycles
 SCF Done:  E(UB3LYP) =  -837.341743205     a.u. after    2 cycles
 Normal termination of Gaussian 16 at Sun Dec 13 14:03:06 2020.
 Gaussian 16:  ES64L-G16RevA.03 25-Dec-2016

 ----------------------------------------------------------------------
 # B3LYP/6-311++G(d,p) empiricaldispersion=gd3bj scf=xqc pop=npa geom=c
 heck
 ----------------------------------------------------------------------

 ------------------------------------
 CID_110699110_JID_9131_Energie_anion
 ------------------------------------
 Structure from the checkpoint file:  "JID_9131.chk"
 Charge = -1 Multiplicity = 2

                         Standard orientation:
 ---------------------------------------------------------------------
 Center     Atomic      Atomic             Coordinates (Angstroms)
 Number     Number       Type             X           Y           Z
 ---------------------------------------------------------------------
      1          6           0        4.372482    0.684905    0.156372
      2          6           0        3.277571   -0.361118    0.360819
      3          7           0        1.987770    0.076643   -0.188851
      4          6           0        1.598753   -0.467877   -1.487492
      5          6           0        0.962797   -1.873596   -1.383954
      6          6           0       -0.306662   -1.855912   -0.573133
      7          6           0       -0.298088   -2.122915    0.798711
      8          6           0       -1.484227   -2.009164    1.523691
      9          7           0       -2.655302   -1.650286    0.985066
     10          6           0       -2.660746   -1.400594   -0.331801
     11          6           0       -1.531282   -1.490482   -1.141926
     12          6           0        1.204311    0.835178    0.632818
     13          8           0        1.561521    1.141894    1.771541
     14          6           0       -0.158259    1.316714    0.178159
     15          7           0       -0.370218    1.713149   -1.086008
     16          6           0       -1.597177    2.160342   -1.370405
     17          7           0       -2.642956    2.227773   -0.543782
     18          6           0       -2.408753    1.838794    0.717781
     19          6           0       -1.161803    1.397290    1.144325
     20          1           0        4.506895    0.912868   -0.906935
     21          1           0        5.327275    0.322668    0.553718
     22          1           0        4.106740    1.606921    0.680124
     23          1           0        3.542476   -1.301681   -0.132765
     24          1           0        3.143619   -0.560838    1.426324
     25          1           0        0.914228    0.226240   -1.969543
     26          1           0        2.501718   -0.524716   -2.104967
     27          1           0        0.760179   -2.226226   -2.402458
     28          1           0        1.682420   -2.569548   -0.937266
     29          1           0        0.622480   -2.406950    1.300537
     30          1           0       -1.491040   -2.210685    2.593512
     31          1           0       -3.616688   -1.103421   -0.758132
     32          1           0       -1.601938   -1.261623   -2.201680
     33          1           0       -1.761004    2.498171   -2.391635
     34          1           0       -3.252359    1.878815    1.402946
     35          1           0       -0.965740    1.104494    2.167127
 ---------------------------------------------------------------------

 SCF Done:  E(UB3LYP) =  -837.672865659     A.U. after   33 cycles
 SCF Done:  E(UB3LYP) =  -837.672865659     a.u. after    1 cycles

 The electronic state is 2-A.
 Alpha  occ. eigenvalues --  -18.93997 -14.21009 -14.18258 -14.16144 -14.15085
 Alpha  occ. eigenvalues --  -10.12002 -10.09237 -10.09024 -10.08784 -10.08646
 Alpha  occ. eigenvalues --  -10.08559 -10.07627 -10.07372 -10.06202 -10.06033
 Alpha  occ. eigenvalues --  -10.05965 -10.05923 -10.05443 -10.02920  -0.89838
 Alpha  occ. eigenvalues --   -0.83172  -0.82140  -0.80873  -0.73686  -0.71088
 Alpha  occ. eigenvalues --   -0.65603  -0.64268  -0.64068  -0.62679  -0.54905
 Alpha  occ. eigenvalues --   -0.54328  -0.51430  -0.50727  -0.50059  -0.48318
 Alpha  occ. eigenvalues --   -0.42601  -0.40460  -0.39557  -0.37809  -0.36611
 Alpha  occ. eigenvalues --   -0.36310  -0.35358  -0.34264  -0.32588  -0.32155
 Alpha  occ. eigenvalues --   -0.31596  -0.31104  -0.30437  -0.29380  -0.28536
 Alpha  occ. eigenvalues --   -0.28009  -0.27553  -0.26839  -0.26080  -0.25158
 Alpha  occ. eigenvalues --   -0.25002  -0.24684  -0.23917  -0.23342  -0.17628
 Alpha  occ. eigenvalues --   -0.15834  -0.15452  -0.14814  -0.14268  -0.13843
 Alpha  occ. eigenvalues --   -0.12218  -0.11912  -0.10084   0.04083
 Alpha virt. eigenvalues --    0.06580   0.07624   0.08651   0.08914   0.09295
 Alpha virt. eigenvalues --    0.09602   0.10299   0.10744   0.11094   0.11333
 Alpha virt. eigenvalues --    0.11575   0.11867   0.12480   0.13335   0.13458

  Beta  occ. eigenvalues --  -18.93789 -14.20957 -14.18080 -14.15992 -14.14675
  Beta  occ. eigenvalues --  -10.11878 -10.09237 -10.09015 -10.08834 -10.08675
  Beta  occ. eigenvalues --  -10.08538 -10.07554 -10.07375 -10.06197 -10.05919
  Beta  occ. eigenvalues --  -10.05911 -10.05906 -10.05061 -10.02914  -0.89484
  Beta  occ. eigenvalues --   -0.82722  -0.81915  -0.80689  -0.73034  -0.70938
  Beta  occ. eigenvalues --   -0.65525  -0.64173  -0.63692  -0.62570  -0.54664
  Beta  occ. eigenvalues --   -0.54117  -0.51381  -0.50452  -0.49739  -0.48201
  Beta  occ. eigenvalues --   -0.42425  -0.40344  -0.39461  -0.37691  -0.36387
  Beta  occ. eigenvalues --   -0.36181  -0.35279  -0.34151  -0.32448  -0.32052
  Beta  occ. eigenvalues --   -0.31449  -0.31077  -0.30229  -0.29110  -0.28005
  Beta  occ. eigenvalues --   -0.27865  -0.27305  -0.26469  -0.25779  -0.24932
  Beta  occ. eigenvalues --   -0.24841  -0.24536  -0.23636  -0.22819  -0.16483
  Beta  occ. eigenvalues --   -0.15108  -0.14633  -0.14490  -0.13942  -0.13223
  Beta  occ. eigenvalues --   -0.11481  -0.11395  -0.09689
  Beta virt. eigenvalues --    0.06562   0.07896   0.08700   0.09012   0.09254
  Beta virt. eigenvalues --    0.09623   0.10206   0.10362   0.10704   0.11060
  Beta virt. eigenvalues --    0.11379   0.11591   0.11948   0.12397   0.13263

 Mulliken charges and spin densities:
               1          2
     1  C   -0.312625  -0.179704
     2  C   -0.126182   0.055163
     3  N    0.239525   0.014106
     4  C   -0.369639  -0.076242
     5  C   -0.573652  -0.167015
     6  C    0.589217   0.170239
     7  C   -0.013480   0.035256
     8  C   -0.556075  -0.000584
     9  N   -0.012913   0.069313
    10  C   -0.614719  -0.034898
    11  C    0.084663   0.064095
    12  C   -0.906443   0.012722
    13  O   -0.307373   0.073010
    14  C    0.260069   0.233743
    15  N   -0.119564   0.086364
    16  C   -0.087514  -0.018497
    17  N   -0.140885   0.182253
    18  C   -0.579302   0.086125
    19  C    0.471495   0.050244
    20  H    0.084745   0.035105
    21  H    0.027419   0.091070
    22  H    0.151774   0.030716
    23  H    0.034981   0.073160
    24  H    0.198020  -0.016981
    25  H    0.226567  -0.007960
    26  H    0.076939   0.056653
    27  H    0.122211   0.023950
    28  H    0.107060   0.038389
    29  H    0.136392   0.028680
    30  H    0.143248  -0.002885
    31  H    0.152340   0.003906
    32  H    0.153401  -0.000951
    33  H    0.127897   0.000716
    34  H    0.129865  -0.008563
    35  H    0.202539  -0.000698
 Sum of Mulliken charges =  -1.00000   1.00000

 Dipole moment (field-independent basis, Debye):
    X=              3.4293    Y=             -4.5023    Z=             -2.5522  Tot=              6.2084
 Quadrupole moment (field-independent basis, Debye-Ang):
   XX=           -153.3757   YY=           -142.3191   ZZ=           -126.0924
   XY=             -1.5179   XZ=             -2.4319   YZ=              0.1839

 Summary of Natural Population Analysis:

                                       Natural Population
                Natural  -----------------------------------------------
    Atom  No    Charge         Core      Valence    Rydberg      Total
 -----------------------------------------------------------------------
      C    1   -0.28899      0.99966     2.28484    0.00449     3.28899
      C    2   -0.08739      0.99963     2.07643    0.01133     3.08739
      N    3   -0.25263      0.99963     2.74164    0.01136     3.75263
      C    4   -0.08476      0.99960     2.07403    0.01114     3.08476
      C    5   -0.20376      0.99959     2.19561    0.00856     3.20376
      C    6    0.00939      0.99950     1.98055    0.01056     2.99061
      C    7   -0.12160      0.99950     2.11249    0.00961     3.12160
      C    8    0.02928      0.99960     1.95770    0.01343     2.97072
      N    9   -0.21530      0.99972     2.70308    0.01250     3.71530
      C   10    0.02320      0.99960     1.96356    0.01364     2.97680
      C   11   -0.10942      0.99950     2.09964    0.01029     3.10942
      C   12    0.35032      0.99960     1.62591    0.02417     2.64968
      O   13   -0.31653      0.99988     3.31178    0.00487     4.31653
      C   14    0.13859      0.99948     1.84629    0.01565     2.86141
      N   15   -0.24781      0.99967     2.73602    0.01212     3.74781
      C   16    0.12078      0.99967     1.86120    0.01835     2.87922
      N   17   -0.20800      0.99971     2.69486    0.01343     3.70800
      C   18    0.05286      0.99960     1.93349    0.01405     2.94714
      C   19   -0.12106      0.99951     2.11400    0.00755     3.12106
      H   20    0.09322      0.00000     0.40560    0.00118     0.40678
      H   21    0.09146      0.00000     0.40736    0.00118     0.40854
      H   22    0.10834      0.00000     0.39058    0.00109     0.39166
      H   23    0.08584      0.00000     0.41302    0.00114     0.41416
      H   24    0.10625      0.00000     0.39248    0.00127     0.39375
      H   25    0.12477      0.00000     0.37391    0.00132     0.37523
      H   26    0.08840      0.00000     0.41064    0.00096     0.41160
      H   27    0.09957      0.00000     0.39942    0.00101     0.40043
      H   28    0.09693      0.00000     0.40183    0.00124     0.40307
      H   29    0.10041      0.00000     0.39858    0.00102     0.39959
      H   30    0.08532      0.00000     0.41359    0.00109     0.41468
      H   31    0.08885      0.00000     0.40962    0.00153     0.41115
      H   32    0.09983      0.00000     0.39915    0.00103     0.40017
      H   33    0.07219      0.00000     0.42656    0.00125     0.42781
      H   34    0.08185      0.00000     0.41692    0.00123     0.41815
      H   35    0.10961      0.00000     0.38921    0.00118     0.39039
 =======================================================================
   * Total *    0.00000     18.99265    48.76157    0.24578    68.00000

 Normal termination of Gaussian 16 at Sun Dec 13 14:28:04 2020.
