 Gaussian 16, Revision A.03,

 -----------------------------------------------------------
 # opt freq B3LYP/6-31G(d) empiricaldispersion=gd3bj scf=xqc
 -----------------------------------------------------------

 -------------------------------
 CID_107507979_JID_5055_neutraal
 -------------------------------
 Symbolic Z-matrix:
 Charge =  0 Multiplicity = 1

 SCF Done:  E(RB3LYP) =  -697.419421466     A.U. after   14 cycles
 SCF Done:  E(RB3LYP) =  -697.423748061     A.U. after   13 cycles
 SCF Done:  E(RB3LYP) =  -697.424001537     A.U. after   13 cycles
 SCF Done:  E(RB3LYP) =  -697.424760633     A.U. after   13 cycles
 SCF Done:  E(RB3LYP) =  -697.424891325     A.U. after   13 cycles
 SCF Done:  E(RB3LYP) =  -697.425079702     A.U. after   12 cycles
 SCF Done:  E(RB3LYP) =  -697.425078820     A.U. after   11 cycles
 SCF Done:  E(RB3LYP) =  -697.425223981     A.U. after   12 cycles
 SCF Done:  E(RB3LYP) =  -697.425292035     A.U. after   11 cycles
 SCF Done:  E(RB3LYP) =  -697.425206460     A.U. after   14 cycles
 SCF Done:  E(RB3LYP) =  -697.429617045     A.U. after   10 cycles
 SCF Done:  E(RB3LYP) =  -697.429617479     A.U. after    9 cycles
 SCF Done:  E(RB3LYP) =  -697.429618124     A.U. after    9 cycles
 SCF Done:  E(RB3LYP) =  -697.429618234     A.U. after    8 cycles
 SCF Done:  E(RB3LYP) =  -697.429618241     A.U. after    7 cycles
 Optimization completed.
    -- Stationary point found.
 Normal termination of Gaussian 16 at Thu Dec 10 15:32:19 2020.

 --------------------------------------------------------------------
 #N Geom=AllCheck Guess=TCheck SCRF=Check GenChk RB3LYP/6-31G(d) Freq
 --------------------------------------------------------------------

 Structure from the checkpoint file:  "JID_5055.chk"
 -------------------------------
 CID_107507979_JID_5055_neutraal
 -------------------------------
 Charge =  0 Multiplicity = 1

 SCF Done:  E(RB3LYP) =  -697.429618241     A.U. after    1 cycles

  Exact polarizability: 152.010   0.659 134.379   2.485   1.473 115.612
 Approx polarizability: 184.229   7.534 191.433   3.326  -1.162 174.356

                      1                      2                      3
                      A                      A                      A
 Frequencies --     23.0424                27.4946                39.2660
 Red. masses --      5.1589                 4.2255                 3.5686
 Frc consts  --      0.0016                 0.0019                 0.0032
 IR Inten    --      0.3345                 0.2604                 0.1808

                      4                      5                      6
                      A                      A                      A
 Frequencies --     50.8810                61.1624                73.3679
 Red. masses --      4.0071                 2.8541                 2.5674
 Frc consts  --      0.0061                 0.0063                 0.0081
 IR Inten    --      2.2071                 0.6831                 0.2428

                      7                      8                      9
                      A                      A                      A
 Frequencies --     90.5378               109.0315               121.3259
 Red. masses --      3.8295                 3.0941                 2.7312
 Frc consts  --      0.0185                 0.0217                 0.0237
 IR Inten    --      2.7930                 2.8435                 1.6622

                     10                     11                     12
                      A                      A                      A
 Frequencies --    150.9837               174.8719               193.1242
 Red. masses --      2.2822                 1.6593                 1.6292
 Frc consts  --      0.0307                 0.0299                 0.0358
 IR Inten    --      0.7031                 0.2310                 0.0649

                     13                     14                     15
                      A                      A                      A
 Frequencies --    204.1843               237.8763               263.6011
 Red. masses --      1.4547                 1.9115                 2.0860
 Frc consts  --      0.0357                 0.0637                 0.0854
 IR Inten    --      0.6623                 0.8502                 2.6275

                     16                     17                     18
                      A                      A                      A
 Frequencies --    274.4292               311.0673               317.0456
 Red. masses --      1.7507                 1.9689                 2.8600
 Frc consts  --      0.0777                 0.1122                 0.1694
 IR Inten    --      0.3131                 7.6343                22.3846

                     19                     20                     21
                      A                      A                      A
 Frequencies --    320.5359               365.1604               402.5735
 Red. masses --      2.4644                 2.1482                 1.9869
 Frc consts  --      0.1492                 0.1688                 0.1897
 IR Inten    --      7.7629                 0.1251                 2.2180

                     22                     23                     24
                      A                      A                      A
 Frequencies --    411.3282               480.6739               491.9063
 Red. masses --      2.1494                 3.4342                 2.7899
 Frc consts  --      0.2143                 0.4675                 0.3977
 IR Inten    --      0.6694                12.7902                 3.5096

                     25                     26                     27
                      A                      A                      A
 Frequencies --    522.5084               541.3267               558.3533
 Red. masses --      3.8526                 2.3549                 2.6868
 Frc consts  --      0.6197                 0.4066                 0.4935
 IR Inten    --      7.3525                 3.4045                 6.3323

                     28                     29                     30
                      A                      A                      A
 Frequencies --    640.0928               735.6325               766.9053
 Red. masses --      2.6001                 1.4254                 3.7942
 Frc consts  --      0.6277                 0.4545                 1.3148
 IR Inten    --     10.6482                 9.2225                 0.0414

                     31                     32                     33
                      A                      A                      A
 Frequencies --    779.0483               792.1999               826.1610
 Red. masses --      1.3114                 1.7477                 2.2302
 Frc consts  --      0.4689                 0.6462                 0.8969
 IR Inten    --      7.9885                 1.1975                 3.1200

                     34                     35                     36
                      A                      A                      A
 Frequencies --    879.8850               918.6020               949.5488
 Red. masses --      1.4260                 3.2081                 1.6726
 Frc consts  --      0.6505                 1.5950                 0.8886
 IR Inten    --      0.6585                11.0098                 2.1900

                     37                     38                     39
                      A                      A                      A
 Frequencies --    959.7220               970.9940               985.3663
 Red. masses --      3.2850                 2.2198                 2.0425
 Frc consts  --      1.7827                 1.2331                 1.1685
 IR Inten    --     20.9547                 1.2474                 0.5430

                     40                     41                     42
                      A                      A                      A
 Frequencies --   1004.6234              1016.3690              1025.2512
 Red. masses --      1.7980                 1.6913                 1.9666
 Frc consts  --      1.0692                 1.0294                 1.2179
 IR Inten    --      4.0384                 1.2503                 3.6863

                     43                     44                     45
                      A                      A                      A
 Frequencies --   1047.7825              1067.0087              1086.6885
 Red. masses --      1.9257                 1.5936                 1.4454
 Frc consts  --      1.2456                 1.0690                 1.0057
 IR Inten    --     15.1891                 1.5747                 1.8445

                     46                     47                     48
                      A                      A                      A
 Frequencies --   1105.9221              1124.8630              1144.0395
 Red. masses --      2.6062                 4.2388                 3.0399
 Frc consts  --      1.8780                 3.1600                 2.3442
 IR Inten    --     30.2831               116.0700                74.8736

                     49                     50                     51
                      A                      A                      A
 Frequencies --   1158.3959              1181.4137              1192.0660
 Red. masses --      2.1175                 2.2372                 1.3075
 Frc consts  --      1.6741                 1.8397                 1.0947
 IR Inten    --      1.9550                 4.4362                 5.5709

                     52                     53                     54
                      A                      A                      A
 Frequencies --   1194.3456              1228.2276              1236.4511
 Red. masses --      2.0650                 2.0879                 2.2644
 Frc consts  --      1.7355                 1.8557                 2.0396
 IR Inten    --      2.1363                70.0436                10.7281

                     55                     56                     57
                      A                      A                      A
 Frequencies --   1242.7717              1279.7344              1294.4753
 Red. masses --      1.3384                 1.3392                 1.2952
 Frc consts  --      1.2179                 1.2923                 1.2787
 IR Inten    --      1.3590                 4.9050                19.2808

                     58                     59                     60
                      A                      A                      A
 Frequencies --   1312.9333              1317.6131              1329.4808
 Red. masses --      1.2398                 1.2027                 1.1789
 Frc consts  --      1.2592                 1.2302                 1.2277
 IR Inten    --     27.4366                 2.0843                 1.7399

                     61                     62                     63
                      A                      A                      A
 Frequencies --   1336.5912              1357.6789              1381.8997
 Red. masses --      1.1505                 1.1700                 1.3408
 Frc consts  --      1.2109                 1.2707                 1.5086
 IR Inten    --      4.6825                 0.2487                 8.1925

                     64                     65                     66
                      A                      A                      A
 Frequencies --   1384.7715              1395.7910              1398.0614
 Red. masses --      1.4051                 1.3621                 1.3560
 Frc consts  --      1.5875                 1.5635                 1.5616
 IR Inten    --      5.5194                 4.7205                 1.6065

                     67                     68                     69
                      A                      A                      A
 Frequencies --   1404.4928              1420.7682              1428.5341
 Red. masses --      1.4072                 1.3247                 1.3915
 Frc consts  --      1.6355                 1.5754                 1.6731
 IR Inten    --      0.6070                 1.5972                 0.2167

                     70                     71                     72
                      A                      A                      A
 Frequencies --   1443.6513              1446.2480              1449.3194
 Red. masses --      1.3657                 1.2752                 1.2632
 Frc consts  --      1.6770                 1.5716                 1.5634
 IR Inten    --     13.0862                 4.8713                10.8114

                     73                     74                     75
                      A                      A                      A
 Frequencies --   1487.2146              1507.3210              1509.3899
 Red. masses --      1.0790                 1.1259                 1.0747
 Frc consts  --      1.4061                 1.5071                 1.4425
 IR Inten    --      5.4878                 0.6295                 1.4569

                     76                     77                     78
                      A                      A                      A
 Frequencies --   1516.1556              1518.1303              1518.3559
 Red. masses --      1.0782                 1.0694                 1.0675
 Frc consts  --      1.4602                 1.4522                 1.4499
 IR Inten    --     11.6957                 0.7171                 2.2059

                     79                     80                     81
                      A                      A                      A
 Frequencies --   1524.8030              1527.7687              1532.0456
 Red. masses --      1.0620                 1.0562                 1.0677
 Frc consts  --      1.4548                 1.4524                 1.4765
 IR Inten    --      1.5868                 0.8026                10.3951

                     82                     83                     84
                      A                      A                      A
 Frequencies --   1535.7200              1536.5583              1538.6710
 Red. masses --      1.0638                 1.0705                 1.0674
 Frc consts  --      1.4782                 1.4892                 1.4889
 IR Inten    --      5.3292                 5.7607                 6.6946

                     85                     86                     87
                      A                      A                      A
 Frequencies --   1542.2080              1547.6038              1811.2962
 Red. masses --      1.0588                 1.0684                11.2679
 Frc consts  --      1.4838                 1.5077                21.7808
 IR Inten    --      3.9136                 0.9143               101.4896

                     88                     89                     90
                      A                      A                      A
 Frequencies --   2996.2512              3007.8346              3028.1991
 Red. masses --      1.0389                 1.0707                 1.0629
 Frc consts  --      5.4954                 5.7073                 5.7428
 IR Inten    --     43.3991                38.5429                20.0629

                     91                     92                     93
                      A                      A                      A
 Frequencies --   3028.8868              3033.8066              3039.7529
 Red. masses --      1.0610                 1.0617                 1.0593
 Frc consts  --      5.7348                 5.7576                 5.7669
 IR Inten    --     28.5079                41.9685                11.0940

                     94                     95                     96
                      A                      A                      A
 Frequencies --   3044.5726              3046.6907              3047.2687
 Red. masses --      1.0414                 1.1019                 1.0690
 Frc consts  --      5.6875                 6.0261                 5.8483
 IR Inten    --     24.5645                69.4921                 2.0942

                     97                     98                     99
                      A                      A                      A
 Frequencies --   3051.8481              3055.3596              3059.9110
 Red. masses --      1.0481                 1.0682                 1.0871
 Frc consts  --      5.7517                 5.8755                 5.9971
 IR Inten    --     18.3188                 6.4951                10.0465

                    100                    101                    102
                      A                      A                      A
 Frequencies --   3065.6639              3072.8619              3076.9811
 Red. masses --      1.0830                 1.0857                 1.0995
 Frc consts  --      5.9967                 6.0400                 6.1333
 IR Inten    --     46.7097                56.6088                85.2543

                    103                    104                    105
                      A                      A                      A
 Frequencies --   3081.3885              3094.9754              3108.2316
 Red. masses --      1.1019                 1.1017                 1.1001
 Frc consts  --      6.1646                 6.2174                 6.2622
 IR Inten    --     11.1900                19.5337                28.6140

                    106                    107                    108
                      A                      A                      A
 Frequencies --   3108.8119              3116.6112              3121.5981
 Red. masses --      1.0949                 1.1009                 1.1014
 Frc consts  --      6.2346                 6.3003                 6.3235
 IR Inten    --     67.1901                40.4766                62.9467

                    109                    110                    111
                      A                      A                      A
 Frequencies --   3122.3855              3137.6446              3149.1449
 Red. masses --      1.1016                 1.1018                 1.0975
 Frc consts  --      6.3280                 6.3907                 6.4125
 IR Inten    --     25.8001                19.1083                25.5702

 - Thermochemistry -
 -------------------
 Temperature   298.150 Kelvin.  Pressure   1.00000 Atm.
 Atom     1 has atomic number  6 and mass  12.00000

 Molecular mass:   216.17254 amu.
 Principal axes and moments of inertia in atomic units:
                           1         2         3
     Eigenvalues --  2050.231256150.135257489.45019
           X            0.99999  -0.00260   0.00382
           Y            0.00258   0.99999   0.00412
           Z           -0.00383  -0.00411   0.99998
 This molecule is an asymmetric top.
 Rotational symmetry number  1.
 Warning -- assumption of classical behavior for rotation
           may cause significant error
 Rotational temperatures (Kelvin)      0.04225     0.01408     0.01156
 Rotational constants (GHZ):           0.88026     0.29345     0.24097
 Zero-point vibrational energy     928960.1 (Joules/Mol)
                                  222.02680 (Kcal/Mol)
 Warning -- explicit consideration of  27 degrees of freedom as
           vibrations may cause significant error
 Vibrational temperatures:     33.15    39.56    56.49    73.21    88.00
          (Kelvin)            105.56   130.26   156.87   174.56   217.23
                              251.60   277.86   293.78   342.25   379.26
                              394.84   447.56   456.16   461.18   525.38
                              579.21   591.81   691.58   707.74   751.77
                              778.85   803.35   920.95  1058.41  1103.41
                             1120.88  1139.80  1188.66  1265.96  1321.66
                             1366.19  1380.83  1397.04  1417.72  1445.43
                             1462.33  1475.11  1507.53  1535.19  1563.50
                             1591.18  1618.43  1646.02  1666.67  1699.79
                             1715.12  1718.40  1767.15  1778.98  1788.07
                             1841.25  1862.46  1889.02  1895.75  1912.83
                             1923.06  1953.40  1988.25  1992.38  2008.23
                             2011.50  2020.75  2044.17  2055.34  2077.09
                             2080.83  2085.25  2139.77  2168.70  2171.68
                             2181.41  2184.25  2184.58  2193.85  2198.12
                             2204.27  2209.56  2210.76  2213.80  2218.89
                             2226.66  2606.05  4310.94  4327.60  4356.90
                             4357.89  4364.97  4373.53  4380.46  4383.51
                             4384.34  4390.93  4395.98  4402.53  4410.81
                             4421.16  4427.09  4433.43  4452.98  4472.05
                             4472.89  4484.11  4491.28  4492.42  4514.37
                             4530.92

 Zero-point correction=                           0.353822 (Hartree/Particle)
 Thermal correction to Energy=                    0.372305
 Thermal correction to Enthalpy=                  0.373249
 Thermal correction to Gibbs Free Energy=         0.304870
 Sum of electronic and zero-point Energies=           -697.075796
 Sum of electronic and thermal Energies=              -697.057313
 Sum of electronic and thermal Enthalpies=            -697.056369
 Sum of electronic and thermal Free Energies=         -697.124749

                     E (Thermal)             CV                S
                      KCal/Mol        Cal/Mol-Kelvin    Cal/Mol-Kelvin
 Total                  233.625             66.009            143.917
 Electronic               0.000              0.000              0.000
 Translational            0.889              2.981             42.016
 Rotational               0.889              2.981             32.912
 Vibrational            231.848             60.047             68.989
 Vibration     1          0.593              1.985              6.353
 Vibration     2          0.593              1.984              6.002
 Vibration     3          0.594              1.981              5.296
 Vibration     4          0.595              1.977              4.783
 Vibration     5          0.597              1.973              4.419
 Vibration     6          0.599              1.967              4.061
 Vibration     7          0.602              1.956              3.648
 Vibration     8          0.606              1.942              3.286
 Vibration     9          0.609              1.931              3.079
 Vibration    10          0.618              1.902              2.660
 Vibration    11          0.627              1.873              2.382
 Vibration    12          0.635              1.849              2.198
 Vibration    13          0.640              1.834              2.095
 Vibration    14          0.656              1.783              1.819
 Vibration    15          0.670              1.740              1.638
 Vibration    16          0.677              1.721              1.568
 Vibration    17          0.700              1.653              1.357
 Vibration    18          0.704              1.641              1.325
 Vibration    19          0.706              1.634              1.307
 Vibration    20          0.738              1.544              1.100
 Vibration    21          0.768              1.465              0.953
 Vibration    22          0.775              1.446              0.922
 Vibration    23          0.837              1.293              0.708
 Vibration    24          0.848              1.268              0.679
 Vibration    25          0.877              1.200              0.604
 Vibration    26          0.896              1.159              0.562
 Vibration    27          0.914              1.121              0.527

 Optimization completed.
    -- Stationary point found.
 Normal termination of Gaussian 16 at Thu Dec 10 15:44:56 2020.

 ----------------------------------------------------------------------
 # B3LYP/6-311++G(d,p) empiricaldispersion=gd3bj scf=xqc pop=npa geom=c
 heck
 ----------------------------------------------------------------------

 ---------------------------------------
 CID_107507979_JID_5055_Energie_neutraal
 ---------------------------------------
 Structure from the checkpoint file:  "JID_5055.chk"
 Charge =  0 Multiplicity = 1

 SCF Done:  E(RB3LYP) =  -697.634677007     A.U. after   14 cycles
 Normal termination of Gaussian 16 at Thu Dec 10 15:51:00 2020.

 ----------------------------------------------------------------------
 # B3LYP/6-311++G(d,p) empiricaldispersion=gd3bj scf=xqc pop=npa geom=c
 heck
 ----------------------------------------------------------------------

 -------------------------------------
 CID_107507979_JID_5055_Energie_kation
 -------------------------------------
 Structure from the checkpoint file:  "JID_5055.chk"
 Charge =  1 Multiplicity = 2

 SCF Done:  E(UB3LYP) =  -697.314516066     A.U. after   25 cycles
 Normal termination of Gaussian 16 at Thu Dec 10 16:06:53 2020.
 Gaussian 16:  ES64L-G16RevA.03 25-Dec-2016

 ----------------------------------------------------------------------
 # B3LYP/6-311++G(d,p) empiricaldispersion=gd3bj scf=xqc pop=npa geom=c
 heck
 ----------------------------------------------------------------------

 ------------------------------------
 CID_107507979_JID_5055_Energie_anion
 ------------------------------------
 Structure from the checkpoint file:  "JID_5055.chk"
 Charge = -1 Multiplicity = 2

                         Standard orientation:
 ---------------------------------------------------------------------
 Center     Atomic      Atomic             Coordinates (Angstroms)
 Number     Number       Type             X           Y           Z
 ---------------------------------------------------------------------
      1          6           0        2.503566    2.874462   -0.107873
      2          6           0        3.326834    1.723335   -0.695562
      3          6           0        3.657378    0.609101    0.310459
      4          6           0        2.440494   -0.010118    1.014271
      5          6           0        1.360648   -0.562345    0.068002
      6          6           0        1.859864   -1.659795   -0.890987
      7          6           0        2.474739   -2.889778   -0.215621
      8          6           0        0.162577   -1.023353    0.903598
      9          8           0       -0.946996   -1.519794    0.146974
     10          6           0       -1.509198   -0.596567   -0.776073
     11          6           0       -1.982996    0.657383   -0.039077
     12          8           0       -1.380308    1.712569   -0.105937
     13          6           0       -3.183220    0.483469    0.895176
     14          8           0       -4.219028   -0.294444    0.333350
     15          6           0       -4.916752    0.393991   -0.689541
     16          1           0        1.490166    2.556923    0.160410
     17          1           0        2.406208    3.693427   -0.829115
     18          1           0        2.979990    3.279500    0.793952
     19          1           0        2.792729    1.300110   -1.556570
     20          1           0        4.271191    2.117128   -1.093669
     21          1           0        4.226897   -0.176771   -0.202768
     22          1           0        4.327583    1.014766    1.080931
     23          1           0        2.786020   -0.804510    1.689116
     24          1           0        1.977470    0.748878    1.658391
     25          1           0        1.018111    0.278844   -0.546210
     26          1           0        1.015709   -1.982817   -1.511837
     27          1           0        2.594755   -1.221032   -1.577196
     28          1           0        1.759655   -3.386257    0.449500
     29          1           0        2.785585   -3.624652   -0.966179
     30          1           0        3.359252   -2.630597    0.376721
     31          1           0        0.437467   -1.858834    1.554095
     32          1           0       -0.160108   -0.195038    1.553039
     33          1           0       -0.800174   -0.296185   -1.556193
     34          1           0       -2.355986   -1.118556   -1.227673
     35          1           0       -2.838657   -0.059758    1.783408
     36          1           0       -3.530293    1.480966    1.201819
     37          1           0       -5.364759    1.325463   -0.311936
     38          1           0       -4.263085    0.646212   -1.539728
     39          1           0       -5.708675   -0.272561   -1.038038
 ---------------------------------------------------------------------

 SCF Done:  E(UB3LYP) =  -697.627254281     A.U. after   33 cycles
 SCF Done:  E(UB3LYP) =  -697.627254281     a.u. after    1 cycles

 The electronic state is 2-A.
 Alpha  occ. eigenvalues --  -19.02451 -19.00591 -18.95658 -10.11893 -10.09946
 Alpha  occ. eigenvalues --  -10.09784 -10.08905 -10.08531 -10.05927 -10.05852
 Alpha  occ. eigenvalues --  -10.05812 -10.05737 -10.05452 -10.05253 -10.05071
 Alpha  occ. eigenvalues --   -0.93810  -0.91709  -0.89078  -0.71475  -0.67432
 Alpha  occ. eigenvalues --   -0.63580  -0.62692  -0.60995  -0.58019  -0.55034
 Alpha  occ. eigenvalues --   -0.53154  -0.51825  -0.47021  -0.43455  -0.41492
 Alpha  occ. eigenvalues --   -0.38912  -0.38542  -0.38136  -0.37081  -0.36798
 Alpha  occ. eigenvalues --   -0.36011  -0.34228  -0.33220  -0.31919  -0.30716
 Alpha  occ. eigenvalues --   -0.30175  -0.29216  -0.28542  -0.28362  -0.27975
 Alpha  occ. eigenvalues --   -0.27531  -0.26693  -0.25531  -0.23862  -0.23696
 Alpha  occ. eigenvalues --   -0.23461  -0.22948  -0.22404  -0.21893  -0.20805
 Alpha  occ. eigenvalues --   -0.20238  -0.19246  -0.17443  -0.15203  -0.10003
 Alpha  occ. eigenvalues --    0.04998
 Alpha virt. eigenvalues --    0.06458   0.07334   0.07573   0.08382   0.09255
 Alpha virt. eigenvalues --    0.09790   0.10001   0.10141   0.10573   0.11222
 Alpha virt. eigenvalues --    0.11571   0.12029   0.12621   0.12869   0.13185

  Beta  occ. eigenvalues --  -19.02413 -19.00502 -18.95161 -10.11885 -10.09978
  Beta  occ. eigenvalues --  -10.09780 -10.08929 -10.08091 -10.05913 -10.05835
  Beta  occ. eigenvalues --  -10.05808 -10.05738 -10.05438 -10.05230 -10.05066
  Beta  occ. eigenvalues --   -0.93699  -0.91470  -0.88211  -0.71453  -0.67402
  Beta  occ. eigenvalues --   -0.63369  -0.62651  -0.60925  -0.57853  -0.54829
  Beta  occ. eigenvalues --   -0.53123  -0.51708  -0.46926  -0.43299  -0.41126
  Beta  occ. eigenvalues --   -0.38711  -0.38409  -0.38007  -0.36987  -0.36768
  Beta  occ. eigenvalues --   -0.35869  -0.34155  -0.33167  -0.31810  -0.30438
  Beta  occ. eigenvalues --   -0.30112  -0.28963  -0.28371  -0.28170  -0.27934
  Beta  occ. eigenvalues --   -0.27478  -0.26555  -0.25487  -0.23808  -0.23521
  Beta  occ. eigenvalues --   -0.23265  -0.22390  -0.22017  -0.20876  -0.20632
  Beta  occ. eigenvalues --   -0.20138  -0.19051  -0.17308  -0.15076  -0.09665
  Beta virt. eigenvalues --    0.07034   0.07311   0.08025   0.08502   0.09373
  Beta virt. eigenvalues --    0.09771   0.10007   0.10221   0.10544   0.11028
  Beta virt. eigenvalues --    0.11665   0.11776   0.12074   0.12873   0.13064

 Mulliken charges and spin densities:
               1          2
     1  C   -0.202487  -0.440266
     2  C   -0.241673   0.133567
     3  C    0.354416  -0.857149
     4  C   -0.561053   0.230746
     5  C    0.532132   0.035772
     6  C   -0.800559   0.539324
     7  C    0.445506  -1.081087
     8  C   -0.308743  -0.457795
     9  O    0.014346   0.016033
    10  C   -0.165646  -0.068835
    11  C   -0.115125   0.343841
    12  O   -0.282296   0.161579
    13  C   -0.450856  -0.058148
    14  O   -0.104739  -0.002772
    15  C   -0.302101   0.022803
    16  H    0.190734   0.016268
    17  H    0.036631   0.078122
    18  H    0.080625   0.036801
    19  H    0.031937   0.099378
    20  H   -0.477133   0.646990
    21  H   -0.073912   0.221259
    22  H   -0.167206   0.319864
    23  H    0.107634   0.049510
    24  H    0.154590  -0.024963
    25  H    0.494918  -0.238008
    26  H    0.131935   0.006180
    27  H   -0.085961   0.239243
    28  H   -0.001086   0.160958
    29  H   -0.320512   0.455301
    30  H   -0.044775   0.178304
    31  H    0.131123   0.002123
    32  H    0.177163   0.006352
    33  H    0.048991   0.101522
    34  H    0.120175   0.064608
    35  H    0.136645   0.058638
    36  H    0.136165  -0.002134
    37  H    0.101646  -0.000873
    38  H    0.135453   0.005478
    39  H    0.143096   0.001468
 Sum of Mulliken charges =  -1.00000   1.00000

 Dipole moment (field-independent basis, Debye):
    X=             -4.6903    Y=              0.5061    Z=              1.1772  Tot=              4.8622
 Quadrupole moment (field-independent basis, Debye-Ang):
   XX=           -167.1752   YY=           -140.1270   ZZ=           -112.2556
   XY=             -2.1391   XZ=             10.9904   YZ=             -0.6058

 Summary of Natural Population Analysis:

                                       Natural Population
                Natural  -----------------------------------------------
    Atom  No    Charge         Core      Valence    Rydberg      Total
 -----------------------------------------------------------------------
      C    1   -0.29179      0.99966     2.28655    0.00558     3.29179
      C    2   -0.19289      0.99964     2.18494    0.00831     3.19289
      C    3   -0.18833      0.99963     2.17928    0.00941     3.18833
      C    4   -0.18977      0.99961     2.18116    0.00899     3.18977
      C    5   -0.13563      0.99958     2.12608    0.00998     3.13563
      C    6   -0.19343      0.99962     2.18376    0.01005     3.19343
      C    7   -0.28906      0.99966     2.28383    0.00556     3.28906
      C    8   -0.00624      0.99954     1.99361    0.01309     3.00624
      O    9   -0.29320      0.99989     3.28408    0.00923     4.29320
      C   10   -0.05647      0.99954     2.04304    0.01390     3.05647
      C   11    0.30402      0.99969     1.67559    0.02070     2.69598
      O   12   -0.25058      0.99987     3.24370    0.00701     4.25058
      C   13   -0.05620      0.99954     2.04193    0.01473     3.05620
      O   14   -0.29439      0.99989     3.28436    0.01015     4.29439
      C   15   -0.09824      0.99962     2.09045    0.00816     3.09824
      H   16    0.10877      0.00000     0.39028    0.00095     0.39123
      H   17    0.09673      0.00000     0.40262    0.00065     0.40327
      H   18    0.09094      0.00000     0.40830    0.00076     0.40906
      H   19    0.09399      0.00000     0.40485    0.00117     0.40601
      H   20    0.09489      0.00000     0.40379    0.00132     0.40511
      H   21    0.09777      0.00000     0.40089    0.00134     0.40223
      H   22    0.09330      0.00000     0.40578    0.00092     0.40670
      H   23    0.09530      0.00000     0.40373    0.00097     0.40470
      H   24    0.09786      0.00000     0.40106    0.00108     0.40214
      H   25    0.10734      0.00000     0.39002    0.00264     0.39266
      H   26    0.10167      0.00000     0.39705    0.00128     0.39833
      H   27    0.09551      0.00000     0.40337    0.00112     0.40449
      H   28    0.09623      0.00000     0.40283    0.00094     0.40377
      H   29    0.09857      0.00000     0.40054    0.00089     0.40143
      H   30    0.09492      0.00000     0.40415    0.00093     0.40508
      H   31    0.08627      0.00000     0.41259    0.00113     0.41373
      H   32    0.08259      0.00000     0.41615    0.00126     0.41741
      H   33    0.08203      0.00000     0.41647    0.00150     0.41797
      H   34    0.09552      0.00000     0.40310    0.00138     0.40448
      H   35    0.09972      0.00000     0.39901    0.00128     0.40028
      H   36    0.08104      0.00000     0.41721    0.00175     0.41896
      H   37    0.07516      0.00000     0.42353    0.00130     0.42484
      H   38    0.08140      0.00000     0.41746    0.00114     0.41860
      H   39    0.08468      0.00000     0.41449    0.00083     0.41532
 =======================================================================
   * Total *   -0.00000     14.99500    44.82161    0.18339    60.00000

 Normal termination of Gaussian 16 at Thu Dec 10 16:30:07 2020.
