 Gaussian 16, Revision A.03,

 -----------------------------------------------------------
 # opt freq B3LYP/6-31G(d) empiricaldispersion=gd3bj scf=xqc
 -----------------------------------------------------------

 ------------------------------
 CID_139755158_JID_139_neutraal
 ------------------------------
 Symbolic Z-matrix:
 Charge =  0 Multiplicity = 1

 SCF Done:  E(RB3LYP) =  -784.319447753     A.U. after   14 cycles
 SCF Done:  E(RB3LYP) =  -784.321174971     A.U. after   12 cycles
 SCF Done:  E(RB3LYP) =  -784.321317075     A.U. after   10 cycles
 SCF Done:  E(RB3LYP) =  -784.321339983     A.U. after   10 cycles
 SCF Done:  E(RB3LYP) =  -784.321346058     A.U. after    9 cycles
 SCF Done:  E(RB3LYP) =  -784.321352737     A.U. after    9 cycles
 SCF Done:  E(RB3LYP) =  -784.321356940     A.U. after    9 cycles
 SCF Done:  E(RB3LYP) =  -784.321359766     A.U. after    9 cycles
 SCF Done:  E(RB3LYP) =  -784.321360125     A.U. after    8 cycles
 SCF Done:  E(RB3LYP) =  -784.321360208     A.U. after    7 cycles
 SCF Done:  E(RB3LYP) =  -784.321411628     A.U. after    6 cycles
 SCF Done:  E(RB3LYP) =  -784.321411813     A.U. after    9 cycles
 SCF Done:  E(RB3LYP) =  -784.321411832     A.U. after    7 cycles
 SCF Done:  E(RB3LYP) =  -784.321411832     A.U. after    6 cycles
 SCF Done:  E(RB3LYP) =  -784.321411832     A.U. after    5 cycles
 Optimization completed.
    -- Stationary point found.
 Normal termination of Gaussian 16 at Tue Dec  8 10:22:38 2020.

 --------------------------------------------------------------------
 #N Geom=AllCheck Guess=TCheck SCRF=Check GenChk RB3LYP/6-31G(d) Freq
 --------------------------------------------------------------------

 Structure from the checkpoint file:  "JID_139.chk"
 ------------------------------
 CID_139755158_JID_139_neutraal
 ------------------------------
 Charge =  0 Multiplicity = 1

 SCF Done:  E(RB3LYP) =  -784.321411832     A.U. after    1 cycles

  Exact polarizability: 129.613   5.088 111.862   5.974   0.452  61.704
 Approx polarizability: 186.553   4.011 182.151  14.509  -0.290  96.144

                      1                      2                      3
                      A                      A                      A
 Frequencies --     18.6276                32.5335               100.8106
 Red. masses --      1.0352                 3.9729                 6.1529
 Frc consts  --      0.0002                 0.0025                 0.0368
 IR Inten    --      0.1945                 1.3424                 0.1299

                      4                      5                      6
                      A                      A                      A
 Frequencies --    204.1993               221.7446               235.9540
 Red. masses --      3.0815                 1.2683                 4.3203
 Frc consts  --      0.0757                 0.0367                 0.1417
 IR Inten    --      6.0479                16.3535                 0.0811

                      7                      8                      9
                      A                      A                      A
 Frequencies --    260.7734               275.5038               319.5112
 Red. masses --      3.8589                 2.1259                 3.4177
 Frc consts  --      0.1546                 0.0951                 0.2056
 IR Inten    --      0.1313                10.6608                 1.0459

                     10                     11                     12
                      A                      A                      A
 Frequencies --    373.6318               492.2232               510.1724
 Red. masses --      1.1156                 3.0384                 4.2022
 Frc consts  --      0.0918                 0.4337                 0.6444
 IR Inten    --    112.3350                 5.7748                 3.4656

                     13                     14                     15
                      A                      A                      A
 Frequencies --    522.2460               551.8653               581.1850
 Red. masses --      5.1557                 4.9589                 4.2887
 Frc consts  --      0.8285                 0.8898                 0.8535
 IR Inten    --      0.9210                 0.5605                 1.6233

                     16                     17                     18
                      A                      A                      A
 Frequencies --    634.5148               690.1536               713.1036
 Red. masses --      4.7470                 3.6636                 2.3472
 Frc consts  --      1.1260                 1.0281                 0.7033
 IR Inten    --      7.3172                 7.0415                18.6322

                     19                     20                     21
                      A                      A                      A
 Frequencies --    811.2912               838.4900               856.4069
 Red. masses --      1.3348                 1.5804                 1.3084
 Frc consts  --      0.5176                 0.6547                 0.5654
 IR Inten    --      1.5287                17.9574                12.8117

                     22                     23                     24
                      A                      A                      A
 Frequencies --    883.3778               974.8394               990.3519
 Red. masses --      1.3937                 2.9518                 2.0181
 Frc consts  --      0.6408                 1.6528                 1.1662
 IR Inten    --      2.7117                 7.0978                 4.7316

                     25                     26                     27
                      A                      A                      A
 Frequencies --   1018.0201              1029.3511              1059.5876
 Red. masses --      5.7987                 1.8357                 1.8304
 Frc consts  --      3.5407                 1.1460                 1.2108
 IR Inten    --      2.2991                14.9922                16.3666

                     28                     29                     30
                      A                      A                      A
 Frequencies --   1073.9016              1191.7545              1199.4796
 Red. masses --      1.5108                 1.4169                 1.4194
 Frc consts  --      1.0265                 1.1857                 1.2032
 IR Inten    --      6.8011                22.6752                49.7334

                     31                     32                     33
                      A                      A                      A
 Frequencies --   1201.5739              1225.2772              1300.7104
 Red. masses --      1.2702                 1.3081                 1.2348
 Frc consts  --      1.0805                 1.1571                 1.2308
 IR Inten    --     15.4537                95.6041                22.1313

                     34                     35                     36
                      A                      A                      A
 Frequencies --   1339.2681              1363.9317              1385.4272
 Red. masses --      1.2806                 4.7898                 5.9342
 Frc consts  --      1.3533                 5.2499                 6.7109
 IR Inten    --     26.1876                24.3027                47.8777

                     37                     38                     39
                      A                      A                      A
 Frequencies --   1442.3013              1492.7413              1509.8037
 Red. masses --      1.2632                 2.0115                 1.1371
 Frc consts  --      1.5482                 2.6408                 1.5272
 IR Inten    --      0.2236                11.9734                 1.1698

                     40                     41                     42
                      A                      A                      A
 Frequencies --   1517.1766              1526.3677              1551.5068
 Red. masses --      1.0569                 1.5387                 2.2002
 Frc consts  --      1.4334                 2.1122                 3.1205
 IR Inten    --      7.1070                63.1953                 4.2210

                     43                     44                     45
                      A                      A                      A
 Frequencies --   1661.6046              1674.9038              2681.8312
 Red. masses --      5.8755                 5.9891                 1.0385
 Frc consts  --      9.5576                 9.8990                 4.4007
 IR Inten    --    109.1906                44.0204                15.6442

                     46                     47                     48
                      A                      A                      A
 Frequencies --   3044.9414              3082.5030              3100.4050
 Red. masses --      1.0394                 1.0595                 1.0978
 Frc consts  --      5.6778                 5.9314                 6.2176
 IR Inten    --     28.6143                17.5733                20.6287

                     49                     50                     51
                      A                      A                      A
 Frequencies --   3130.4441              3133.9289              3171.4839
 Red. masses --      1.1019                 1.1068                 1.0902
 Frc consts  --      6.3622                 6.4047                 6.4609
 IR Inten    --     16.8706                 7.0547                13.9619

                     52                     53                     54
                      A                      A                      A
 Frequencies --   3177.1422              3207.1513              3750.4253
 Red. masses --      1.0900                 1.0909                 1.0659
 Frc consts  --      6.4826                 6.6109                 8.8332
 IR Inten    --     10.7646                 6.6596                38.4788

 - Thermochemistry -
 -------------------
 Temperature   298.150 Kelvin.  Pressure   1.00000 Atm.
 Atom     1 has atomic number  6 and mass  12.00000

 Molecular mass:   154.04524 amu.
 Principal axes and moments of inertia in atomic units:
                           1         2         3
     Eigenvalues --  1121.048652500.928833390.92501
           X            0.99943   0.03184   0.01078
           Y           -0.03192   0.99946   0.00716
           Z           -0.01054  -0.00750   0.99992
 This molecule is an asymmetric top.
 Rotational symmetry number  1.
 Warning -- assumption of classical behavior for rotation
           may cause significant error
 Rotational temperatures (Kelvin)      0.07726     0.03463     0.02554
 Rotational constants (GHZ):           1.60987     0.72163     0.53223
 Zero-point vibrational energy     420717.4 (Joules/Mol)
                                  100.55387 (Kcal/Mol)
 Warning -- explicit consideration of  15 degrees of freedom as
           vibrations may cause significant error
 Vibrational temperatures:     26.80    46.81   145.04   293.80   319.04
          (Kelvin)            339.49   375.19   396.39   459.71   537.57
                              708.20   734.02   751.40   794.01   836.20
                              912.93   992.98  1026.00  1167.27  1206.40
                             1232.18  1270.98  1402.58  1424.90  1464.70
                             1481.01  1524.51  1545.10  1714.67  1725.78
                             1728.80  1762.90  1871.43  1926.91  1962.39
                             1993.32  2075.15  2147.72  2172.27  2182.88
                             2196.10  2232.27  2390.68  2409.81  3858.56
                             4380.99  4435.03  4460.79  4504.01  4509.02
                             4563.06  4571.20  4614.38  5396.03

 Zero-point correction=                           0.160243 (Hartree/Particle)
 Thermal correction to Energy=                    0.170811
 Thermal correction to Enthalpy=                  0.171755
 Thermal correction to Gibbs Free Energy=         0.122118
 Sum of electronic and zero-point Energies=           -784.161169
 Sum of electronic and thermal Energies=              -784.150601
 Sum of electronic and thermal Enthalpies=            -784.149657
 Sum of electronic and thermal Free Energies=         -784.199294

                     E (Thermal)             CV                S
                      KCal/Mol        Cal/Mol-Kelvin    Cal/Mol-Kelvin
 Total                  107.185             38.714            104.469
 Electronic               0.000              0.000              0.000
 Translational            0.889              2.981             41.006
 Rotational               0.889              2.981             30.631
 Vibrational            105.408             32.753             32.832
 Vibration     1          0.593              1.986              6.775
 Vibration     2          0.594              1.983              5.669
 Vibration     3          0.604              1.948              3.439
 Vibration     4          0.640              1.834              2.095
 Vibration     5          0.648              1.808              1.945
 Vibration     6          0.655              1.786              1.833
 Vibration     7          0.669              1.744              1.657
 Vibration     8          0.677              1.719              1.561
 Vibration     9          0.705              1.636              1.313
 Vibration    10          0.745              1.526              1.065
 Vibration    11          0.848              1.267              0.678
 Vibration    12          0.865              1.227              0.633
 Vibration    13          0.877              1.201              0.605
 Vibration    14          0.907              1.136              0.540
 Vibration    15          0.938              1.072              0.483

 Optimization completed.
    -- Stationary point found.
 Normal termination of Gaussian 16 at Tue Dec  8 10:25:43 2020.

 ----------------------------------------------------------------------
 # B3LYP/6-311++G(d,p) empiricaldispersion=gd3bj scf=xqc pop=npa geom=c
 heck
 ----------------------------------------------------------------------

 --------------------------------------
 CID_139755158_JID_139_Energie_neutraal
 --------------------------------------
 Structure from the checkpoint file:  "JID_139.chk"
 Charge =  0 Multiplicity = 1

 SCF Done:  E(RB3LYP) =  -784.464334267     A.U. after   16 cycles
 Normal termination of Gaussian 16 at Tue Dec  8 10:26:54 2020.

 ----------------------------------------------------------------------
 # B3LYP/6-311++G(d,p) empiricaldispersion=gd3bj scf=xqc pop=npa geom=c
 heck
 ----------------------------------------------------------------------

 ------------------------------------
 CID_139755158_JID_139_Energie_kation
 ------------------------------------
 Structure from the checkpoint file:  "JID_139.chk"
 Charge =  1 Multiplicity = 2

 SCF Done:  E(UB3LYP) =  -784.163523659     A.U. after   28 cycles
 Normal termination of Gaussian 16 at Tue Dec  8 10:30:25 2020.
 Gaussian 16:  ES64L-G16RevA.03 25-Dec-2016

 ----------------------------------------------------------------------
 # B3LYP/6-311++G(d,p) empiricaldispersion=gd3bj scf=xqc pop=npa geom=c
 heck
 ----------------------------------------------------------------------

 -----------------------------------
 CID_139755158_JID_139_Energie_anion
 -----------------------------------
 Structure from the checkpoint file:  "JID_139.chk"
 Charge = -1 Multiplicity = 2

                         Standard orientation:
 ---------------------------------------------------------------------
 Center     Atomic      Atomic             Coordinates (Angstroms)
 Number     Number       Type             X           Y           Z
 ---------------------------------------------------------------------
      1          6           0       -2.635097   -2.161039   -0.270386
      2          6           0       -1.685172   -1.010177   -0.042332
      3          6           0       -0.343199   -1.254105    0.288896
      4          6           0        0.551666   -0.201681    0.480192
      5          6           0        0.105859    1.118031    0.338847
      6          6           0       -1.224895    1.367494    0.011922
      7          6           0       -2.119197    0.306453   -0.176074
      8          8           0       -1.721525    2.632925   -0.136037
      9          6           0        1.987902   -0.487911    0.827355
     10         16           0        3.183889   -0.063960   -0.523826
     11          1           0       -3.677752   -1.830629   -0.243100
     12          1           0       -2.461187   -2.628233   -1.248311
     13          1           0       -2.505032   -2.941228    0.487790
     14          1           0        0.003153   -2.278811    0.402015
     15          1           0        0.804656    1.942169    0.468557
     16          1           0       -3.150492    0.533455   -0.428002
     17          1           0       -1.001852    3.268098    0.002081
     18          1           0        2.324141    0.121244    1.672197
     19          1           0        2.119432   -1.537108    1.101927
     20          1           0        2.547698   -0.751380   -1.496161
 ---------------------------------------------------------------------

 SCF Done:  E(UB3LYP) =  -784.451356979     A.U. after   33 cycles
 SCF Done:  E(UB3LYP) =  -784.451356979     a.u. after    1 cycles

 The electronic state is 2-A.
 Alpha  occ. eigenvalues --  -88.73771 -19.04466 -10.12862 -10.10246 -10.08104
 Alpha  occ. eigenvalues --  -10.07988 -10.06729 -10.06053 -10.06047 -10.05940
 Alpha  occ. eigenvalues --   -7.82448  -5.78827  -5.78481  -5.77816  -0.95526
 Alpha  occ. eigenvalues --   -0.75684  -0.69817  -0.65844  -0.62952  -0.58645
 Alpha  occ. eigenvalues --   -0.55170  -0.50731  -0.47401  -0.42439  -0.39692
 Alpha  occ. eigenvalues --   -0.37614  -0.33838  -0.32370  -0.32125  -0.30799
 Alpha  occ. eigenvalues --   -0.30333  -0.29834  -0.29173  -0.27301  -0.25482
 Alpha  occ. eigenvalues --   -0.25186  -0.22937  -0.21377  -0.14828  -0.12971
 Alpha  occ. eigenvalues --   -0.11999   0.04596
 Alpha virt. eigenvalues --    0.06705   0.07460   0.07968   0.08806   0.09213
 Alpha virt. eigenvalues --    0.09700   0.10206   0.11130   0.11831   0.12421
 Alpha virt. eigenvalues --    0.12829   0.14111   0.14324   0.15621   0.15792

  Beta  occ. eigenvalues --  -88.73757 -19.04420 -10.12868 -10.10223 -10.08089
  Beta  occ. eigenvalues --  -10.07971 -10.06700 -10.06023 -10.06000 -10.05923
  Beta  occ. eigenvalues --   -7.82431  -5.78808  -5.78467  -5.77803  -0.95436
  Beta  occ. eigenvalues --   -0.75637  -0.69760  -0.65786  -0.62890  -0.58576
  Beta  occ. eigenvalues --   -0.55091  -0.50648  -0.47333  -0.42361  -0.39631
  Beta  occ. eigenvalues --   -0.37555  -0.33785  -0.32310  -0.32069  -0.30744
  Beta  occ. eigenvalues --   -0.30271  -0.29793  -0.29111  -0.27259  -0.25432
  Beta  occ. eigenvalues --   -0.25138  -0.22884  -0.21311  -0.14741  -0.12884
  Beta  occ. eigenvalues --   -0.11921
  Beta virt. eigenvalues --    0.06941   0.07713   0.08327   0.08563   0.09231
  Beta virt. eigenvalues --    0.09637   0.09976   0.10583   0.11396   0.12245
  Beta virt. eigenvalues --    0.12804   0.13208   0.14193   0.14785   0.15673

 Mulliken charges and spin densities:
               1          2
     1  C    1.517129  -1.981473
     2  C    0.481692   0.077226
     3  C   -3.125807   2.269847
     4  C   -0.380784   1.118613
     5  C   -2.361290   2.745658
     6  C    0.383897  -0.990985
     7  C    3.221017  -3.579858
     8  O   -0.284992   0.056787
     9  C    1.980019  -2.570524
    10  S    0.454718  -0.597391
    11  H   -0.122143   0.257154
    12  H   -0.233741   0.404013
    13  H   -0.093457   0.233262
    14  H   -0.390407   0.537174
    15  H   -0.809202   0.930320
    16  H    0.087307   0.057890
    17  H   -0.478095   0.763149
    18  H   -0.235425   0.407587
    19  H   -0.404777   0.626504
    20  H   -0.205657   0.235048
 Sum of Mulliken charges =  -1.00000   1.00000

 Dipole moment (field-independent basis, Debye):
    X=             -0.8800    Y=             -1.9848    Z=             -0.3302  Tot=              2.1961
 Quadrupole moment (field-independent basis, Debye-Ang):
   XX=           -115.1595   YY=           -123.4378   ZZ=            -92.2354
   XY=             -1.0800   XZ=             -3.1050   YZ=             -2.6729

 Summary of Natural Population Analysis:

                                       Natural Population
                Natural  -----------------------------------------------
    Atom  No    Charge         Core      Valence    Rydberg      Total
 -----------------------------------------------------------------------
      C    1   -0.29029      0.99964     2.28547    0.00519     3.29029
      C    2   -0.00427      0.99953     1.99547    0.00928     3.00427
      C    3   -0.11675      0.99946     2.10688    0.01041     3.11675
      C    4   -0.01584      0.99951     2.00562    0.01071     3.01584
      C    5   -0.13502      0.99946     2.12398    0.01159     3.13502
      C    6    0.16400      0.99939     1.82214    0.01446     2.83600
      C    7   -0.12486      0.99947     2.11600    0.00940     3.12486
      O    8   -0.34199      0.99988     3.33485    0.00726     4.34199
      C    9   -0.23987      0.99954     2.23082    0.00952     3.23987
      S   10   -0.02742      4.99968     3.01262    0.01511     8.02742
      H   11    0.09942      0.00000     0.39946    0.00112     0.40058
      H   12    0.10552      0.00000     0.39249    0.00199     0.39448
      H   13    0.10262      0.00000     0.39599    0.00139     0.39738
      H   14    0.09981      0.00000     0.39864    0.00156     0.40019
      H   15    0.10644      0.00000     0.39058    0.00299     0.39356
      H   16    0.10231      0.00000     0.39670    0.00100     0.39769
      H   17    0.23962      0.00000     0.24938    0.01100     0.26038
      H   18    0.11038      0.00000     0.38760    0.00202     0.38962
      H   19    0.10449      0.00000     0.39337    0.00214     0.39551
      H   20    0.06172      0.00000     0.43503    0.00325     0.43828
 =======================================================================
   * Total *   -0.00000     13.99555    26.87306    0.13139    41.00000

 Normal termination of Gaussian 16 at Tue Dec  8 10:37:47 2020.
