 Gaussian 16, Revision A.03,

 -----------------------------------------------------------
 # opt freq B3LYP/6-31G(d) empiricaldispersion=gd3bj scf=xqc
 -----------------------------------------------------------

 -------------------------------
 CID_117576256_JID_8175_neutraal
 -------------------------------
 Symbolic Z-matrix:
 Charge =  0 Multiplicity = 1

 SCF Done:  E(RB3LYP) =  -837.611999729     A.U. after   15 cycles
 SCF Done:  E(RB3LYP) =  -837.620777654     A.U. after   13 cycles
 SCF Done:  E(RB3LYP) =  -837.623517279     A.U. after   12 cycles
 SCF Done:  E(RB3LYP) =  -837.625475964     A.U. after   14 cycles
 SCF Done:  E(RB3LYP) =  -837.625965208     A.U. after   13 cycles
 SCF Done:  E(RB3LYP) =  -837.626620953     A.U. after   13 cycles
 SCF Done:  E(RB3LYP) =  -837.627622136     A.U. after   12 cycles
 SCF Done:  E(RB3LYP) =  -837.628155962     A.U. after   12 cycles
 SCF Done:  E(RB3LYP) =  -837.629358461     A.U. after   15 cycles
 SCF Done:  E(RB3LYP) =  -837.627769473     A.U. after   15 cycles
 SCF Done:  E(RB3LYP) =  -837.635454105     A.U. after    9 cycles
 SCF Done:  E(RB3LYP) =  -837.635454466     A.U. after    7 cycles
 SCF Done:  E(RB3LYP) =  -837.635454555     A.U. after    7 cycles
 SCF Done:  E(RB3LYP) =  -837.635454569     A.U. after    7 cycles
 SCF Done:  E(RB3LYP) =  -837.635454589     A.U. after    6 cycles
 Optimization completed.
    -- Stationary point found.
 Normal termination of Gaussian 16 at Fri Dec 11 19:41:19 2020.

 --------------------------------------------------------------------
 #N Geom=AllCheck Guess=TCheck SCRF=Check GenChk RB3LYP/6-31G(d) Freq
 --------------------------------------------------------------------

 Structure from the checkpoint file:  "JID_8175.chk"
 -------------------------------
 CID_117576256_JID_8175_neutraal
 -------------------------------
 Charge =  0 Multiplicity = 1

 SCF Done:  E(RB3LYP) =  -837.635454589     A.U. after    1 cycles

  Exact polarizability: 203.243 -21.509 159.434   1.472 -14.287 116.738
 Approx polarizability: 270.514 -31.907 236.442   7.768 -37.039 188.121

                      1                      2                      3
                      A                      A                      A
 Frequencies --     24.4652                28.5740                40.2691
 Red. masses --      4.2289                 3.8256                 4.9786
 Frc consts  --      0.0015                 0.0018                 0.0048
 IR Inten    --      0.4038                 0.8298                 2.0932

                      4                      5                      6
                      A                      A                      A
 Frequencies --     52.9554                58.4474                96.8755
 Red. masses --      4.9943                 4.8025                 3.0654
 Frc consts  --      0.0083                 0.0097                 0.0169
 IR Inten    --      0.4042                 0.0339                 0.2440

                      7                      8                      9
                      A                      A                      A
 Frequencies --    110.0916               135.4895               155.1118
 Red. masses --      2.7284                 1.5689                 1.7840
 Frc consts  --      0.0195                 0.0170                 0.0253
 IR Inten    --      0.4730                 0.7447                 0.4666

                     10                     11                     12
                      A                      A                      A
 Frequencies --    192.4947               201.1136               217.1455
 Red. masses --      3.5741                 3.3487                 4.1602
 Frc consts  --      0.0780                 0.0798                 0.1156
 IR Inten    --      2.2175                 4.4185                 1.7660

                     13                     14                     15
                      A                      A                      A
 Frequencies --    223.7492               243.8510               253.1233
 Red. masses --      3.5098                 1.2128                 2.2755
 Frc consts  --      0.1035                 0.0425                 0.0859
 IR Inten    --      0.2128                 1.8175                 1.3114

                     16                     17                     18
                      A                      A                      A
 Frequencies --    273.1861               304.5652               325.7263
 Red. masses --      2.1109                 1.6074                 3.1010
 Frc consts  --      0.0928                 0.0878                 0.1938
 IR Inten    --      1.8109                 1.0038                 8.2824

                     19                     20                     21
                      A                      A                      A
 Frequencies --    344.7287               354.4000               376.9930
 Red. masses --      3.2724                 2.2721                 4.2056
 Frc consts  --      0.2291                 0.1681                 0.3522
 IR Inten    --      7.6909                 2.7806                 6.0632

                     22                     23                     24
                      A                      A                      A
 Frequencies --    392.1527               437.0517               464.3773
 Red. masses --      3.7784                 2.9452                 1.5098
 Frc consts  --      0.3423                 0.3315                 0.1918
 IR Inten    --      3.6363                32.6804                64.9355

                     25                     26                     27
                      A                      A                      A
 Frequencies --    479.3428               501.3842               512.3630
 Red. masses --      2.3154                 2.1415                 1.5813
 Frc consts  --      0.3135                 0.3172                 0.2446
 IR Inten    --     29.2645                 2.0725               106.8661

                     28                     29                     30
                      A                      A                      A
 Frequencies --    544.7524               609.3913               637.0757
 Red. masses --      3.2549                 3.5145                 3.1598
 Frc consts  --      0.5691                 0.7690                 0.7556
 IR Inten    --      9.0346                17.2207                 8.8023

                     31                     32                     33
                      A                      A                      A
 Frequencies --    669.9671               688.0812               707.4473
 Red. masses --      3.1993                 2.3741                 6.5708
 Frc consts  --      0.8461                 0.6623                 1.9376
 IR Inten    --     12.8117                11.1516                12.9783

                     34                     35                     36
                      A                      A                      A
 Frequencies --    763.3807               786.5199               823.2951
 Red. masses --      4.0570                 2.3976                 3.5936
 Frc consts  --      1.3929                 0.8739                 1.4351
 IR Inten    --      6.4233                 3.2407                 8.0678

                     37                     38                     39
                      A                      A                      A
 Frequencies --    825.7139               843.6208               924.7137
 Red. masses --      3.0450                 3.7635                 1.7612
 Frc consts  --      1.2232                 1.5781                 0.8873
 IR Inten    --     46.5649                18.5140                 0.2479

                     40                     41                     42
                      A                      A                      A
 Frequencies --    940.7274               944.3016               959.4670
 Red. masses --      2.6103                 1.3469                 1.8895
 Frc consts  --      1.3610                 0.7076                 1.0248
 IR Inten    --      2.5502                37.0228                 8.2976

                     43                     44                     45
                      A                      A                      A
 Frequencies --    968.1344               985.4104               994.5602
 Red. masses --      1.9569                 2.5722                 1.4373
 Frc consts  --      1.0807                 1.4716                 0.8376
 IR Inten    --      4.9686                 6.8357                 0.7089

                     46                     47                     48
                      A                      A                      A
 Frequencies --   1001.6567              1014.7975              1045.0876
 Red. masses --      4.7674                 4.4922                 1.1470
 Frc consts  --      2.8182                 2.7256                 0.7381
 IR Inten    --     13.5005                14.0527                16.2143

                     49                     50                     51
                      A                      A                      A
 Frequencies --   1048.4739              1051.0225              1112.1345
 Red. masses --      1.9041                 1.6283                 2.6059
 Frc consts  --      1.2332                 1.0597                 1.8990
 IR Inten    --      6.5778                 1.3797                32.8421

                     52                     53                     54
                      A                      A                      A
 Frequencies --   1167.7158              1185.4919              1185.8483
 Red. masses --      1.9775                 1.3031                 2.6712
 Frc consts  --      1.5887                 1.0790                 2.2132
 IR Inten    --      0.7478                 1.2925               168.8087

                     55                     56                     57
                      A                      A                      A
 Frequencies --   1197.3224              1224.3293              1255.3263
 Red. masses --      2.5037                 1.7096                 3.1812
 Frc consts  --      2.1147                 1.5099                 2.9536
 IR Inten    --      2.1670                66.4859                51.4666

                     58                     59                     60
                      A                      A                      A
 Frequencies --   1262.9487              1276.5577              1290.0753
 Red. masses --      1.6053                 3.1041                 1.8867
 Frc consts  --      1.5086                 2.9804                 1.8500
 IR Inten    --    129.8232                57.2033               142.4673

                     61                     62                     63
                      A                      A                      A
 Frequencies --   1313.5738              1324.8452              1358.6821
 Red. masses --      4.0138                 1.2514                 3.5323
 Frc consts  --      4.0805                 1.2941                 3.8419
 IR Inten    --     76.7615                 3.1602                23.9207

                     64                     65                     66
                      A                      A                      A
 Frequencies --   1381.3661              1388.9946              1422.6450
 Red. masses --      1.2947                 1.5275                 1.2291
 Frc consts  --      1.4556                 1.7363                 1.4657
 IR Inten    --      4.9777                37.7558                 8.5870

                     67                     68                     69
                      A                      A                      A
 Frequencies --   1445.7498              1461.0476              1474.5849
 Red. masses --      1.2913                 1.6741                 1.1913
 Frc consts  --      1.5903                 2.1055                 1.5262
 IR Inten    --     22.5293                19.3346                10.2933

                     70                     71                     72
                      A                      A                      A
 Frequencies --   1476.7980              1489.1892              1495.4574
 Red. masses --      1.7373                 1.1995                 1.1383
 Frc consts  --      2.2324                 1.5673                 1.4999
 IR Inten    --     23.4151                 6.1421                 8.1977

                     73                     74                     75
                      A                      A                      A
 Frequencies --   1512.1755              1513.5783              1518.7543
 Red. masses --      1.0483                 1.0610                 1.0522
 Frc consts  --      1.4123                 1.4321                 1.4300
 IR Inten    --      5.8218                 1.3618                 3.7750

                     76                     77                     78
                      A                      A                      A
 Frequencies --   1523.7850              1529.6805              1541.9565
 Red. masses --      1.0478                 1.0619                 1.0672
 Frc consts  --      1.4335                 1.4639                 1.4950
 IR Inten    --      5.9407                 2.6504                15.2910

                     79                     80                     81
                      A                      A                      A
 Frequencies --   1553.4808              1574.3640              1624.5227
 Red. masses --      2.9530                 2.8492                 3.5941
 Frc consts  --      4.1987                 4.1609                 5.5885
 IR Inten    --    221.2580               220.9855                86.4527

                     82                     83                     84
                      A                      A                      A
 Frequencies --   1657.3881              1732.4726              1828.2269
 Red. masses --      5.6815                 4.4474                11.6424
 Frc consts  --      9.1952                 7.8649                22.9273
 IR Inten    --   1016.4292                 7.1088               153.2471

                     85                     86                     87
                      A                      A                      A
 Frequencies --   3062.9798              3072.1705              3077.7029
 Red. masses --      1.0343                 1.0653                 1.0366
 Frc consts  --      5.7172                 5.9242                 5.7849
 IR Inten    --     13.6295                45.0717                18.1287

                     88                     89                     90
                      A                      A                      A
 Frequencies --   3078.7548              3137.3588              3137.4535
 Red. masses --      1.0292                 1.1031                 1.0983
 Frc consts  --      5.7476                 6.3974                 6.3698
 IR Inten    --     25.7196                 6.8827                 1.6008

                     91                     92                     93
                      A                      A                      A
 Frequencies --   3147.8614              3149.5270              3151.4053
 Red. masses --      1.1034                 1.1034                 1.0594
 Frc consts  --      6.4417                 6.4489                 6.1987
 IR Inten    --     18.1093                19.7937                17.4794

                     94                     95                     96
                      A                      A                      A
 Frequencies --   3155.5307              3164.6142              3171.2957
 Red. masses --      1.1076                 1.1015                 1.0903
 Frc consts  --      6.4977                 6.4997                 6.4603
 IR Inten    --     17.9893                25.4708                48.1700

                     97                     98                     99
                      A                      A                      A
 Frequencies --   3172.1279              3186.4373              3230.8543
 Red. masses --      1.0929                 1.1077                 1.0904
 Frc consts  --      6.4792                 6.6267                 6.7062
 IR Inten    --      3.9222                14.6221                 5.0335

                    100                    101                    102
                      A                      A                      A
 Frequencies --   3234.0435              3600.9460              3601.5053
 Red. masses --      1.1148                 1.0759                 1.0762
 Frc consts  --      6.8697                 8.2200                 8.2245
 IR Inten    --     18.6403                21.0545                33.9639

 - Thermochemistry -
 -------------------
 Temperature   298.150 Kelvin.  Pressure   1.00000 Atm.
 Atom     1 has atomic number  6 and mass  12.00000

 Molecular mass:   250.14298 amu.
 Principal axes and moments of inertia in atomic units:
                           1         2         3
     Eigenvalues --  2869.336337060.992328728.15231
           X            0.99985  -0.01658  -0.00587
           Y            0.01657   0.99986  -0.00122
           Z            0.00589   0.00112   0.99998
 This molecule is an asymmetric top.
 Rotational symmetry number  1.
 Warning -- assumption of classical behavior for rotation
           may cause significant error
 Rotational temperatures (Kelvin)      0.03019     0.01227     0.00992
 Rotational constants (GHZ):           0.62898     0.25559     0.20677
 Zero-point vibrational energy     791995.2 (Joules/Mol)
                                  189.29141 (Kcal/Mol)
 Warning -- explicit consideration of  29 degrees of freedom as
           vibrations may cause significant error
 Vibrational temperatures:     35.20    41.11    57.94    76.19    84.09
          (Kelvin)            139.38   158.40   194.94   223.17   276.96
                              289.36   312.42   321.93   350.85   364.19
                              393.05   438.20   468.65   495.99   509.90
                              542.41   564.22   628.82   668.14   689.67
                              721.38   737.18   783.78   876.78   916.61
                              963.93   990.00  1017.86  1098.33  1131.63
                             1184.54  1188.02  1213.78  1330.46  1353.50
                             1358.64  1380.46  1392.93  1417.79  1430.95
                             1441.16  1460.07  1503.65  1508.52  1512.19
                             1600.11  1680.08  1705.66  1706.17  1722.68
                             1761.54  1806.13  1817.10  1836.68  1856.13
                             1889.94  1906.16  1954.84  1987.48  1998.45
                             2046.87  2080.11  2102.12  2121.60  2124.78
                             2142.61  2151.63  2175.68  2177.70  2185.15
                             2192.39  2200.87  2218.53  2235.11  2265.16
                             2337.33  2384.61  2492.64  2630.41  4406.94
                             4420.17  4428.13  4429.64  4513.96  4514.10
                             4529.07  4531.47  4534.17  4540.10  4553.17
                             4562.79  4563.98  4584.57  4648.48  4653.07
                             5180.96  5181.76

 Zero-point correction=                           0.301655 (Hartree/Particle)
 Thermal correction to Energy=                    0.320500
 Thermal correction to Enthalpy=                  0.321444
 Thermal correction to Gibbs Free Energy=         0.253007
 Sum of electronic and zero-point Energies=           -837.333800
 Sum of electronic and thermal Energies=              -837.314955
 Sum of electronic and thermal Enthalpies=            -837.314011
 Sum of electronic and thermal Free Energies=         -837.382447

                     E (Thermal)             CV                S
                      KCal/Mol        Cal/Mol-Kelvin    Cal/Mol-Kelvin
 Total                  201.117             69.482            144.038
 Electronic               0.000              0.000              0.000
 Translational            0.889              2.981             42.451
 Rotational               0.889              2.981             33.536
 Vibrational            199.339             63.521             68.051
 Vibration     1          0.593              1.985              6.234
 Vibration     2          0.593              1.984              5.926
 Vibration     3          0.594              1.981              5.246
 Vibration     4          0.596              1.976              4.704
 Vibration     5          0.596              1.974              4.509
 Vibration     6          0.603              1.951              3.516
 Vibration     7          0.606              1.941              3.267
 Vibration     8          0.613              1.918              2.867
 Vibration     9          0.620              1.897              2.609
 Vibration    10          0.634              1.850              2.204
 Vibration    11          0.638              1.838              2.123
 Vibration    12          0.646              1.815              1.983
 Vibration    13          0.649              1.805              1.929
 Vibration    14          0.659              1.773              1.775
 Vibration    15          0.664              1.758              1.709
 Vibration    16          0.676              1.723              1.576
 Vibration    17          0.695              1.665              1.392
 Vibration    18          0.710              1.624              1.281
 Vibration    19          0.723              1.586              1.190
 Vibration    20          0.730              1.566              1.147
 Vibration    21          0.748              1.519              1.051
 Vibration    22          0.760              1.487              0.992
 Vibration    23          0.797              1.389              0.836
 Vibration    24          0.822              1.329              0.753
 Vibration    25          0.836              1.296              0.712
 Vibration    26          0.857              1.247              0.655
 Vibration    27          0.867              1.223              0.628
 Vibration    28          0.900              1.151              0.555
 Vibration    29          0.968              1.012              0.434

 Optimization completed.
    -- Stationary point found.
 Normal termination of Gaussian 16 at Fri Dec 11 19:55:24 2020.

 ----------------------------------------------------------------------
 # B3LYP/6-311++G(d,p) empiricaldispersion=gd3bj scf=xqc pop=npa geom=c
 heck
 ----------------------------------------------------------------------

 ---------------------------------------
 CID_117576256_JID_8175_Energie_neutraal
 ---------------------------------------
 Structure from the checkpoint file:  "JID_8175.chk"
 Charge =  0 Multiplicity = 1

 SCF Done:  E(RB3LYP) =  -837.876240554     A.U. after   15 cycles
 Normal termination of Gaussian 16 at Fri Dec 11 20:00:47 2020.

 ----------------------------------------------------------------------
 # B3LYP/6-311++G(d,p) empiricaldispersion=gd3bj scf=xqc pop=npa geom=c
 heck
 ----------------------------------------------------------------------

 -------------------------------------
 CID_117576256_JID_8175_Energie_kation
 -------------------------------------
 Structure from the checkpoint file:  "JID_8175.chk"
 Charge =  1 Multiplicity = 2

 SCF Done:  E(UB3LYP) =  -837.588397114     A.U. after   27 cycles
 Normal termination of Gaussian 16 at Fri Dec 11 20:14:27 2020.
 Gaussian 16:  ES64L-G16RevA.03 25-Dec-2016

 ----------------------------------------------------------------------
 # B3LYP/6-311++G(d,p) empiricaldispersion=gd3bj scf=xqc pop=npa geom=c
 heck
 ----------------------------------------------------------------------

 ------------------------------------
 CID_117576256_JID_8175_Energie_anion
 ------------------------------------
 Structure from the checkpoint file:  "JID_8175.chk"
 Charge = -1 Multiplicity = 2

                         Standard orientation:
 ---------------------------------------------------------------------
 Center     Atomic      Atomic             Coordinates (Angstroms)
 Number     Number       Type             X           Y           Z
 ---------------------------------------------------------------------
      1          6           0        2.849975   -0.095842   -1.779652
      2          6           0        2.756679   -0.246631   -0.253489
      3          6           0        4.160394   -0.484882    0.331175
      4          6           0        2.200679    1.004667    0.467086
      5          8           0        1.989051    1.050342    1.656935
      6          8           0        1.997978    2.047339   -0.366724
      7          6           0        1.480693    3.232387    0.263614
      8          7           0        1.941549   -1.401659    0.105093
      9          6           0        0.571519   -1.461622    0.077894
     10          7           0        0.056916   -2.555739    0.693798
     11          6           0       -1.265801   -2.655917    0.679221
     12          7           0       -2.156879   -1.818560    0.143638
     13          6           0       -1.634770   -0.735733   -0.466825
     14          6           0       -0.249976   -0.506610   -0.526157
     15          7           0       -2.511033    0.136802   -1.062961
     16          6           0       -3.944838    0.109119   -0.775845
     17          6           0       -4.290050    0.833435    0.498085
     18          6           0       -5.084925    1.901062    0.563509
     19          1           0        3.454106    0.773968   -2.049577
     20          1           0        1.867517    0.013994   -2.242086
     21          1           0        3.316735   -0.996477   -2.189096
     22          1           0        4.831288    0.335958    0.061765
     23          1           0        4.110421   -0.551484    1.421679
     24          1           0        4.573658   -1.414537   -0.073718
     25          1           0        0.516548    3.019525    0.732333
     26          1           0        2.174479    3.591784    1.027376
     27          1           0        1.371698    3.964944   -0.536068
     28          1           0        2.336079   -2.055347    0.769023
     29          1           0       -1.681194   -3.531876    1.176059
     30          1           0        0.140540    0.377451   -1.013715
     31          1           0       -2.130101    1.048881   -1.277711
     32          1           0       -4.472399    0.554109   -1.626572
     33          1           0       -4.228179   -0.943545   -0.706413
     34          1           0       -3.825258    0.433095    1.398249
     35          1           0       -5.305884    2.397738    1.504342
     36          1           0       -5.557634    2.313869   -0.326221
 ---------------------------------------------------------------------

 SCF Done:  E(UB3LYP) =  -837.866697520     A.U. after   33 cycles
 SCF Done:  E(UB3LYP) =  -837.866697520     a.u. after    1 cycles

 The electronic state is 2-A.
 Alpha  occ. eigenvalues --  -19.08199 -19.02406 -14.24418 -14.24267 -14.20925
 Alpha  occ. eigenvalues --  -14.20758 -10.21143 -10.16274 -10.16252 -10.15143
 Alpha  occ. eigenvalues --  -10.14437 -10.12707 -10.11903 -10.09295 -10.08806
 Alpha  occ. eigenvalues --  -10.08426 -10.07833 -10.07467  -1.02170  -0.93471
 Alpha  occ. eigenvalues --   -0.90581  -0.87130  -0.83748  -0.77525  -0.71620
 Alpha  occ. eigenvalues --   -0.70218  -0.67386  -0.63857  -0.61273  -0.60199
 Alpha  occ. eigenvalues --   -0.57409  -0.54629  -0.52827  -0.48598  -0.47568
 Alpha  occ. eigenvalues --   -0.47273  -0.44623  -0.41577  -0.41275  -0.40343
 Alpha  occ. eigenvalues --   -0.39079  -0.37584  -0.37357  -0.37185  -0.36355
 Alpha  occ. eigenvalues --   -0.35016  -0.34585  -0.34263  -0.33871  -0.31976
 Alpha  occ. eigenvalues --   -0.31397  -0.30391  -0.29877  -0.29560  -0.28873
 Alpha  occ. eigenvalues --   -0.28322  -0.27262  -0.26567  -0.25645  -0.22622
 Alpha  occ. eigenvalues --   -0.22037  -0.20748  -0.19319  -0.18998  -0.16939
 Alpha  occ. eigenvalues --   -0.14794  -0.13446   0.03984
 Alpha virt. eigenvalues --    0.05775   0.06623   0.06837   0.07413   0.07780
 Alpha virt. eigenvalues --    0.08005   0.08267   0.08361   0.08666   0.08978
 Alpha virt. eigenvalues --    0.09489   0.09879   0.10357   0.10666   0.11335

  Beta  occ. eigenvalues --  -19.08188 -19.02386 -14.24415 -14.24239 -14.20925
  Beta  occ. eigenvalues --  -14.20751 -10.21133 -10.16275 -10.16247 -10.15142
  Beta  occ. eigenvalues --  -10.14435 -10.12655 -10.11892 -10.09296 -10.08770
  Beta  occ. eigenvalues --  -10.08400 -10.07822 -10.07445  -1.02145  -0.93442
  Beta  occ. eigenvalues --   -0.90569  -0.87111  -0.83726  -0.77510  -0.71602
  Beta  occ. eigenvalues --   -0.70196  -0.67366  -0.63792  -0.61225  -0.60162
  Beta  occ. eigenvalues --   -0.57384  -0.54584  -0.52785  -0.48558  -0.47531
  Beta  occ. eigenvalues --   -0.47230  -0.44603  -0.41551  -0.41245  -0.40301
  Beta  occ. eigenvalues --   -0.39037  -0.37555  -0.37332  -0.37149  -0.36324
  Beta  occ. eigenvalues --   -0.34968  -0.34564  -0.34230  -0.33844  -0.31935
  Beta  occ. eigenvalues --   -0.31359  -0.30354  -0.29850  -0.29537  -0.28826
  Beta  occ. eigenvalues --   -0.28293  -0.27223  -0.26538  -0.25622  -0.22599
  Beta  occ. eigenvalues --   -0.21988  -0.20739  -0.19294  -0.18969  -0.16929
  Beta  occ. eigenvalues --   -0.14779  -0.13428
  Beta virt. eigenvalues --    0.06206   0.06376   0.06864   0.07435   0.07702
  Beta virt. eigenvalues --    0.08081   0.08115   0.08445   0.08557   0.08985
  Beta virt. eigenvalues --    0.09271   0.09935   0.10076   0.10855   0.11021

 Mulliken charges and spin densities:
               1          2
     1  C    0.497275  -0.862222
     2  C   -1.351296   0.867710
     3  C    0.313607  -0.905632
     4  C   -0.298136  -0.032515
     5  O   -0.161512   0.003645
     6  O    0.045047   0.063332
     7  C    1.045215  -1.230933
     8  N    0.047937  -0.037524
     9  C   -0.876681  -0.171529
    10  N   -0.059547  -0.013387
    11  C    0.256637  -0.130670
    12  N   -0.176826  -0.027979
    13  C    0.454019  -0.213274
    14  C    0.091175   0.095716
    15  N   -0.033367   0.147463
    16  C    0.436917  -1.061384
    17  C   -0.646848   1.073591
    18  C    0.309799  -0.861591
    19  H   -0.066642   0.253804
    20  H   -0.263955   0.405768
    21  H    0.095468   0.071129
    22  H   -0.242939   0.406930
    23  H    0.011834   0.167233
    24  H   -0.152164   0.312523
    25  H    0.031220   0.162785
    26  H   -0.240950   0.402297
    27  H   -0.642972   0.817644
    28  H    0.326376  -0.012431
    29  H    0.187605   0.007707
    30  H    0.540951  -0.206381
    31  H   -0.289863   0.544572
    32  H   -0.213255   0.391228
    33  H    0.228976  -0.035306
    34  H    0.009696   0.154957
    35  H   -0.007590   0.124658
    36  H   -0.205212   0.328068
 Sum of Mulliken charges =  -1.00000   1.00000

 Dipole moment (field-independent basis, Debye):
    X=             -1.0643    Y=             -5.5187    Z=              1.9056  Tot=              5.9347
 Quadrupole moment (field-independent basis, Debye-Ang):
   XX=           -183.4393   YY=           -165.6359   ZZ=           -144.2280
   XY=             -0.9591   XZ=             -2.9955   YZ=              6.7713

 Summary of Natural Population Analysis:

                                       Natural Population
                Natural  -----------------------------------------------
    Atom  No    Charge         Core      Valence    Rydberg      Total
 -----------------------------------------------------------------------
      C    1   -0.28615      0.99962     2.27924    0.00728     3.28615
      C    2    0.02057      0.99954     1.96554    0.01435     2.97943
      C    3   -0.28298      0.99963     2.27634    0.00700     3.28298
      C    4    0.41206      0.99962     1.56097    0.02734     2.58794
      O    5   -0.30126      0.99987     3.29568    0.00571     4.30126
      O    6   -0.27743      0.99986     3.26694    0.01064     4.27743
      C    7   -0.10375      0.99959     2.09487    0.00929     3.10375
      N    8   -0.30919      0.99964     2.79809    0.01146     3.80919
      C    9    0.22195      0.99954     1.76401    0.01450     2.77805
      N   10   -0.28462      0.99968     2.77545    0.00949     3.78462
      C   11    0.15476      0.99967     1.82707    0.01850     2.84524
      N   12   -0.29498      0.99968     2.78622    0.00908     3.79498
      C   13    0.22041      0.99954     1.76475    0.01529     2.77959
      C   14   -0.19572      0.99947     2.18850    0.00776     3.19572
      N   15   -0.29996      0.99967     2.78902    0.01127     3.79996
      C   16   -0.10918      0.99959     2.09633    0.01326     3.10918
      C   17   -0.09123      0.99956     2.08195    0.00971     3.09123
      C   18   -0.18833      0.99957     2.18146    0.00731     3.18833
      H   19    0.10820      0.00000     0.39037    0.00143     0.39180
      H   20    0.10694      0.00000     0.39166    0.00141     0.39306
      H   21    0.10107      0.00000     0.39785    0.00108     0.39893
      H   22    0.10902      0.00000     0.38983    0.00115     0.39098
      H   23    0.10839      0.00000     0.39052    0.00109     0.39161
      H   24    0.10301      0.00000     0.39585    0.00114     0.39699
      H   25    0.09328      0.00000     0.40531    0.00141     0.40672
      H   26    0.09208      0.00000     0.40648    0.00144     0.40792
      H   27    0.09764      0.00000     0.39949    0.00287     0.40236
      H   28    0.19566      0.00000     0.30104    0.00330     0.30434
      H   29    0.08009      0.00000     0.41890    0.00101     0.41991
      H   30    0.11252      0.00000     0.38494    0.00254     0.38748
      H   31    0.19378      0.00000     0.30187    0.00435     0.30622
      H   32    0.09768      0.00000     0.40112    0.00120     0.40232
      H   33    0.11336      0.00000     0.38497    0.00167     0.38664
      H   34    0.09760      0.00000     0.40127    0.00113     0.40240
      H   35    0.09357      0.00000     0.40561    0.00082     0.40643
      H   36    0.09112      0.00000     0.40755    0.00133     0.40888
 =======================================================================
   * Total *    0.00000     17.99333    48.76704    0.23963    67.00000

 Normal termination of Gaussian 16 at Fri Dec 11 20:31:21 2020.
