 Gaussian 16, Revision A.03,

 -----------------------------------------------------------
 # opt freq B3LYP/6-31G(d) empiricaldispersion=gd3bj scf=xqc
 -----------------------------------------------------------

 -----------------------------
 CID_57018534_JID_943_neutraal
 -----------------------------
 Symbolic Z-matrix:
 Charge =  0 Multiplicity = 1

 SCF Done:  E(RB3LYP) =  -459.834499189     A.U. after   14 cycles
 SCF Done:  E(RB3LYP) =  -459.839724682     A.U. after   12 cycles
 SCF Done:  E(RB3LYP) =  -459.841224006     A.U. after   12 cycles
 SCF Done:  E(RB3LYP) =  -459.841750317     A.U. after   11 cycles
 SCF Done:  E(RB3LYP) =  -459.841875137     A.U. after   11 cycles
 SCF Done:  E(RB3LYP) =  -459.841916615     A.U. after   11 cycles
 SCF Done:  E(RB3LYP) =  -459.841929166     A.U. after   10 cycles
 SCF Done:  E(RB3LYP) =  -459.841930864     A.U. after    8 cycles
 SCF Done:  E(RB3LYP) =  -459.841930991     A.U. after    7 cycles
 Optimization completed.
    -- Stationary point found.
 Normal termination of Gaussian 16 at Tue Dec  8 13:30:55 2020.

 --------------------------------------------------------------------
 #N Geom=AllCheck Guess=TCheck SCRF=Check GenChk RB3LYP/6-31G(d) Freq
 --------------------------------------------------------------------

 Structure from the checkpoint file:  "JID_943.chk"
 -----------------------------
 CID_57018534_JID_943_neutraal
 -----------------------------
 Charge =  0 Multiplicity = 1

 SCF Done:  E(RB3LYP) =  -459.841930991     A.U. after    1 cycles

  Exact polarizability: 102.917  -1.356  93.408  -1.428   4.994  72.596
 Approx polarizability: 126.152  -6.437 144.476  -2.984  13.787 108.108

                      1                      2                      3
                      A                      A                      A
 Frequencies --     50.3845                78.6081               123.8457
 Red. masses --      3.0378                 2.8888                 2.8628
 Frc consts  --      0.0045                 0.0105                 0.0259
 IR Inten    --      0.7586                 2.3798                 1.4764

                      4                      5                      6
                      A                      A                      A
 Frequencies --    176.7912               207.0116               232.4398
 Red. masses --      1.3524                 1.7141                 1.6483
 Frc consts  --      0.0249                 0.0433                 0.0525
 IR Inten    --      0.3569                 0.6312                 0.9285

                      7                      8                      9
                      A                      A                      A
 Frequencies --    251.1979               258.1473               362.2278
 Red. masses --      1.9916                 2.2026                 4.1627
 Frc consts  --      0.0740                 0.0865                 0.3218
 IR Inten    --      3.1020                 1.5342                 1.1494

                     10                     11                     12
                      A                      A                      A
 Frequencies --    413.5726               417.4219               467.5227
 Red. masses --      1.8920                 2.0419                 2.8174
 Frc consts  --      0.1907                 0.2096                 0.3628
 IR Inten    --      3.4694                 0.3046                 2.0480

                     13                     14                     15
                      A                      A                      A
 Frequencies --    484.7422               543.6335               558.3708
 Red. masses --      2.1722                 5.6459                 3.6706
 Frc consts  --      0.3007                 0.9831                 0.6743
 IR Inten    --     28.0617                 9.8078                 7.1369

                     16                     17                     18
                      A                      A                      A
 Frequencies --    713.7514               785.4937               809.9732
 Red. masses --      2.8124                 3.0740                 2.0092
 Frc consts  --      0.8441                 1.1175                 0.7766
 IR Inten    --     78.7198                 8.8219                30.7181

                     19                     20                     21
                      A                      A                      A
 Frequencies --    827.1443               863.9222               925.2839
 Red. masses --      1.7011                 2.0533                 2.5565
 Frc consts  --      0.6857                 0.9029                 1.2896
 IR Inten    --     12.8745                45.4097                24.8768

                     22                     23                     24
                      A                      A                      A
 Frequencies --    958.8878               986.4608              1014.2441
 Red. masses --      2.1692                 2.7946                 2.0437
 Frc consts  --      1.1751                 1.6022                 1.2387
 IR Inten    --      4.5288                34.3873                 7.7759

                     25                     26                     27
                      A                      A                      A
 Frequencies --   1027.2918              1062.8116              1091.6273
 Red. masses --      1.9912                 2.1884                 2.0451
 Frc consts  --      1.2381                 1.4565                 1.4359
 IR Inten    --      4.9062                17.8760                30.0997

                     28                     29                     30
                      A                      A                      A
 Frequencies --   1120.7053              1153.8344              1170.4674
 Red. masses --      3.9412                 1.8731                 1.3912
 Frc consts  --      2.9165                 1.4693                 1.1229
 IR Inten    --     31.6506                23.7671                 5.8072

                     31                     32                     33
                      A                      A                      A
 Frequencies --   1188.5320              1202.9649              1216.7142
 Red. masses --      1.2733                 2.0143                 1.4536
 Frc consts  --      1.0598                 1.7174                 1.2678
 IR Inten    --      1.8516                 9.3542                 6.6015

                     34                     35                     36
                      A                      A                      A
 Frequencies --   1226.5795              1259.2443              1320.4614
 Red. masses --      1.5446                 1.6098                 1.4380
 Frc consts  --      1.3692                 1.5040                 1.4773
 IR Inten    --      3.4268                 6.6939                 5.6306

                     37                     38                     39
                      A                      A                      A
 Frequencies --   1325.4518              1358.1555              1392.7852
 Red. masses --      1.7530                 1.4066                 1.7873
 Frc consts  --      1.8145                 1.5287                 2.0427
 IR Inten    --      8.0721                 2.7516                46.7403

                     40                     41                     42
                      A                      A                      A
 Frequencies --   1402.3675              1415.9375              1473.7121
 Red. masses --      1.3332                 1.4567                 1.1811
 Frc consts  --      1.5448                 1.7207                 1.5114
 IR Inten    --      6.0255                13.7654                 7.8792

                     43                     44                     45
                      A                      A                      A
 Frequencies --   1479.7157              1489.3521              1504.3353
 Red. masses --      1.1651                 1.1878                 1.0845
 Frc consts  --      1.5031                 1.5524                 1.4459
 IR Inten    --      1.9043                19.9373                 2.8440

                     46                     47                     48
                      A                      A                      A
 Frequencies --   1505.2614              1511.8141              1515.6382
 Red. masses --      1.0570                 1.0780                 1.0541
 Frc consts  --      1.4111                 1.4517                 1.4267
 IR Inten    --      1.9663                 3.4336                 8.3534

                     49                     50                     51
                      A                      A                      A
 Frequencies --   1523.6003              1536.4650              1547.6681
 Red. masses --      1.1077                 1.0518                 1.0508
 Frc consts  --      1.5150                 1.4630                 1.4829
 IR Inten    --      0.9894                 7.4506                 3.0436

                     52                     53                     54
                      A                      A                      A
 Frequencies --   1759.8230              2975.5349              2995.3164
 Red. masses --      6.6250                 1.0560                 1.0716
 Frc consts  --     12.0885                 5.5084                 5.6645
 IR Inten    --     36.8095                70.4643                56.0698

                     55                     56                     57
                      A                      A                      A
 Frequencies --   3018.3324              3033.3872              3044.3214
 Red. masses --      1.0647                 1.0304                 1.0705
 Frc consts  --      5.7149                 5.5861                 5.8454
 IR Inten    --     43.2760                56.2623                23.9168

                     58                     59                     60
                      A                      A                      A
 Frequencies --   3055.5212              3059.0209              3075.1322
 Red. masses --      1.0856                 1.0913                 1.0763
 Frc consts  --      5.9713                 6.0167                 5.9965
 IR Inten    --     54.9143                26.5942                51.5136

                     61                     62                     63
                      A                      A                      A
 Frequencies --   3093.2412              3097.2185              3116.1693
 Red. masses --      1.1058                 1.1076                 1.1037
 Frc consts  --      6.2340                 6.2599                 6.3146
 IR Inten    --     43.4205                44.6971                33.4316

                     64                     65                     66
                      A                      A                      A
 Frequencies --   3139.3347              3210.9962              3462.1538
 Red. masses --      1.1032                 1.0893                 1.0756
 Frc consts  --      6.4059                 6.6171                 7.5963
 IR Inten    --     29.1321                 8.4785                 2.2406

 - Thermochemistry -
 -------------------
 Temperature   298.150 Kelvin.  Pressure   1.00000 Atm.
 Atom     1 has atomic number  6 and mass  12.00000

 Molecular mass:   142.11061 amu.
 Principal axes and moments of inertia in atomic units:
                           1         2         3
     Eigenvalues --   659.063572387.205032589.90008
           X            0.99995   0.00939  -0.00257
           Y           -0.00944   0.99974  -0.02059
           Z            0.00237   0.02061   0.99978
 This molecule is an asymmetric top.
 Rotational symmetry number  1.
 Warning -- assumption of classical behavior for rotation
           may cause significant error
 Rotational temperatures (Kelvin)      0.13142     0.03628     0.03344
 Rotational constants (GHZ):           2.73834     0.75601     0.69684
 Zero-point vibrational energy     560271.5 (Joules/Mol)
                                  133.90810 (Kcal/Mol)
 Warning -- explicit consideration of  15 degrees of freedom as
           vibrations may cause significant error
 Vibrational temperatures:     72.49   113.10   178.19   254.36   297.84
          (Kelvin)            334.43   361.42   371.42   521.17   595.04
                              600.58   672.66   697.44   782.17   803.37
                             1026.93  1130.15  1165.37  1190.08  1242.99
                             1331.28  1379.63  1419.30  1459.27  1478.04
                             1529.15  1570.61  1612.44  1660.11  1684.04
                             1710.03  1730.80  1750.58  1764.77  1811.77
                             1899.85  1907.03  1954.08  2003.91  2017.69
                             2037.22  2120.34  2128.98  2142.85  2164.40
                             2165.74  2175.16  2180.67  2192.12  2210.63
                             2226.75  2531.99  4281.13  4309.59  4342.71
                             4364.37  4380.10  4396.21  4401.25  4424.43
                             4450.48  4456.21  4483.47  4516.80  4619.91
                             4981.27

 Zero-point correction=                           0.213396 (Hartree/Particle)
 Thermal correction to Energy=                    0.223841
 Thermal correction to Enthalpy=                  0.224785
 Thermal correction to Gibbs Free Energy=         0.177389
 Sum of electronic and zero-point Energies=           -459.628535
 Sum of electronic and thermal Energies=              -459.618090
 Sum of electronic and thermal Enthalpies=            -459.617146
 Sum of electronic and thermal Free Energies=         -459.664542

                     E (Thermal)             CV                S
                      KCal/Mol        Cal/Mol-Kelvin    Cal/Mol-Kelvin
 Total                  140.462             39.164             99.753
 Electronic               0.000              0.000              0.000
 Translational            0.889              2.981             40.766
 Rotational               0.889              2.981             29.789
 Vibrational            138.685             33.202             29.199
 Vibration     1          0.595              1.977              4.802
 Vibration     2          0.600              1.964              3.925
 Vibration     3          0.610              1.929              3.039
 Vibration     4          0.628              1.871              2.362
 Vibration     5          0.641              1.830              2.070
 Vibration     6          0.653              1.791              1.860
 Vibration     7          0.663              1.761              1.722
 Vibration     8          0.667              1.749              1.674
 Vibration     9          0.736              1.550              1.113
 Vibration    10          0.777              1.441              0.914
 Vibration    11          0.780              1.432              0.901
 Vibration    12          0.825              1.322              0.745
 Vibration    13          0.841              1.284              0.697
 Vibration    14          0.899              1.154              0.558
 Vibration    15          0.914              1.121              0.527

 Optimization completed.
    -- Stationary point found.
 Normal termination of Gaussian 16 at Tue Dec  8 13:37:32 2020.

 ----------------------------------------------------------------------
 # B3LYP/6-311++G(d,p) empiricaldispersion=gd3bj scf=xqc pop=npa geom=c
 heck
 ----------------------------------------------------------------------

 -------------------------------------
 CID_57018534_JID_943_Energie_neutraal
 -------------------------------------
 Structure from the checkpoint file:  "JID_943.chk"
 Charge =  0 Multiplicity = 1

 SCF Done:  E(RB3LYP) =  -459.976236573     A.U. after   14 cycles
 Normal termination of Gaussian 16 at Tue Dec  8 13:39:46 2020.

 ----------------------------------------------------------------------
 # B3LYP/6-311++G(d,p) empiricaldispersion=gd3bj scf=xqc pop=npa geom=c
 heck
 ----------------------------------------------------------------------

 -----------------------------------
 CID_57018534_JID_943_Energie_kation
 -----------------------------------
 Structure from the checkpoint file:  "JID_943.chk"
 Charge =  1 Multiplicity = 2

 SCF Done:  E(UB3LYP) =  -459.692424823     A.U. after   24 cycles
 Normal termination of Gaussian 16 at Tue Dec  8 13:47:55 2020.
 Gaussian 16:  ES64L-G16RevA.03 25-Dec-2016

 ----------------------------------------------------------------------
 # B3LYP/6-311++G(d,p) empiricaldispersion=gd3bj scf=xqc pop=npa geom=c
 heck
 ----------------------------------------------------------------------

 ----------------------------------
 CID_57018534_JID_943_Energie_anion
 ----------------------------------
 Structure from the checkpoint file:  "JID_943.chk"
 Charge = -1 Multiplicity = 2

                         Standard orientation:
 ---------------------------------------------------------------------
 Center     Atomic      Atomic             Coordinates (Angstroms)
 Number     Number       Type             X           Y           Z
 ---------------------------------------------------------------------
      1          6           0        2.441686   -0.692696    1.261310
      2          7           0        2.318531   -0.353278   -0.151847
      3          6           0        1.998810    1.054967   -0.368333
      4          6           0        0.617346    1.465121    0.178878
      5          6           0       -0.422413    0.436051   -0.191589
      6          6           0       -0.097373   -0.775898   -0.657536
      7          6           0        1.343318   -1.197345   -0.848267
      8          7           0       -1.741103    0.855803    0.115637
      9          8           0       -2.735240   -0.005711   -0.432992
     10          6           0       -3.384283   -0.679092    0.638942
     11          1           0        2.817014   -1.717623    1.353292
     12          1           0        1.498452   -0.626605    1.831430
     13          1           0        3.172265   -0.023242    1.728932
     14          1           0        2.782499    1.671589    0.086385
     15          1           0        2.025843    1.236527   -1.450081
     16          1           0        0.646133    1.582613    1.270599
     17          1           0        0.339634    2.451232   -0.223132
     18          1           0       -0.881073   -1.472260   -0.936933
     19          1           0        1.593565   -1.195194   -1.921396
     20          1           0        1.485118   -2.231442   -0.509524
     21          1           0       -1.936698    1.773230   -0.285822
     22          1           0       -4.121777   -1.333987    0.165818
     23          1           0       -2.674063   -1.281312    1.218664
     24          1           0       -3.889526    0.027828    1.308750
 ---------------------------------------------------------------------

 SCF Done:  E(UB3LYP) =  -459.959283766     A.U. after   31 cycles

 The electronic state is 2-A.
 Alpha  occ. eigenvalues --  -19.05162 -14.25659 -14.19539 -10.10673 -10.09385
 Alpha  occ. eigenvalues --  -10.08818 -10.08511 -10.07655 -10.06412 -10.04404
 Alpha  occ. eigenvalues --   -0.97326  -0.82272  -0.76540  -0.66217  -0.64513
 Alpha  occ. eigenvalues --   -0.59169  -0.56181  -0.53369  -0.49080  -0.42829
 Alpha  occ. eigenvalues --   -0.41268  -0.39837  -0.37005  -0.35321  -0.34567
 Alpha  occ. eigenvalues --   -0.34214  -0.32351  -0.31103  -0.29198  -0.28327
 Alpha  occ. eigenvalues --   -0.27901  -0.26859  -0.26048  -0.24687  -0.22665
 Alpha  occ. eigenvalues --   -0.19549  -0.17105  -0.10839  -0.10655   0.04790
 Alpha virt. eigenvalues --    0.07054   0.07460   0.08430   0.09188   0.10087
 Alpha virt. eigenvalues --    0.10401   0.10828   0.10911   0.11999   0.12508
 Alpha virt. eigenvalues --    0.13120   0.13870   0.14248   0.15038   0.15983

  Beta  occ. eigenvalues --  -19.05156 -14.25633 -14.19540 -10.10635 -10.09385
  Beta  occ. eigenvalues --  -10.08805 -10.08489 -10.07619 -10.06377 -10.04394
  Beta  occ. eigenvalues --   -0.97309  -0.82261  -0.76508  -0.66178  -0.64477
  Beta  occ. eigenvalues --   -0.59114  -0.56108  -0.53303  -0.49025  -0.42775
  Beta  occ. eigenvalues --   -0.41222  -0.39800  -0.36969  -0.35280  -0.34527
  Beta  occ. eigenvalues --   -0.34178  -0.32315  -0.31067  -0.29163  -0.28287
  Beta  occ. eigenvalues --   -0.27847  -0.26827  -0.26010  -0.24653  -0.22635
  Beta  occ. eigenvalues --   -0.19516  -0.17077  -0.10820  -0.10632
  Beta virt. eigenvalues --    0.07100   0.07954   0.08556   0.08908   0.09964
  Beta virt. eigenvalues --    0.10568   0.10924   0.11267   0.11354   0.12460
  Beta virt. eigenvalues --    0.12691   0.13509   0.14325   0.14593   0.15252

 Mulliken charges and spin densities:
               1          2
     1  C    0.750420  -1.154898
     2  N   -0.112614   0.229184
     3  C    0.378920  -0.853428
     4  C   -0.998931   0.881612
     5  C    1.067700  -1.424677
     6  C    0.242432   0.021824
     7  C    0.192150  -1.023816
     8  N   -0.552089   0.315492
     9  O   -0.049083   0.047228
    10  C    0.796910  -1.055438
    11  H   -0.076945   0.207947
    12  H   -0.110191   0.250345
    13  H   -0.307610   0.458437
    14  H   -0.341713   0.522760
    15  H    0.014728   0.136080
    16  H   -0.092814   0.298204
    17  H   -0.819504   0.971308
    18  H   -0.010444   0.199410
    19  H   -0.068906   0.235468
    20  H    0.008403   0.115382
    21  H   -0.079370   0.375336
    22  H   -0.346006   0.478870
    23  H   -0.170621   0.319263
    24  H   -0.314820   0.448109
 Sum of Mulliken charges =  -1.00000   1.00000

 Dipole moment (field-independent basis, Debye):
    X=              0.8594    Y=             -2.4021    Z=             -1.5664  Tot=              2.9937
 Quadrupole moment (field-independent basis, Debye-Ang):
   XX=           -123.3096   YY=           -102.8530   ZZ=            -94.5020
   XY=             -2.8642   XZ=             -1.7292   YZ=              1.2731

 Summary of Natural Population Analysis:

                                       Natural Population
                Natural  -----------------------------------------------
    Atom  No    Charge         Core      Valence    Rydberg      Total
 -----------------------------------------------------------------------
      C    1   -0.18007      0.99964     2.17135    0.00908     3.18007
      N    2   -0.27957      0.99975     2.76528    0.01455     3.77957
      C    3   -0.08024      0.99962     2.06782    0.01281     3.08024
      C    4   -0.21864      0.99958     2.20868    0.01038     3.21864
      C    5    0.07816      0.99944     1.90860    0.01381     2.92184
      C    6   -0.14630      0.99945     2.13799    0.00886     3.14630
      C    7   -0.09008      0.99960     2.07999    0.01049     3.09008
      N    8   -0.16418      0.99965     2.65000    0.01452     3.66418
      O    9   -0.22740      0.99991     3.21619    0.01130     4.22740
      C   10   -0.09265      0.99962     2.08413    0.00889     3.09265
      H   11    0.09283      0.00000     0.40600    0.00117     0.40717
      H   12    0.08526      0.00000     0.41297    0.00177     0.41474
      H   13    0.09507      0.00000     0.40367    0.00126     0.40493
      H   14    0.09726      0.00000     0.40136    0.00138     0.40274
      H   15    0.09364      0.00000     0.40485    0.00151     0.40636
      H   16    0.10629      0.00000     0.39179    0.00192     0.39371
      H   17    0.10587      0.00000     0.39103    0.00310     0.39413
      H   18    0.10536      0.00000     0.39318    0.00145     0.39464
      H   19    0.09340      0.00000     0.40507    0.00154     0.40660
      H   20    0.09509      0.00000     0.40342    0.00148     0.40491
      H   21    0.17837      0.00000     0.31754    0.00409     0.32163
      H   22    0.08666      0.00000     0.41138    0.00196     0.41334
      H   23    0.08391      0.00000     0.41392    0.00218     0.41609
      H   24    0.08195      0.00000     0.41560    0.00244     0.41805
 =======================================================================
   * Total *   -0.00000      9.99627    28.86180    0.14194    39.00000

 Normal termination of Gaussian 16 at Tue Dec  8 13:57:13 2020.
