 Gaussian 16, Revision A.03,

 -----------------------------------------------------------
 # opt freq B3LYP/6-31G(d) empiricaldispersion=gd3bj scf=xqc
 -----------------------------------------------------------

 -------------------------------
 CID_131165431_JID_5404_neutraal
 -------------------------------
 Symbolic Z-matrix:
 Charge =  0 Multiplicity = 1

 SCF Done:  E(RB3LYP) =  -708.612510095     A.U. after   15 cycles
 SCF Done:  E(RB3LYP) =  -708.634703024     A.U. after   13 cycles
 SCF Done:  E(RB3LYP) =  -708.636260268     A.U. after   12 cycles
 SCF Done:  E(RB3LYP) =  -708.635522533     A.U. after   13 cycles
 SCF Done:  E(RB3LYP) =  -708.635624699     A.U. after   12 cycles
 SCF Done:  E(RB3LYP) =  -708.636549751     A.U. after    9 cycles
 SCF Done:  E(RB3LYP) =  -708.636836908     A.U. after   12 cycles
 SCF Done:  E(RB3LYP) =  -708.636925936     A.U. after   11 cycles
 SCF Done:  E(RB3LYP) =  -708.636977359     A.U. after   11 cycles
 SCF Done:  E(RB3LYP) =  -708.637065737     A.U. after   11 cycles
 SCF Done:  E(RB3LYP) =  -708.637305327     A.U. after   11 cycles
 SCF Done:  E(RB3LYP) =  -708.637315561     A.U. after   10 cycles
 SCF Done:  E(RB3LYP) =  -708.637317030     A.U. after   10 cycles
 SCF Done:  E(RB3LYP) =  -708.637318808     A.U. after   10 cycles
 SCF Done:  E(RB3LYP) =  -708.637319134     A.U. after    8 cycles
 SCF Done:  E(RB3LYP) =  -708.637319036     A.U. after    8 cycles
 Optimization completed.
    -- Stationary point found.
 Normal termination of Gaussian 16 at Thu Dec 10 16:08:56 2020.

 --------------------------------------------------------------------
 #N Geom=AllCheck Guess=TCheck SCRF=Check GenChk RB3LYP/6-31G(d) Freq
 --------------------------------------------------------------------

 Structure from the checkpoint file:  "JID_5404.chk"
 -------------------------------
 CID_131165431_JID_5404_neutraal
 -------------------------------
 Charge =  0 Multiplicity = 1

 SCF Done:  E(RB3LYP) =  -708.637319036     A.U. after    1 cycles

  Exact polarizability: 133.212  -2.127 120.357  -1.585   6.339 108.273
 Approx polarizability: 164.055  -0.851 189.890  -8.437  10.774 172.996

                      1                      2                      3
                      A                      A                      A
 Frequencies --     16.4684                24.3770                60.8927
 Red. masses --     10.2594                 5.3782                 4.2274
 Frc consts  --      0.0016                 0.0019                 0.0092
 IR Inten    --      1.1356                 0.9832                 0.7482

                      4                      5                      6
                      A                      A                      A
 Frequencies --     86.7391                96.9588               121.6581
 Red. masses --      2.4097                 3.1781                 3.9997
 Frc consts  --      0.0107                 0.0176                 0.0349
 IR Inten    --      0.7249                 2.9687                 1.1557

                      7                      8                      9
                      A                      A                      A
 Frequencies --    131.7232               158.6523               187.2019
 Red. masses --      3.6593                 2.8397                 1.7086
 Frc consts  --      0.0374                 0.0421                 0.0353
 IR Inten    --      0.5381                 1.0314                 0.6666

                     10                     11                     12
                      A                      A                      A
 Frequencies --    227.4513               263.4585               286.5837
 Red. masses --      2.4995                 2.8018                 3.0254
 Frc consts  --      0.0762                 0.1146                 0.1464
 IR Inten    --      1.1044                 0.4786                 4.6685

                     13                     14                     15
                      A                      A                      A
 Frequencies --    300.7688               309.0510               339.2177
 Red. masses --      3.6099                 1.5845                 2.7863
 Frc consts  --      0.1924                 0.0892                 0.1889
 IR Inten    --      1.8092                 1.2548                 8.2822

                     16                     17                     18
                      A                      A                      A
 Frequencies --    360.5828               415.0538               457.5600
 Red. masses --      2.5249                 2.6021                 3.8871
 Frc consts  --      0.1934                 0.2641                 0.4795
 IR Inten    --      0.1258                 2.5436                 3.2532

                     19                     20                     21
                      A                      A                      A
 Frequencies --    479.0939               522.8914               537.9437
 Red. masses --      5.2055                 3.7506                 4.5749
 Frc consts  --      0.7040                 0.6042                 0.7800
 IR Inten    --      1.5976                21.6999                 2.9365

                     22                     23                     24
                      A                      A                      A
 Frequencies --    583.8500               596.1183               609.9565
 Red. masses --      3.0948                 3.4868                 1.2134
 Frc consts  --      0.6216                 0.7300                 0.2660
 IR Inten    --     27.9718                 0.6575                39.4822

                     25                     26                     27
                      A                      A                      A
 Frequencies --    631.1899               638.7960               642.8231
 Red. masses --      2.4541                 1.4856                 1.3823
 Frc consts  --      0.5761                 0.3572                 0.3365
 IR Inten    --     35.4415                14.0680                66.7955

                     28                     29                     30
                      A                      A                      A
 Frequencies --    657.0200               740.1563               771.8159
 Red. masses --      3.9766                 4.7092                 3.9468
 Frc consts  --      1.0114                 1.5200                 1.3852
 IR Inten    --     58.0058                 2.9362                40.8298

                     31                     32                     33
                      A                      A                      A
 Frequencies --    791.2581               842.1239               880.7578
 Red. masses --      1.3828                 2.0151                 3.1508
 Frc consts  --      0.5101                 0.8420                 1.4401
 IR Inten    --      4.9471                12.6342                 8.3125

                     34                     35                     36
                      A                      A                      A
 Frequencies --    921.0779               949.7957               985.6709
 Red. masses --      2.0282                 1.6393                 2.6492
 Frc consts  --      1.0138                 0.8713                 1.5165
 IR Inten    --      2.5459                 2.5545                 0.4668

                     37                     38                     39
                      A                      A                      A
 Frequencies --   1011.0866              1027.5463              1044.0092
 Red. masses --      2.5091                 1.8076                 2.3975
 Frc consts  --      1.5113                 1.1245                 1.5396
 IR Inten    --      3.8003                 2.2330                 3.0147

                     40                     41                     42
                      A                      A                      A
 Frequencies --   1079.0767              1082.0078              1112.1981
 Red. masses --      1.8668                 1.9365                 3.3958
 Frc consts  --      1.2807                 1.3358                 2.4749
 IR Inten    --      4.2418                 0.2395                70.3521

                     43                     44                     45
                      A                      A                      A
 Frequencies --   1153.6499              1176.2643              1191.1252
 Red. masses --      3.1834                 1.9995                 1.4199
 Frc consts  --      2.4962                 1.6300                 1.1869
 IR Inten    --     31.8045               163.4786                76.8984

                     46                     47                     48
                      A                      A                      A
 Frequencies --   1203.5667              1214.5899              1253.0945
 Red. masses --      2.5245                 2.2813                 3.3795
 Frc consts  --      2.1546                 1.9829                 3.1266
 IR Inten    --     39.0712                12.7625               108.8408

                     49                     50                     51
                      A                      A                      A
 Frequencies --   1255.4155              1279.2902              1286.4872
 Red. masses --      1.2286                 2.3743                 1.4372
 Frc consts  --      1.1409                 2.2894                 1.4014
 IR Inten    --     56.4087                82.2268                 8.4316

                     52                     53                     54
                      A                      A                      A
 Frequencies --   1330.5919              1344.7585              1347.4846
 Red. masses --      1.5833                 1.3001                 1.3606
 Frc consts  --      1.6516                 1.3852                 1.4556
 IR Inten    --     23.8442                20.4712                29.5419

                     55                     56                     57
                      A                      A                      A
 Frequencies --   1396.9711              1424.6025              1436.3523
 Red. masses --      1.3500                 2.3335                 1.3424
 Frc consts  --      1.5522                 2.7903                 1.6317
 IR Inten    --      0.8973                28.0363                14.8753

                     58                     59                     60
                      A                      A                      A
 Frequencies --   1441.7842              1443.4087              1496.7610
 Red. masses --      1.2309                 1.8683                 1.0991
 Frc consts  --      1.5075                 2.2934                 1.4508
 IR Inten    --      3.6661                71.8185                11.2354

                     61                     62                     63
                      A                      A                      A
 Frequencies --   1511.8111              1522.0448              1530.8853
 Red. masses --      1.0739                 1.0474                 1.0454
 Frc consts  --      1.4462                 1.4297                 1.4435
 IR Inten    --     12.0375                 3.5769                 7.8046

                     64                     65                     66
                      A                      A                      A
 Frequencies --   1533.5399              1541.1479              1561.3854
 Red. masses --      1.0620                 1.0488                 1.0860
 Frc consts  --      1.4715                 1.4677                 1.5600
 IR Inten    --      9.2021                 4.1034                 3.3584

                     67                     68                     69
                      A                      A                      A
 Frequencies --   1814.2679              1844.6137              2235.6108
 Red. masses --     11.7504                 9.7735                 5.9457
 Frc consts  --     22.7881                19.5935                17.5082
 IR Inten    --    291.1356               244.2528                 0.1408

                     70                     71                     72
                      A                      A                      A
 Frequencies --   3056.3620              3059.4128              3065.2824
 Red. masses --      1.0664                 1.0372                 1.0696
 Frc consts  --      5.8691                 5.7201                 5.9211
 IR Inten    --     12.7521                24.0794                 5.2454

                     73                     74                     75
                      A                      A                      A
 Frequencies --   3065.7164              3075.4177              3092.9776
 Red. masses --      1.0701                 1.0372                 1.0832
 Frc consts  --      5.9259                 5.7799                 6.1056
 IR Inten    --     24.3222                15.3060                 6.6423

                     76                     77                     78
                      A                      A                      A
 Frequencies --   3117.4609              3133.2600              3139.2400
 Red. masses --      1.1012                 1.0991                 1.1000
 Frc consts  --      6.3055                 6.3573                 6.3868
 IR Inten    --     28.5867                22.4167                32.6085

                     79                     80                     81
                      A                      A                      A
 Frequencies --   3151.6177              3152.7263              3154.3236
 Red. masses --      1.1030                 1.0963                 1.1029
 Frc consts  --      6.4548                 6.4203                 6.4655
 IR Inten    --     20.8762                 7.2508                20.2224

                     82                     83                     84
                      A                      A                      A
 Frequencies --   3174.4530              3496.2218              3683.1205
 Red. masses --      1.0930                 1.1605                 1.0639
 Frc consts  --      6.4895                 8.3581                 8.5035
 IR Inten    --      4.5482                57.1517                56.5039

 - Thermochemistry -
 -------------------
 Temperature   298.150 Kelvin.  Pressure   1.00000 Atm.
 Atom     1 has atomic number  6 and mass  12.00000

 Molecular mass:   209.10519 amu.
 Principal axes and moments of inertia in atomic units:
                           1         2         3
     Eigenvalues --  1782.937724852.241515199.86253
           X            0.99984   0.00036   0.01783
           Y           -0.00101   0.99933   0.03646
           Z           -0.01781  -0.03648   0.99918
 This molecule is an asymmetric top.
 Rotational symmetry number  1.
 Warning -- assumption of classical behavior for rotation
           may cause significant error
 Rotational temperatures (Kelvin)      0.04858     0.01785     0.01666
 Rotational constants (GHZ):           1.01223     0.37194     0.34707
 Zero-point vibrational energy     654188.4 (Joules/Mol)
                                  156.35478 (Kcal/Mol)
 Warning -- explicit consideration of  24 degrees of freedom as
           vibrations may cause significant error
 Vibrational temperatures:     23.69    35.07    87.61   124.80   139.50
          (Kelvin)            175.04   189.52   228.27   269.34   327.25
                              379.06   412.33   432.74   444.66   488.06
                              518.80   597.17   658.33   689.31   752.32
                              773.98   840.03   857.68   877.59   908.14
                              919.09   924.88   945.31  1064.92  1110.47
                             1138.44  1211.63  1267.21  1325.23  1366.54
                             1418.16  1454.73  1478.41  1502.10  1552.55
                             1556.77  1600.21  1659.84  1692.38  1713.76
                             1731.66  1747.52  1802.92  1806.26  1840.61
                             1850.97  1914.42  1934.81  1938.73  2009.93
                             2049.69  2066.59  2074.41  2076.74  2153.51
                             2175.16  2189.88  2202.60  2206.42  2217.37
                             2246.49  2610.33  2653.99  3216.55  4397.42
                             4401.81  4410.26  4410.88  4424.84  4450.10
                             4485.33  4508.06  4516.67  4534.47  4536.07
                             4538.37  4567.33  5030.28  5299.19

 Zero-point correction=                           0.249167 (Hartree/Particle)
 Thermal correction to Energy=                    0.264835
 Thermal correction to Enthalpy=                  0.265779
 Thermal correction to Gibbs Free Energy=         0.204559
 Sum of electronic and zero-point Energies=           -708.388152
 Sum of electronic and thermal Energies=              -708.372484
 Sum of electronic and thermal Enthalpies=            -708.371540
 Sum of electronic and thermal Free Energies=         -708.432760

                     E (Thermal)             CV                S
                      KCal/Mol        Cal/Mol-Kelvin    Cal/Mol-Kelvin
 Total                  166.187             58.027            128.850
 Electronic               0.000              0.000              0.000
 Translational            0.889              2.981             41.917
 Rotational               0.889              2.981             32.176
 Vibrational            164.409             52.066             54.757
 Vibration     1          0.593              1.986              7.020
 Vibration     2          0.593              1.985              6.241
 Vibration     3          0.597              1.973              4.428
 Vibration     4          0.601              1.958              3.732
 Vibration     5          0.603              1.951              3.515
 Vibration     6          0.609              1.931              3.074
 Vibration     7          0.612              1.922              2.921
 Vibration     8          0.621              1.893              2.566
 Vibration     9          0.632              1.857              2.255
 Vibration    10          0.651              1.799              1.899
 Vibration    11          0.670              1.740              1.639
 Vibration    12          0.684              1.699              1.494
 Vibration    13          0.693              1.672              1.413
 Vibration    14          0.698              1.656              1.367
 Vibration    15          0.719              1.597              1.216
 Vibration    16          0.735              1.553              1.120
 Vibration    17          0.778              1.438              0.909
 Vibration    18          0.816              1.344              0.773
 Vibration    19          0.836              1.296              0.713
 Vibration    20          0.878              1.199              0.603
 Vibration    21          0.893              1.166              0.570
 Vibration    22          0.941              1.066              0.478
 Vibration    23          0.954              1.040              0.456
 Vibration    24          0.969              1.011              0.433

                           ! Non-Optimized Parameters !
 Normal termination of Gaussian 16 at Thu Dec 10 16:18:26 2020.

 ----------------------------------------------------------------------
 # B3LYP/6-311++G(d,p) empiricaldispersion=gd3bj scf=xqc pop=npa geom=c
 heck
 ----------------------------------------------------------------------

 ---------------------------------------
 CID_131165431_JID_5404_Energie_neutraal
 ---------------------------------------
 Structure from the checkpoint file:  "JID_5404.chk"
 Charge =  0 Multiplicity = 1

 SCF Done:  E(RB3LYP) =  -708.851745063     A.U. after   16 cycles
 Normal termination of Gaussian 16 at Thu Dec 10 16:22:13 2020.

 ----------------------------------------------------------------------
 # B3LYP/6-311++G(d,p) empiricaldispersion=gd3bj scf=xqc pop=npa geom=c
 heck
 ----------------------------------------------------------------------

 -------------------------------------
 CID_131165431_JID_5404_Energie_kation
 -------------------------------------
 Structure from the checkpoint file:  "JID_5404.chk"
 Charge =  1 Multiplicity = 2

 SCF Done:  E(UB3LYP) =  -708.528056248     A.U. after   31 cycles
 Normal termination of Gaussian 16 at Thu Dec 10 16:32:02 2020.
 Gaussian 16:  ES64L-G16RevA.03 25-Dec-2016

 ----------------------------------------------------------------------
 # B3LYP/6-311++G(d,p) empiricaldispersion=gd3bj scf=xqc pop=npa geom=c
 heck
 ----------------------------------------------------------------------

 ------------------------------------
 CID_131165431_JID_5404_Energie_anion
 ------------------------------------
 Structure from the checkpoint file:  "JID_5404.chk"
 Charge = -1 Multiplicity = 2

                         Standard orientation:
 ---------------------------------------------------------------------
 Center     Atomic      Atomic             Coordinates (Angstroms)
 Number     Number       Type             X           Y           Z
 ---------------------------------------------------------------------
      1          6           0       -2.794161   -1.803740   -1.084715
      2          6           0       -2.935610   -0.607672   -0.143320
      3          6           0       -1.814483    0.460568   -0.286889
      4          6           0       -1.931730    1.150153   -1.662256
      5          6           0       -1.974916    1.483233    0.765071
      6          6           0       -2.086467    2.334897    1.612820
      7          7           0       -0.467067   -0.151300   -0.154732
      8          6           0        0.707410    0.504113   -0.738610
      9          6           0        1.860179   -0.437944   -0.364471
     10          6           0        1.401572   -1.029489    0.981576
     11          6           0       -0.122810   -0.943984    0.923733
     12          8           0       -0.880859   -1.474506    1.716501
     13          6           0        3.192731    0.263720   -0.268741
     14          8           0        3.361823    1.454388   -0.123085
     15          8           0        4.217211   -0.620892   -0.324668
     16          1           0       -2.806703   -1.512053   -2.140512
     17          1           0       -3.625645   -2.498392   -0.925659
     18          1           0       -1.865289   -2.347145   -0.890462
     19          1           0       -3.881995   -0.086057   -0.329180
     20          1           0       -2.947525   -0.955749    0.888293
     21          1           0       -2.950549    1.528150   -1.779038
     22          1           0       -1.249069    1.998376   -1.750053
     23          1           0       -1.726856    0.441802   -2.469845
     24          1           0       -2.190822    3.073667    2.374442
     25          1           0        0.868921    1.500900   -0.308842
     26          1           0        0.607056    0.605330   -1.820558
     27          1           0        1.940683   -1.246148   -1.097743
     28          1           0        1.728780   -0.408704    1.825343
     29          1           0        1.738554   -2.051039    1.164400
     30          1           0        5.034243   -0.098891   -0.212632
 ---------------------------------------------------------------------

 SCF Done:  E(UB3LYP) =  -708.841850279     A.U. after   32 cycles

 The electronic state is 2-A.
 Alpha  occ. eigenvalues --  -19.07417 -19.02444 -19.00313 -14.25606 -10.21509
 Alpha  occ. eigenvalues --  -10.18360 -10.16097 -10.11825 -10.10715 -10.09685
 Alpha  occ. eigenvalues --  -10.09239 -10.08360 -10.08155 -10.07950 -10.06613
 Alpha  occ. eigenvalues --   -1.01661  -0.95445  -0.92880  -0.86674  -0.75613
 Alpha  occ. eigenvalues --   -0.69843  -0.66634  -0.64509  -0.62826  -0.59222
 Alpha  occ. eigenvalues --   -0.55834  -0.52079  -0.49227  -0.47892  -0.43788
 Alpha  occ. eigenvalues --   -0.43094  -0.41420  -0.39981  -0.38989  -0.37921
 Alpha  occ. eigenvalues --   -0.35891  -0.35486  -0.35200  -0.33810  -0.32597
 Alpha  occ. eigenvalues --   -0.32129  -0.30532  -0.30464  -0.30234  -0.29514
 Alpha  occ. eigenvalues --   -0.27881  -0.26996  -0.26049  -0.25288  -0.24933
 Alpha  occ. eigenvalues --   -0.23372  -0.20360  -0.19616  -0.19314  -0.17048
 Alpha  occ. eigenvalues --   -0.15828   0.04149
 Alpha virt. eigenvalues --    0.05927   0.06849   0.07696   0.07833   0.08563
 Alpha virt. eigenvalues --    0.08849   0.09354   0.09740   0.09909   0.10208
 Alpha virt. eigenvalues --    0.10741   0.11653   0.12128   0.12488   0.13093

  Beta  occ. eigenvalues --  -19.07352 -19.02425 -19.00311 -14.25604 -10.21501
  Beta  occ. eigenvalues --  -10.18358 -10.16093 -10.11806 -10.10686 -10.09668
  Beta  occ. eigenvalues --  -10.09241 -10.08352 -10.08120 -10.07944 -10.06587
  Beta  occ. eigenvalues --   -1.01579  -0.95440  -0.92808  -0.86663  -0.75590
  Beta  occ. eigenvalues --   -0.69806  -0.66619  -0.64473  -0.62788  -0.59150
  Beta  occ. eigenvalues --   -0.55764  -0.52040  -0.49137  -0.47852  -0.43755
  Beta  occ. eigenvalues --   -0.43067  -0.41386  -0.39945  -0.38957  -0.37883
  Beta  occ. eigenvalues --   -0.35854  -0.35443  -0.35171  -0.33785  -0.32554
  Beta  occ. eigenvalues --   -0.32104  -0.30500  -0.30430  -0.30182  -0.29477
  Beta  occ. eigenvalues --   -0.27847  -0.26951  -0.26023  -0.25258  -0.24912
  Beta  occ. eigenvalues --   -0.23313  -0.20353  -0.19574  -0.19294  -0.17040
  Beta  occ. eigenvalues --   -0.15818
  Beta virt. eigenvalues --    0.06314   0.07138   0.07474   0.08136   0.08471
  Beta virt. eigenvalues --    0.08729   0.09014   0.09636   0.10032   0.10127
  Beta virt. eigenvalues --    0.10438   0.10984   0.11943   0.12369   0.12610

 Mulliken charges and spin densities:
               1          2
     1  C    0.768042  -1.253065
     2  C   -1.085583   0.821464
     3  C   -1.197969   1.072633
     4  C    1.182480  -1.726903
     5  C    0.833800  -0.583694
     6  C   -0.864256   0.439592
     7  N    0.467867   0.012405
     8  C    0.569162  -1.427238
     9  C    0.241754   0.345678
    10  C    0.589224  -1.207517
    11  C   -0.762595   0.732617
    12  O   -0.298041   0.007385
    13  C    0.456925  -0.660274
    14  O   -0.268871  -0.007976
    15  O   -0.205672   0.070591
    16  H   -0.213723   0.346218
    17  H    0.014114   0.126558
    18  H   -0.042120   0.208798
    19  H   -0.061327   0.207355
    20  H    0.157437   0.061725
    21  H   -0.062650   0.241188
    22  H   -0.029749   0.191680
    23  H   -0.309212   0.487997
    24  H   -0.001127   0.168999
    25  H    0.252357   0.007403
    26  H   -0.235828   0.407448
    27  H   -0.436258   0.721402
    28  H    0.060936   0.158388
    29  H    0.097742   0.109579
    30  H   -0.616861   0.919560
 Sum of Mulliken charges =  -1.00000   1.00000

 Dipole moment (field-independent basis, Debye):
    X=             -5.2943    Y=              1.7738    Z=              3.5346  Tot=              6.6082
 Quadrupole moment (field-independent basis, Debye-Ang):
   XX=           -176.6488   YY=           -124.2828   ZZ=           -129.7840
   XY=             -2.0368   XZ=             -0.2939   YZ=              2.4623

 Summary of Natural Population Analysis:

                                       Natural Population
                Natural  -----------------------------------------------
    Atom  No    Charge         Core      Valence    Rydberg      Total
 -----------------------------------------------------------------------
      C    1   -0.28765      0.99966     2.28240    0.00559     3.28765
      C    2   -0.18831      0.99960     2.17852    0.01020     3.18831
      C    3    0.03406      0.99950     1.95103    0.01541     2.96594
      C    4   -0.28317      0.99964     2.27601    0.00752     3.28317
      C    5    0.00546      0.99935     1.98564    0.00955     2.99454
      C    6   -0.11644      0.99927     2.11309    0.00408     3.11644
      N    7   -0.26108      0.99962     2.74849    0.01296     3.76108
      C    8   -0.07837      0.99960     2.06729    0.01147     3.07837
      C    9   -0.15996      0.99954     2.14790    0.01252     3.15996
      C   10   -0.21986      0.99958     2.21164    0.00864     3.21986
      C   11    0.35446      0.99964     1.62160    0.02430     2.64554
      O   12   -0.31477      0.99987     3.30969    0.00521     4.31477
      C   13    0.41182      0.99968     1.56289    0.02562     2.58818
      O   14   -0.30598      0.99987     3.29993    0.00618     4.30598
      O   15   -0.34054      0.99988     3.33403    0.00663     4.34054
      H   16    0.09774      0.00000     0.40102    0.00124     0.40226
      H   17    0.09961      0.00000     0.39971    0.00068     0.40039
      H   18    0.10370      0.00000     0.39508    0.00121     0.39630
      H   19    0.09658      0.00000     0.40231    0.00110     0.40342
      H   20    0.11751      0.00000     0.38130    0.00119     0.38249
      H   21    0.10642      0.00000     0.39236    0.00122     0.39358
      H   22    0.10573      0.00000     0.39315    0.00113     0.39427
      H   23    0.10929      0.00000     0.38899    0.00171     0.39071
      H   24    0.11065      0.00000     0.38827    0.00107     0.38935
      H   25    0.10263      0.00000     0.39580    0.00158     0.39737
      H   26    0.10538      0.00000     0.39293    0.00169     0.39462
      H   27    0.11907      0.00000     0.37836    0.00257     0.38093
      H   28    0.11295      0.00000     0.38596    0.00108     0.38705
      H   29    0.11688      0.00000     0.38218    0.00093     0.38312
      H   30    0.24617      0.00000     0.22457    0.02926     0.25383
 =======================================================================
   * Total *   -0.00000     14.99430    40.79216    0.21355    56.00000

 Normal termination of Gaussian 16 at Thu Dec 10 16:41:50 2020.
