 Gaussian 16, Revision A.03,

 -----------------------------------------------------------
 # opt freq B3LYP/6-31G(d) empiricaldispersion=gd3bj scf=xqc
 -----------------------------------------------------------

 -------------------------------
 CID_103033105_JID_6986_neutraal
 -------------------------------
 Symbolic Z-matrix:
 Charge =  0 Multiplicity = 1

 SCF Done:  E(RB3LYP) =  -677.380258400     A.U. after   13 cycles
 SCF Done:  E(RB3LYP) =  -677.382487466     A.U. after   12 cycles
 SCF Done:  E(RB3LYP) =  -677.383141895     A.U. after   12 cycles
 SCF Done:  E(RB3LYP) =  -677.384275625     A.U. after   11 cycles
 SCF Done:  E(RB3LYP) =  -677.385056485     A.U. after   12 cycles
 SCF Done:  E(RB3LYP) =  -677.385583139     A.U. after   12 cycles
 SCF Done:  E(RB3LYP) =  -677.385823736     A.U. after   11 cycles
 SCF Done:  E(RB3LYP) =  -677.386100745     A.U. after   11 cycles
 SCF Done:  E(RB3LYP) =  -677.386198776     A.U. after   11 cycles
 SCF Done:  E(RB3LYP) =  -677.386233494     A.U. after   10 cycles
 SCF Done:  E(RB3LYP) =  -677.387167486     A.U. after   10 cycles
 SCF Done:  E(RB3LYP) =  -677.387172280     A.U. after   10 cycles
 SCF Done:  E(RB3LYP) =  -677.387173485     A.U. after    8 cycles
 SCF Done:  E(RB3LYP) =  -677.387173542     A.U. after    7 cycles
 SCF Done:  E(RB3LYP) =  -677.387173585     A.U. after    7 cycles
 SCF Done:  E(RB3LYP) =  -677.387173610     A.U. after    6 cycles
 Optimization completed.
    -- Stationary point found.
 Normal termination of Gaussian 16 at Fri Dec 11 01:35:24 2020.

 --------------------------------------------------------------------
 #N Geom=AllCheck Guess=TCheck SCRF=Check GenChk RB3LYP/6-31G(d) Freq
 --------------------------------------------------------------------

 Structure from the checkpoint file:  "JID_6986.chk"
 -------------------------------
 CID_103033105_JID_6986_neutraal
 -------------------------------
 Charge =  0 Multiplicity = 1

 SCF Done:  E(RB3LYP) =  -677.387173610     A.U. after    1 cycles

  Exact polarizability: 203.624  -0.643 163.876 -11.583   8.577 108.462
 Approx polarizability: 267.624  -0.682 251.418 -22.046  16.873 160.612

                      1                      2                      3
                      A                      A                      A
 Frequencies --     23.0921                30.5332                35.1089
 Red. masses --      3.2985                 3.0655                 3.0232
 Frc consts  --      0.0010                 0.0017                 0.0022
 IR Inten    --      0.4688                 0.1077                 0.0849

                      4                      5                      6
                      A                      A                      A
 Frequencies --     56.9272                90.3683               112.6255
 Red. masses --      3.1439                 2.2711                 2.6881
 Frc consts  --      0.0060                 0.0109                 0.0201
 IR Inten    --      0.1145                 0.8898                 3.3099

                      7                      8                      9
                      A                      A                      A
 Frequencies --    134.2200               148.5121               199.9449
 Red. masses --      3.2669                 2.7789                 1.3104
 Frc consts  --      0.0347                 0.0361                 0.0309
 IR Inten    --      1.8686                 1.2980                 3.6993

                     10                     11                     12
                      A                      A                      A
 Frequencies --    214.8965               230.9368               247.6915
 Red. masses --      2.0973                 1.3146                 2.0052
 Frc consts  --      0.0571                 0.0413                 0.0725
 IR Inten    --      0.3019                 0.0733                 0.1030

                     13                     14                     15
                      A                      A                      A
 Frequencies --    250.3653               286.7945               302.7633
 Red. masses --      1.8919                 1.7162                 1.8430
 Frc consts  --      0.0699                 0.0832                 0.0995
 IR Inten    --      5.8299                 0.1692                 0.7740

                     16                     17                     18
                      A                      A                      A
 Frequencies --    316.1317               320.4065               346.4319
 Red. masses --      2.1048                 1.9623                 2.2581
 Frc consts  --      0.1239                 0.1187                 0.1597
 IR Inten    --      0.7543                 2.0149                 1.5489

                     19                     20                     21
                      A                      A                      A
 Frequencies --    374.0263               396.0266               431.3491
 Red. masses --      2.5742                 2.4609                 2.5057
 Frc consts  --      0.2122                 0.2274                 0.2747
 IR Inten    --      3.6808                 0.9040                 7.1565

                     22                     23                     24
                      A                      A                      A
 Frequencies --    452.1001               468.3381               484.5669
 Red. masses --      2.9681                 3.2001                 2.8636
 Frc consts  --      0.3574                 0.4136                 0.3962
 IR Inten    --      4.5700                 2.7937                 1.4977

                     25                     26                     27
                      A                      A                      A
 Frequencies --    530.1314               539.5533               596.8254
 Red. masses --      3.7349                 3.2070                 1.6350
 Frc consts  --      0.6184                 0.5501                 0.3431
 IR Inten    --      4.1649                13.7450                40.9036

                     28                     29                     30
                      A                      A                      A
 Frequencies --    637.7456               658.4882               714.5932
 Red. masses --      3.7687                 2.3841                 2.1411
 Frc consts  --      0.9031                 0.6091                 0.6442
 IR Inten    --      7.0948                30.1450                11.7693

                     31                     32                     33
                      A                      A                      A
 Frequencies --    719.8100               753.4991               786.6980
 Red. masses --      3.1949                 3.2668                 1.4567
 Frc consts  --      0.9753                 1.0928                 0.5312
 IR Inten    --      5.5280                 7.2134                30.8845

                     34                     35                     36
                      A                      A                      A
 Frequencies --    802.5338               833.1055               859.5384
 Red. masses --      1.2015                 2.4749                 1.6173
 Frc consts  --      0.4559                 1.0121                 0.7040
 IR Inten    --      3.9198                10.3077                15.6961

                     37                     38                     39
                      A                      A                      A
 Frequencies --    862.3206               875.4203               937.4662
 Red. masses --      1.3740                 2.0103                 1.5202
 Frc consts  --      0.6020                 0.9077                 0.7872
 IR Inten    --      1.1547                 3.9693                 0.6832

                     40                     41                     42
                      A                      A                      A
 Frequencies --    941.4162               953.6514               968.6033
 Red. masses --      2.3343                 1.2471                 1.8672
 Frc consts  --      1.2189                 0.6682                 1.0321
 IR Inten    --      9.1017                 0.4622                 3.5583

                     43                     44                     45
                      A                      A                      A
 Frequencies --   1006.6613              1015.0881              1021.3960
 Red. masses --      2.6553                 1.9911                 2.0856
 Frc consts  --      1.5854                 1.2088                 1.2820
 IR Inten    --      1.0873                 2.2391                 8.8808

                     46                     47                     48
                      A                      A                      A
 Frequencies --   1023.3214              1077.8681              1089.8605
 Red. masses --      1.7713                 1.7199                 1.7660
 Frc consts  --      1.0929                 1.1773                 1.2359
 IR Inten    --      1.9897                 4.3808                12.9988

                     49                     50                     51
                      A                      A                      A
 Frequencies --   1097.3898              1116.9623              1126.7330
 Red. masses --      1.6906                 5.3466                 1.8402
 Frc consts  --      1.1995                 3.9301                 1.3764
 IR Inten    --      2.7296                89.4841                 9.4509

                     52                     53                     54
                      A                      A                      A
 Frequencies --   1147.9587              1188.7440              1197.0204
 Red. masses --      2.2025                 1.3481                 1.8467
 Frc consts  --      1.7101                 1.1224                 1.5590
 IR Inten    --      5.0167                 3.6308                22.8982

                     55                     56                     57
                      A                      A                      A
 Frequencies --   1202.7882              1210.0413              1220.3178
 Red. masses --      1.1253                 1.9067                 1.6495
 Frc consts  --      0.9592                 1.6448                 1.4473
 IR Inten    --     10.0560                20.6495                10.2191

                     58                     59                     60
                      A                      A                      A
 Frequencies --   1227.6000              1269.7389              1287.1671
 Red. masses --      1.9378                 1.4939                 1.3584
 Frc consts  --      1.7205                 1.4190                 1.3260
 IR Inten    --     61.9370                10.6897                 0.1437

                     61                     62                     63
                      A                      A                      A
 Frequencies --   1298.6394              1309.9058              1343.3520
 Red. masses --      1.7852                 1.7670                 1.8625
 Frc consts  --      1.7739                 1.7864                 1.9803
 IR Inten    --     10.0611                31.9322                26.2762

                     64                     65                     66
                      A                      A                      A
 Frequencies --   1353.5597              1370.8875              1389.8682
 Red. masses --      1.3417                 1.5654                 3.5589
 Frc consts  --      1.4483                 1.7333                 4.0506
 IR Inten    --     11.8675                 8.1751                49.1366

                     67                     68                     69
                      A                      A                      A
 Frequencies --   1407.0953              1419.0338              1426.4876
 Red. masses --      1.5224                 1.4433                 1.2876
 Frc consts  --      1.7759                 1.7124                 1.5437
 IR Inten    --      1.4801                 2.8317                 9.2391

                     70                     71                     72
                      A                      A                      A
 Frequencies --   1433.1789              1444.1077              1491.5030
 Red. masses --      1.2270                 1.2423                 2.2082
 Frc consts  --      1.4849                 1.5265                 2.8943
 IR Inten    --      1.0642                17.2785                82.6977

                     73                     74                     75
                      A                      A                      A
 Frequencies --   1496.6612              1499.2152              1513.6981
 Red. masses --      1.1293                 1.2443                 1.0576
 Frc consts  --      1.4904                 1.6478                 1.4277
 IR Inten    --      1.5551                 5.3094                 6.1066

                     76                     77                     78
                      A                      A                      A
 Frequencies --   1515.8647              1518.7026              1524.4574
 Red. masses --      1.0514                 1.0699                 1.0670
 Frc consts  --      1.4234                 1.4540                 1.4610
 IR Inten    --      0.7174                 3.2984                 2.2010

                     79                     80                     81
                      A                      A                      A
 Frequencies --   1525.1014              1534.1775              1538.4977
 Red. masses --      1.0423                 1.2916                 1.4005
 Frc consts  --      1.4284                 1.7912                 1.9531
 IR Inten    --      6.2438                16.6291                12.4659

                     82                     83                     84
                      A                      A                      A
 Frequencies --   1539.4333              1543.1111              1544.0392
 Red. masses --      1.0913                 1.0811                 1.0682
 Frc consts  --      1.5238                 1.5167                 1.5005
 IR Inten    --      0.3434                 1.0719                22.5356

                     85                     86                     87
                      A                      A                      A
 Frequencies --   1566.7690              1581.5444              1649.5636
 Red. masses --      1.1048                 1.7382                 4.6222
 Frc consts  --      1.5979                 2.5616                 7.4104
 IR Inten    --     10.7692               193.6633                60.2383

                     88                     89                     90
                      A                      A                      A
 Frequencies --   1672.1265              2977.2740              3022.7836
 Red. masses --      5.4813                 1.0714                 1.0880
 Frc consts  --      9.0296                 5.5957                 5.8575
 IR Inten    --    171.9637                44.8859                47.6876

                     91                     92                     93
                      A                      A                      A
 Frequencies --   3025.8890              3042.6192              3046.0575
 Red. masses --      1.0344                 1.0601                 1.0346
 Frc consts  --      5.5800                 5.7822                 5.6558
 IR Inten    --     39.1617                36.7127                36.6097

                     94                     95                     96
                      A                      A                      A
 Frequencies --   3055.9857              3059.3747              3065.3495
 Red. masses --      1.0402                 1.0498                 1.0438
 Frc consts  --      5.7234                 5.7890                 5.7789
 IR Inten    --      4.8388                32.7537                19.1723

                     97                     98                     99
                      A                      A                      A
 Frequencies --   3077.5660              3081.2373              3101.9869
 Red. masses --      1.1033                 1.1033                 1.1039
 Frc consts  --      6.1571                 6.1716                 6.2584
 IR Inten    --     11.8082                66.1399                16.4659

                    100                    101                    102
                      A                      A                      A
 Frequencies --   3114.7633              3121.8025              3123.4782
 Red. masses --      1.1025                 1.1034                 1.1020
 Frc consts  --      6.3018                 6.3357                 6.3345
 IR Inten    --     56.4218                36.0148                 1.0258

                    103                    104                    105
                      A                      A                      A
 Frequencies --   3129.1963              3133.8044              3137.4330
 Red. masses --      1.1010                 1.1030                 1.1008
 Frc consts  --      6.3517                 6.3820                 6.3841
 IR Inten    --     62.9216                13.4478                16.9336

                    106                    107                    108
                      A                      A                      A
 Frequencies --   3139.1722              3168.3533              3180.2608
 Red. masses --      1.1027                 1.0854                 1.0898
 Frc consts  --      6.4024                 6.4199                 6.4943
 IR Inten    --     34.8555                 6.6152                27.9410

                    109                    110                    111
                      A                      A                      A
 Frequencies --   3193.2511              3196.8480              3562.6906
 Red. masses --      1.0896                 1.0952                 1.0768
 Frc consts  --      6.5461                 6.5948                 8.0526
 IR Inten    --     35.0627                13.0943               225.2701

 - Thermochemistry -
 -------------------
 Temperature   298.150 Kelvin.  Pressure   1.00000 Atm.
 Atom     1 has atomic number  6 and mass  12.00000

 Molecular mass:   221.17796 amu.
 Principal axes and moments of inertia in atomic units:
                           1         2         3
     Eigenvalues --  1785.588937653.018008476.91819
           X            0.99997   0.00747  -0.00041
           Y           -0.00747   0.99993   0.00904
           Z            0.00048  -0.00903   0.99996
 This molecule is an asymmetric top.
 Rotational symmetry number  1.
 Warning -- assumption of classical behavior for rotation
           may cause significant error
 Rotational temperatures (Kelvin)      0.04851     0.01132     0.01022
 Rotational constants (GHZ):           1.01073     0.23582     0.21290
 Zero-point vibrational energy     919090.7 (Joules/Mol)
                                  219.66796 (Kcal/Mol)
 Warning -- explicit consideration of  27 degrees of freedom as
           vibrations may cause significant error
 Vibrational temperatures:     33.22    43.93    50.51    81.91   130.02
          (Kelvin)            162.04   193.11   213.68   287.68   309.19
                              332.27   356.37   360.22   412.63   435.61
                              454.84   460.99   498.44   538.14   569.79
                              620.62   650.47   673.83   697.18   762.74
                              776.30   858.70   917.57   947.42  1028.14
                             1035.65  1084.12  1131.88  1154.67  1198.65
                             1236.68  1240.69  1259.53  1348.80  1354.49
                             1372.09  1393.60  1448.36  1460.49  1469.56
                             1472.33  1550.81  1568.07  1578.90  1607.06
                             1621.12  1651.66  1710.34  1722.25  1730.54
                             1740.98  1755.77  1766.24  1826.87  1851.95
                             1868.45  1884.66  1932.78  1947.47  1972.40
                             1999.71  2024.50  2041.67  2052.40  2062.02
                             2077.75  2145.94  2153.36  2157.04  2177.87
                             2180.99  2185.07  2193.35  2194.28  2207.34
                             2213.56  2214.90  2220.19  2221.53  2254.23
                             2275.49  2373.35  2405.82  4283.63  4349.11
                             4353.58  4377.65  4382.60  4396.88  4401.76
                             4410.35  4427.93  4433.21  4463.07  4481.45
                             4491.58  4493.99  4502.22  4508.85  4514.07
                             4516.57  4558.55  4575.69  4594.38  4599.55
                             5125.92

 Zero-point correction=                           0.350063 (Hartree/Particle)
 Thermal correction to Energy=                    0.367705
 Thermal correction to Enthalpy=                  0.368649
 Thermal correction to Gibbs Free Energy=         0.303407
 Sum of electronic and zero-point Energies=           -677.037110
 Sum of electronic and thermal Energies=              -677.019469
 Sum of electronic and thermal Enthalpies=            -677.018524
 Sum of electronic and thermal Free Energies=         -677.083767

                     E (Thermal)             CV                S
                      KCal/Mol        Cal/Mol-Kelvin    Cal/Mol-Kelvin
 Total                  230.738             67.008            137.314
 Electronic               0.000              0.000              0.000
 Translational            0.889              2.981             42.084
 Rotational               0.889              2.981             33.115
 Vibrational            228.961             61.046             62.114
 Vibration     1          0.593              1.985              6.349
 Vibration     2          0.594              1.984              5.794
 Vibration     3          0.594              1.982              5.518
 Vibration     4          0.596              1.975              4.561
 Vibration     5          0.602              1.956              3.652
 Vibration     6          0.607              1.939              3.223
 Vibration     7          0.613              1.919              2.885
 Vibration     8          0.618              1.904              2.691
 Vibration     9          0.638              1.840              2.134
 Vibration    10          0.645              1.818              2.002
 Vibration    11          0.653              1.794              1.872
 Vibration    12          0.661              1.767              1.747
 Vibration    13          0.663              1.762              1.728
 Vibration    14          0.684              1.698              1.493
 Vibration    15          0.694              1.668              1.402
 Vibration    16          0.703              1.643              1.330
 Vibration    17          0.706              1.634              1.308
 Vibration    18          0.724              1.583              1.182
 Vibration    19          0.745              1.525              1.063
 Vibration    20          0.763              1.479              0.977
 Vibration    21          0.792              1.402              0.854
 Vibration    22          0.811              1.356              0.789
 Vibration    23          0.826              1.320              0.742
 Vibration    24          0.841              1.284              0.698
 Vibration    25          0.885              1.183              0.587
 Vibration    26          0.895              1.163              0.566
 Vibration    27          0.955              1.039              0.455

 Optimization completed.
    -- Stationary point found.
 Normal termination of Gaussian 16 at Fri Dec 11 01:47:59 2020.

 ----------------------------------------------------------------------
 # B3LYP/6-311++G(d,p) empiricaldispersion=gd3bj scf=xqc pop=npa geom=c
 heck
 ----------------------------------------------------------------------

 ---------------------------------------
 CID_103033105_JID_6986_Energie_neutraal
 ---------------------------------------
 Structure from the checkpoint file:  "JID_6986.chk"
 Charge =  0 Multiplicity = 1

 SCF Done:  E(RB3LYP) =  -677.575943421     A.U. after   14 cycles
 Normal termination of Gaussian 16 at Fri Dec 11 01:53:36 2020.

 ----------------------------------------------------------------------
 # B3LYP/6-311++G(d,p) empiricaldispersion=gd3bj scf=xqc pop=npa geom=c
 heck
 ----------------------------------------------------------------------

 -------------------------------------
 CID_103033105_JID_6986_Energie_kation
 -------------------------------------
 Structure from the checkpoint file:  "JID_6986.chk"
 Charge =  1 Multiplicity = 2

 SCF Done:  E(UB3LYP) =  -677.322277788     A.U. after   20 cycles
 Normal termination of Gaussian 16 at Fri Dec 11 02:04:15 2020.
 Gaussian 16:  ES64L-G16RevA.03 25-Dec-2016

 ----------------------------------------------------------------------
 # B3LYP/6-311++G(d,p) empiricaldispersion=gd3bj scf=xqc pop=npa geom=c
 heck
 ----------------------------------------------------------------------

 ------------------------------------
 CID_103033105_JID_6986_Energie_anion
 ------------------------------------
 Structure from the checkpoint file:  "JID_6986.chk"
 Charge = -1 Multiplicity = 2

                         Standard orientation:
 ---------------------------------------------------------------------
 Center     Atomic      Atomic             Coordinates (Angstroms)
 Number     Number       Type             X           Y           Z
 ---------------------------------------------------------------------
      1          6           0       -4.394353   -1.798950    1.244550
      2          6           0       -4.375153   -1.100631   -0.125017
      3          6           0       -3.307748   -0.032126   -0.205491
      4          6           0       -1.996998   -0.384018   -0.545213
      5          6           0       -0.968299    0.574000   -0.576648
      6          6           0       -1.288077    1.909411   -0.254699
      7          6           0       -2.588957    2.257205    0.082058
      8          6           0       -3.603847    1.296610    0.110368
      9          7           0        0.328268    0.250434   -0.935789
     10          6           0        0.799319   -1.120658   -0.928555
     11          6           0        2.324568   -1.188146   -1.035375
     12          6           0        3.125501   -0.531012    0.108296
     13          6           0        2.585265   -0.934053    1.485603
     14          6           0        4.604876   -0.913252   -0.031377
     15          8           0        2.973265    0.893183   -0.122740
     16          6           0        3.456315    1.774965    0.874267
     17          1           0       -3.428635   -2.273976    1.450452
     18          1           0       -5.172210   -2.570293    1.286974
     19          1           0       -4.584162   -1.075100    2.044752
     20          1           0       -4.210265   -1.849563   -0.910069
     21          1           0       -5.358317   -0.654167   -0.317906
     22          1           0       -1.780202   -1.417636   -0.797598
     23          1           0       -0.504556    2.663415   -0.281316
     24          1           0       -2.817145    3.292192    0.324579
     25          1           0       -4.619944    1.577728    0.374417
     26          1           0        1.042156    0.918154   -0.668366
     27          1           0        0.462556   -1.654675   -0.023823
     28          1           0        0.370508   -1.668075   -1.780211
     29          1           0        2.610810   -2.244935   -1.088605
     30          1           0        2.645571   -0.718518   -1.972617
     31          1           0        2.531276   -2.025087    1.561850
     32          1           0        3.235451   -0.580061    2.291801
     33          1           0        1.581990   -0.529234    1.648253
     34          1           0        4.977802   -0.629252   -1.020584
     35          1           0        5.222975   -0.419852    0.725377
     36          1           0        4.734184   -1.993623    0.092920
     37          1           0        2.887307    1.699240    1.810285
     38          1           0        4.520175    1.615157    1.093867
     39          1           0        3.334203    2.783583    0.471414
 ---------------------------------------------------------------------

 SCF Done:  E(UB3LYP) =  -677.563880574     A.U. after   31 cycles

 The electronic state is 2-A.
 Alpha  occ. eigenvalues --  -19.03451 -14.21621 -10.14089 -10.11753 -10.11630
 Alpha  occ. eigenvalues --  -10.10572 -10.08503 -10.08287 -10.08007 -10.07755
 Alpha  occ. eigenvalues --  -10.07311 -10.07100 -10.06720 -10.06718 -10.06560
 Alpha  occ. eigenvalues --  -10.06439  -0.94367  -0.83770  -0.75510  -0.71703
 Alpha  occ. eigenvalues --   -0.69270  -0.65442  -0.63510  -0.61361  -0.60390
 Alpha  occ. eigenvalues --   -0.59658  -0.54970  -0.53591  -0.49664  -0.49149
 Alpha  occ. eigenvalues --   -0.45980  -0.42496  -0.40072  -0.39919  -0.39076
 Alpha  occ. eigenvalues --   -0.37702  -0.37038  -0.35831  -0.35010  -0.34505
 Alpha  occ. eigenvalues --   -0.33482  -0.32575  -0.32025  -0.31215  -0.30844
 Alpha  occ. eigenvalues --   -0.30320  -0.29112  -0.28459  -0.28255  -0.27572
 Alpha  occ. eigenvalues --   -0.26629  -0.26252  -0.25440  -0.25139  -0.24667
 Alpha  occ. eigenvalues --   -0.23844  -0.21491  -0.19732  -0.17234  -0.15301
 Alpha  occ. eigenvalues --   -0.10389   0.04046
 Alpha virt. eigenvalues --    0.05597   0.06411   0.07292   0.07650   0.07725
 Alpha virt. eigenvalues --    0.08336   0.08560   0.09184   0.09389   0.09757
 Alpha virt. eigenvalues --    0.09837   0.10322   0.10824   0.11107   0.11741

  Beta  occ. eigenvalues --  -19.03446 -14.21619 -10.14088 -10.11712 -10.11631
  Beta  occ. eigenvalues --  -10.10560 -10.08499 -10.08278 -10.08002 -10.07738
  Beta  occ. eigenvalues --  -10.07290 -10.07092 -10.06716 -10.06705 -10.06522
  Beta  occ. eigenvalues --  -10.06401  -0.94358  -0.83762  -0.75495  -0.71680
  Beta  occ. eigenvalues --   -0.69248  -0.65419  -0.63483  -0.61329  -0.60329
  Beta  occ. eigenvalues --   -0.59586  -0.54929  -0.53552  -0.49640  -0.49124
  Beta  occ. eigenvalues --   -0.45917  -0.42474  -0.40041  -0.39896  -0.39054
  Beta  occ. eigenvalues --   -0.37668  -0.37005  -0.35807  -0.34985  -0.34478
  Beta  occ. eigenvalues --   -0.33456  -0.32543  -0.31997  -0.31188  -0.30796
  Beta  occ. eigenvalues --   -0.30295  -0.29073  -0.28431  -0.28227  -0.27536
  Beta  occ. eigenvalues --   -0.26600  -0.26233  -0.25406  -0.25121  -0.24638
  Beta  occ. eigenvalues --   -0.23828  -0.21463  -0.19717  -0.17214  -0.15258
  Beta  occ. eigenvalues --   -0.10368
  Beta virt. eigenvalues --    0.05852   0.06532   0.06935   0.07669   0.07917
  Beta virt. eigenvalues --    0.08153   0.08606   0.08792   0.09435   0.09674
  Beta virt. eigenvalues --    0.09951   0.10217   0.10685   0.11113   0.11434

 Mulliken charges and spin densities:
               1          2
     1  C    0.301459  -0.916778
     2  C   -0.613391   0.236206
     3  C    0.741411   0.297468
     4  C   -0.297724   0.032157
     5  C   -0.029701  -0.135463
     6  C   -0.008481  -0.065298
     7  C   -0.243834  -0.107648
     8  C   -0.451226  -0.200478
     9  N    0.053929  -0.024742
    10  C    0.317620  -0.435051
    11  C   -0.378930  -0.356591
    12  C   -1.968547   2.180475
    13  C    1.236700  -1.961410
    14  C    0.826113  -1.299006
    15  O   -0.119695   0.021011
    16  C    0.880344  -1.135017
    17  H   -0.080991   0.227621
    18  H   -0.172087   0.289639
    19  H    0.012280   0.121565
    20  H   -0.075701   0.213815
    21  H   -0.051864   0.194049
    22  H    0.160522  -0.004464
    23  H    0.038822   0.079649
    24  H    0.025002   0.128139
    25  H    0.052882   0.070971
    26  H    0.400367  -0.079360
    27  H    0.108211   0.015773
    28  H   -0.137907   0.326279
    29  H   -0.202387   0.378618
    30  H    0.213892  -0.020772
    31  H   -0.364033   0.538965
    32  H   -0.191220   0.363387
    33  H    0.276126  -0.115373
    34  H   -0.170104   0.331888
    35  H   -0.224129   0.358622
    36  H   -0.225207   0.378372
    37  H   -0.281805   0.442584
    38  H   -0.329417   0.465381
    39  H   -0.027299   0.164817
 Sum of Mulliken charges =  -1.00000   1.00000

 Dipole moment (field-independent basis, Debye):
    X=             -4.3378    Y=              2.7618    Z=             -2.3708  Tot=              5.6625
 Quadrupole moment (field-independent basis, Debye-Ang):
   XX=           -203.5894   YY=           -145.9826   ZZ=           -138.5747
   XY=             -2.3081   XZ=             -7.5018   YZ=              1.8817

 Summary of Natural Population Analysis:

                                       Natural Population
                Natural  -----------------------------------------------
    Atom  No    Charge         Core      Valence    Rydberg      Total
 -----------------------------------------------------------------------
      C    1   -0.27936      0.99966     2.27540    0.00430     3.27936
      C    2   -0.19733      0.99961     2.18827    0.00946     3.19733
      C    3   -0.00325      0.99952     1.99440    0.00933     3.00325
      C    4   -0.13597      0.99948     2.12873    0.00776     3.13597
      C    5    0.09881      0.99951     1.89164    0.01004     2.90119
      C    6   -0.12619      0.99953     2.11810    0.00856     3.12619
      C    7   -0.09317      0.99957     2.08374    0.00986     3.09317
      C    8   -0.13258      0.99951     2.12348    0.00960     3.13258
      N    9   -0.32008      0.99966     2.81100    0.00942     3.82008
      C   10   -0.08796      0.99962     2.07681    0.01152     3.08796
      C   11   -0.19790      0.99956     2.18740    0.01094     3.19790
      C   12    0.13840      0.99953     1.84562    0.01646     2.86160
      C   13   -0.30766      0.99960     2.30095    0.00711     3.30766
      C   14   -0.29766      0.99960     2.29097    0.00708     3.29766
      O   15   -0.32005      0.99987     3.30963    0.01055     4.32005
      C   16   -0.09925      0.99959     2.09022    0.00943     3.09925
      H   17    0.09947      0.00000     0.39916    0.00137     0.40053
      H   18    0.09564      0.00000     0.40308    0.00128     0.40436
      H   19    0.09645      0.00000     0.40224    0.00131     0.40355
      H   20    0.09896      0.00000     0.39986    0.00118     0.40104
      H   21    0.09680      0.00000     0.40208    0.00112     0.40320
      H   22    0.10188      0.00000     0.39648    0.00164     0.39812
      H   23    0.09955      0.00000     0.39944    0.00101     0.40045
      H   24    0.09698      0.00000     0.40226    0.00076     0.40302
      H   25    0.09692      0.00000     0.40213    0.00095     0.40308
      H   26    0.20073      0.00000     0.29554    0.00374     0.29927
      H   27    0.08939      0.00000     0.40891    0.00169     0.41061
      H   28    0.09333      0.00000     0.40534    0.00134     0.40667
      H   29    0.10640      0.00000     0.39258    0.00102     0.39360
      H   30    0.10425      0.00000     0.39435    0.00140     0.39575
      H   31    0.10810      0.00000     0.39051    0.00140     0.39190
      H   32    0.10520      0.00000     0.39350    0.00131     0.39480
      H   33    0.10532      0.00000     0.39324    0.00145     0.39468
      H   34    0.10256      0.00000     0.39633    0.00111     0.39744
      H   35    0.10289      0.00000     0.39574    0.00137     0.39711
      H   36    0.10477      0.00000     0.39379    0.00143     0.39523
      H   37    0.08218      0.00000     0.41638    0.00144     0.41782
      H   38    0.08329      0.00000     0.41509    0.00161     0.41671
      H   39    0.09015      0.00000     0.40886    0.00100     0.40985
 =======================================================================
   * Total *    0.00000     15.99342    44.82322    0.18336    61.00000

 Normal termination of Gaussian 16 at Fri Dec 11 02:20:53 2020.
