 Gaussian 16, Revision A.03,

 -----------------------------------------------------------
 # opt freq B3LYP/6-31G(d) empiricaldispersion=gd3bj scf=xqc
 -----------------------------------------------------------

 -------------------------------
 CID_104551855_JID_4319_neutraal
 -------------------------------
 Symbolic Z-matrix:
 Charge =  0 Multiplicity = 1

 SCF Done:  E(RB3LYP) =  -690.194616285     A.U. after   14 cycles
 SCF Done:  E(RB3LYP) =  -690.186302247     A.U. after   13 cycles
 SCF Done:  E(RB3LYP) =  -690.198919684     A.U. after   12 cycles
 SCF Done:  E(RB3LYP) =  -690.200175463     A.U. after   12 cycles
 SCF Done:  E(RB3LYP) =  -690.201239050     A.U. after   12 cycles
 SCF Done:  E(RB3LYP) =  -690.201201995     A.U. after   12 cycles
 SCF Done:  E(RB3LYP) =  -690.201694101     A.U. after   11 cycles
 SCF Done:  E(RB3LYP) =  -690.201813942     A.U. after   12 cycles
 SCF Done:  E(RB3LYP) =  -690.202155487     A.U. after   12 cycles
 SCF Done:  E(RB3LYP) =  -690.202249000     A.U. after   10 cycles
 SCF Done:  E(RB3LYP) =  -690.202854900     A.U. after    9 cycles
 SCF Done:  E(RB3LYP) =  -690.202854209     A.U. after    9 cycles
 SCF Done:  E(RB3LYP) =  -690.202858025     A.U. after    9 cycles
 SCF Done:  E(RB3LYP) =  -690.202858255     A.U. after    8 cycles
 SCF Done:  E(RB3LYP) =  -690.202858271     A.U. after    7 cycles
 Optimization completed.
    -- Stationary point found.
 Normal termination of Gaussian 16 at Thu Dec 10 09:40:57 2020.

 --------------------------------------------------------------------
 #N Geom=AllCheck Guess=TCheck SCRF=Check GenChk RB3LYP/6-31G(d) Freq
 --------------------------------------------------------------------

 Structure from the checkpoint file:  "JID_4319.chk"
 -------------------------------
 CID_104551855_JID_4319_neutraal
 -------------------------------
 Charge =  0 Multiplicity = 1

 SCF Done:  E(RB3LYP) =  -690.202858271     A.U. after    1 cycles

  Exact polarizability: 141.821   1.737 119.589   3.048  -1.183  98.229
 Approx polarizability: 165.375   5.156 180.007   4.446   0.054 142.951

                      1                      2                      3
                      A                      A                      A
 Frequencies --     19.6689                29.2386                52.3218
 Red. masses --      3.4656                 4.3333                 4.6532
 Frc consts  --      0.0008                 0.0022                 0.0075
 IR Inten    --      1.1231                 1.3210                 0.1564

                      4                      5                      6
                      A                      A                      A
 Frequencies --     57.3068                86.6275                94.7742
 Red. masses --      3.0284                 3.4983                 2.5079
 Frc consts  --      0.0059                 0.0155                 0.0133
 IR Inten    --      1.7868                 0.6256                 8.0981

                      7                      8                      9
                      A                      A                      A
 Frequencies --    134.2376               157.5085               171.5189
 Red. masses --      1.3437                 3.1213                 2.5143
 Frc consts  --      0.0143                 0.0456                 0.0436
 IR Inten    --      0.5954                 0.8442                 4.3980

                     10                     11                     12
                      A                      A                      A
 Frequencies --    183.5258               194.1950               230.6659
 Red. masses --      2.2965                 2.4342                 2.6275
 Frc consts  --      0.0456                 0.0541                 0.0824
 IR Inten    --      4.4919                 0.6189                 0.3137

                     13                     14                     15
                      A                      A                      A
 Frequencies --    243.4047               249.1287               260.5929
 Red. masses --      1.3068                 1.7258                 2.5124
 Frc consts  --      0.0456                 0.0631                 0.1005
 IR Inten    --      2.1423                 0.7637                 8.6354

                     16                     17                     18
                      A                      A                      A
 Frequencies --    287.9844               322.5772               352.6307
 Red. masses --      3.2171                 2.1544                 3.0504
 Frc consts  --      0.1572                 0.1321                 0.2235
 IR Inten    --      1.3528                 3.6140                 2.6975

                     19                     20                     21
                      A                      A                      A
 Frequencies --    398.1365               423.7013               439.6400
 Red. masses --      2.4612                 2.6541                 3.2863
 Frc consts  --      0.2299                 0.2807                 0.3742
 IR Inten    --      0.2600                 0.7007                 8.2212

                     22                     23                     24
                      A                      A                      A
 Frequencies --    495.7133               556.1319               599.6319
 Red. masses --      3.3392                 2.5621                 3.6297
 Frc consts  --      0.4834                 0.4669                 0.7689
 IR Inten    --     15.1622                 6.1395                 7.2322

                     25                     26                     27
                      A                      A                      A
 Frequencies --    662.4911               686.0338               724.1038
 Red. masses --      2.6765                 3.7855                 1.2498
 Frc consts  --      0.6921                 1.0497                 0.3861
 IR Inten    --     29.4740                 8.4436               111.4338

                     28                     29                     30
                      A                      A                      A
 Frequencies --    752.1430               803.7662               870.1588
 Red. masses --      3.3277                 1.4404                 2.2435
 Frc consts  --      1.1092                 0.5482                 1.0009
 IR Inten    --     15.1349                77.7388                14.5319

                     31                     32                     33
                      A                      A                      A
 Frequencies --    871.7082               917.9436               931.7179
 Red. masses --      2.5801                 2.1285                 1.6040
 Frc consts  --      1.1551                 1.0567                 0.8204
 IR Inten    --     25.8495                 1.4420                 9.8540

                     34                     35                     36
                      A                      A                      A
 Frequencies --    962.6003              1015.4990              1023.6894
 Red. masses --      2.4786                 1.9132                 2.9532
 Frc consts  --      1.3532                 1.1624                 1.8234
 IR Inten    --      0.7466                21.7633                26.0064

                     37                     38                     39
                      A                      A                      A
 Frequencies --   1035.5147              1081.9755              1111.1337
 Red. masses --      1.6981                 2.0214                 2.1324
 Frc consts  --      1.0728                 1.3942                 1.5512
 IR Inten    --      7.2077                93.7329               102.9801

                     40                     41                     42
                      A                      A                      A
 Frequencies --   1139.2738              1142.4887              1158.3163
 Red. masses --      1.9551                 2.4958                 1.3689
 Frc consts  --      1.4951                 1.9194                 1.0822
 IR Inten    --      7.9586                 1.2482                 9.7640

                     43                     44                     45
                      A                      A                      A
 Frequencies --   1162.5176              1175.6214              1182.0465
 Red. masses --      2.5975                 3.5955                 2.3241
 Frc consts  --      2.0683                 2.9278                 1.9132
 IR Inten    --     27.3924               128.2867                23.0071

                     46                     47                     48
                      A                      A                      A
 Frequencies --   1186.5940              1196.6637              1222.9741
 Red. masses --      1.9689                 1.3666                 1.5255
 Frc consts  --      1.6333                 1.1530                 1.3443
 IR Inten    --      4.9833                 0.2906                32.4454

                     49                     50                     51
                      A                      A                      A
 Frequencies --   1236.7077              1260.3875              1274.8485
 Red. masses --      3.4168                 1.3654                 1.1715
 Frc consts  --      3.0790                 1.2780                 1.1218
 IR Inten    --     11.6375                 9.1763                 1.8125

                     52                     53                     54
                      A                      A                      A
 Frequencies --   1285.0966              1334.5818              1342.6220
 Red. masses --      1.1837                 1.2516                 1.4637
 Frc consts  --      1.1518                 1.3134                 1.5546
 IR Inten    --     44.8344                 3.5287                12.1677

                     55                     56                     57
                      A                      A                      A
 Frequencies --   1384.6075              1404.6034              1409.8953
 Red. masses --      1.4082                 1.2974                 1.5173
 Frc consts  --      1.5906                 1.5081                 1.7771
 IR Inten    --     82.7052                 7.4228                53.8551

                     58                     59                     60
                      A                      A                      A
 Frequencies --   1415.2945              1432.8980              1442.2663
 Red. masses --      1.2647                 1.3417                 1.2926
 Frc consts  --      1.4926                 1.6231                 1.5841
 IR Inten    --      0.9807                16.1512                13.7475

                     61                     62                     63
                      A                      A                      A
 Frequencies --   1470.3873              1498.8723              1500.7114
 Red. masses --      1.3314                 1.1107                 1.1839
 Frc consts  --      1.6960                 1.4702                 1.5710
 IR Inten    --     38.8352                17.4654               100.6373

                     64                     65                     66
                      A                      A                      A
 Frequencies --   1501.6608              1503.6456              1515.4262
 Red. masses --      1.2489                 1.1636                 1.0493
 Frc consts  --      1.6593                 1.5501                 1.4197
 IR Inten    --     18.4446                 5.6013                 4.4613

                     67                     68                     69
                      A                      A                      A
 Frequencies --   1519.2063              1524.2871              1526.6293
 Red. masses --      1.0563                 1.0960                 1.1791
 Frc consts  --      1.4364                 1.5004                 1.6191
 IR Inten    --     33.2079                 7.4763                 7.3419

                     70                     71                     72
                      A                      A                      A
 Frequencies --   1531.9522              1532.4478              1533.9598
 Red. masses --      1.0655                 1.0963                 1.1076
 Frc consts  --      1.4733                 1.5169                 1.5356
 IR Inten    --     15.3765                20.0561                16.6756

                     73                     74                     75
                      A                      A                      A
 Frequencies --   1550.5366              1556.9407              1558.1346
 Red. masses --      1.4184                 1.0748                 1.0714
 Frc consts  --      2.0092                 1.5351                 1.5326
 IR Inten    --     39.2503                 5.2925                 4.1323

                     76                     77                     78
                      A                      A                      A
 Frequencies --   1728.9053              2979.0665              2980.3178
 Red. masses --      7.5464                 1.0526                 1.0712
 Frc consts  --     13.2903                 5.5041                 5.6057
 IR Inten    --    248.0982                30.3856                73.5538

                     79                     80                     81
                      A                      A                      A
 Frequencies --   2997.4060              3007.8011              3032.4800
 Red. masses --      1.0399                 1.1032                 1.0559
 Frc consts  --      5.5045                 5.8804                 5.7209
 IR Inten    --     78.6705                54.4531                42.4741

                     82                     83                     84
                      A                      A                      A
 Frequencies --   3035.9692              3041.3226              3055.1879
 Red. masses --      1.0474                 1.1053                 1.0613
 Frc consts  --      5.6878                 6.0237                 5.8367
 IR Inten    --     41.7010                61.6084                42.2181

                     85                     86                     87
                      A                      A                      A
 Frequencies --   3056.4519              3063.4624              3072.4945
 Red. masses --      1.0827                 1.0419                 1.1061
 Frc consts  --      5.9591                 5.7609                 6.1520
 IR Inten    --     34.6836                14.4218                27.6059

                     88                     89                     90
                      A                      A                      A
 Frequencies --   3080.0285              3099.6544              3102.9867
 Red. masses --      1.0900                 1.1057                 1.0970
 Frc consts  --      6.0922                 6.2593                 6.2230
 IR Inten    --     66.9796                32.3313                27.5524

                     91                     92                     93
                      A                      A                      A
 Frequencies --   3127.9553              3141.6626              3165.4067
 Red. masses --      1.1023                 1.0971                 1.0998
 Frc consts  --      6.3546                 6.3800                 6.4929
 IR Inten    --     29.1113                28.2879                13.2544

                     94                     95                     96
                      A                      A                      A
 Frequencies --   3184.5545              3492.0516              3572.2125
 Red. masses --      1.0986                 1.0733                 1.0644
 Frc consts  --      6.5643                 7.7117                 8.0023
 IR Inten    --      3.5751                 4.3138               304.9121

 - Thermochemistry -
 -------------------
 Temperature   298.150 Kelvin.  Pressure   1.00000 Atm.
 Atom     1 has atomic number  6 and mass  12.00000

 Molecular mass:   204.14739 amu.
 Principal axes and moments of inertia in atomic units:
                           1         2         3
     Eigenvalues --  1444.201316204.795606921.83430
           X            0.99987   0.01383   0.00880
           Y           -0.01371   0.99982  -0.01293
           Z           -0.00897   0.01281   0.99988
 This molecule is an asymmetric top.
 Rotational symmetry number  1.
 Warning -- assumption of classical behavior for rotation
           may cause significant error
 Rotational temperatures (Kelvin)      0.05997     0.01396     0.01251
 Rotational constants (GHZ):           1.24965     0.29086     0.26073
 Zero-point vibrational energy     796257.3 (Joules/Mol)
                                  190.31006 (Kcal/Mol)
 Warning -- explicit consideration of  24 degrees of freedom as
           vibrations may cause significant error
 Vibrational temperatures:     28.30    42.07    75.28    82.45   124.64
          (Kelvin)            136.36   193.14   226.62   246.78   264.05
                              279.40   331.88   350.21   358.44   374.94
                              414.35   464.12   507.36   572.83   609.61
                              632.54   713.22   800.15   862.74   953.18
                              987.05  1041.82  1082.17  1156.44  1251.96
                             1254.19  1320.72  1340.53  1384.97  1461.08
                             1472.86  1489.87  1556.72  1598.67  1639.16
                             1643.79  1666.56  1672.60  1691.46  1700.70
                             1707.24  1721.73  1759.59  1779.35  1813.42
                             1834.22  1848.97  1920.17  1931.73  1992.14
                             2020.91  2028.52  2036.29  2061.62  2075.10
                             2115.56  2156.54  2159.19  2160.56  2163.41
                             2180.36  2185.80  2193.11  2196.48  2204.14
                             2204.85  2207.03  2230.88  2240.09  2241.81
                             2487.51  4286.21  4288.01  4312.60  4327.55
                             4363.06  4368.08  4375.78  4395.73  4397.55
                             4407.64  4420.63  4431.47  4459.71  4464.51
                             4500.43  4520.15  4554.31  4581.86  5024.28
                             5139.62

 Zero-point correction=                           0.303278 (Hartree/Particle)
 Thermal correction to Energy=                    0.319995
 Thermal correction to Enthalpy=                  0.320939
 Thermal correction to Gibbs Free Energy=         0.257055
 Sum of electronic and zero-point Energies=           -689.899580
 Sum of electronic and thermal Energies=              -689.882864
 Sum of electronic and thermal Enthalpies=            -689.881919
 Sum of electronic and thermal Free Energies=         -689.945803

                     E (Thermal)             CV                S
                      KCal/Mol        Cal/Mol-Kelvin    Cal/Mol-Kelvin
 Total                  200.800             59.458            134.454
 Electronic               0.000              0.000              0.000
 Translational            0.889              2.981             41.845
 Rotational               0.889              2.981             32.495
 Vibrational            199.022             53.496             60.114
 Vibration     1          0.593              1.986              6.667
 Vibration     2          0.593              1.984              5.880
 Vibration     3          0.596              1.977              4.728
 Vibration     4          0.596              1.975              4.548
 Vibration     5          0.601              1.959              3.735
 Vibration     6          0.603              1.953              3.559
 Vibration     7          0.613              1.919              2.884
 Vibration     8          0.621              1.894              2.579
 Vibration     9          0.626              1.878              2.419
 Vibration    10          0.631              1.862              2.292
 Vibration    11          0.635              1.848              2.187
 Vibration    12          0.652              1.794              1.874
 Vibration    13          0.659              1.774              1.778
 Vibration    14          0.662              1.764              1.737
 Vibration    15          0.669              1.745              1.658
 Vibration    16          0.685              1.696              1.486
 Vibration    17          0.708              1.630              1.297
 Vibration    18          0.729              1.570              1.154
 Vibration    19          0.764              1.474              0.970
 Vibration    20          0.786              1.419              0.879
 Vibration    21          0.800              1.384              0.828
 Vibration    22          0.851              1.260              0.669
 Vibration    23          0.912              1.126              0.532
 Vibration    24          0.958              1.033              0.450

 Optimization completed.
    -- Stationary point found.
 Normal termination of Gaussian 16 at Thu Dec 10 09:50:56 2020.

 ----------------------------------------------------------------------
 # B3LYP/6-311++G(d,p) empiricaldispersion=gd3bj scf=xqc pop=npa geom=c
 heck
 ----------------------------------------------------------------------

 ---------------------------------------
 CID_104551855_JID_4319_Energie_neutraal
 ---------------------------------------
 Structure from the checkpoint file:  "JID_4319.chk"
 Charge =  0 Multiplicity = 1

 SCF Done:  E(RB3LYP) =  -690.419096378     A.U. after   14 cycles
 Normal termination of Gaussian 16 at Thu Dec 10 09:55:49 2020.

 ----------------------------------------------------------------------
 # B3LYP/6-311++G(d,p) empiricaldispersion=gd3bj scf=xqc pop=npa geom=c
 heck
 ----------------------------------------------------------------------

 -------------------------------------
 CID_104551855_JID_4319_Energie_kation
 -------------------------------------
 Structure from the checkpoint file:  "JID_4319.chk"
 Charge =  1 Multiplicity = 2

 SCF Done:  E(UB3LYP) =  -690.109769476     A.U. after   29 cycles
 Normal termination of Gaussian 16 at Thu Dec 10 10:10:30 2020.
 Gaussian 16:  ES64L-G16RevA.03 25-Dec-2016

 ----------------------------------------------------------------------
 # B3LYP/6-311++G(d,p) empiricaldispersion=gd3bj scf=xqc pop=npa geom=c
 heck
 ----------------------------------------------------------------------

 ------------------------------------
 CID_104551855_JID_4319_Energie_anion
 ------------------------------------
 Structure from the checkpoint file:  "JID_4319.chk"
 Charge = -1 Multiplicity = 2

                         Standard orientation:
 ---------------------------------------------------------------------
 Center     Atomic      Atomic             Coordinates (Angstroms)
 Number     Number       Type             X           Y           Z
 ---------------------------------------------------------------------
      1          6           0        2.959505   -0.089236    1.750742
      2          6           0        2.981998    0.398358    0.300727
      3          6           0        3.689163   -0.601791   -0.644515
      4          8           0        3.465481   -1.958957   -0.361590
      5          7           0        1.625344    0.820468   -0.134979
      6          6           0        1.360464    2.255916   -0.053303
      7          6           0        0.673128   -0.083199   -0.471699
      8          8           0        0.862427   -1.308082   -0.472418
      9          6           0       -0.711843    0.427383   -0.880504
     10          7           0       -1.435422    0.960623    0.274921
     11          6           0       -2.791731    1.415812   -0.030505
     12          6           0       -3.767034    0.305427   -0.418075
     13          8           0       -3.781236   -0.623107    0.649293
     14          6           0       -4.556428   -1.770385    0.374468
     15          1           0        2.367712   -1.002587    1.832392
     16          1           0        2.530478    0.673412    2.409652
     17          1           0        3.975389   -0.315035    2.090453
     18          1           0        3.571002    1.320800    0.244155
     19          1           0        3.429719   -0.338389   -1.684430
     20          1           0        4.767426   -0.441054   -0.528640
     21          1           0        2.491262   -2.057203   -0.401038
     22          1           0        0.291957    2.437520    0.049082
     23          1           0        1.846396    2.655142    0.842833
     24          1           0        1.763715    2.784991   -0.926971
     25          1           0       -0.623002    1.226934   -1.627336
     26          1           0       -1.196797   -0.431012   -1.363689
     27          1           0       -1.509884    0.224575    0.976488
     28          1           0       -3.180014    1.922558    0.860443
     29          1           0       -2.742583    2.158464   -0.836707
     30          1           0       -4.773420    0.723604   -0.590615
     31          1           0       -3.454812   -0.191494   -1.351557
     32          1           0       -5.613551   -1.513609    0.201650
     33          1           0       -4.180532   -2.309571   -0.509249
     34          1           0       -4.486620   -2.424218    1.247194
 ---------------------------------------------------------------------

 SCF Done:  E(UB3LYP) =  -690.408266429     A.U. after   33 cycles
 SCF Done:  E(UB3LYP) =  -690.408266429     a.u. after    1 cycles

 The electronic state is 2-A.
 Alpha  occ. eigenvalues --  -19.04204 -19.00699 -19.00381 -14.25710 -14.21390
 Alpha  occ. eigenvalues --  -10.18454 -10.12664 -10.12507 -10.12295 -10.12052
 Alpha  occ. eigenvalues --  -10.11015 -10.10498 -10.10296 -10.07148  -0.95563
 Alpha  occ. eigenvalues --   -0.95442  -0.91537  -0.85005  -0.82066  -0.69147
 Alpha  occ. eigenvalues --   -0.66749  -0.62329  -0.60652  -0.59047  -0.57624
 Alpha  occ. eigenvalues --   -0.53078  -0.50997  -0.44356  -0.43480  -0.41158
 Alpha  occ. eigenvalues --   -0.40645  -0.39812  -0.39750  -0.38290  -0.37222
 Alpha  occ. eigenvalues --   -0.36744  -0.34976  -0.34493  -0.33504  -0.32296
 Alpha  occ. eigenvalues --   -0.31521  -0.30737  -0.29953  -0.29212  -0.28773
 Alpha  occ. eigenvalues --   -0.28325  -0.28032  -0.26962  -0.26530  -0.24263
 Alpha  occ. eigenvalues --   -0.23453  -0.18004  -0.17609  -0.17032  -0.15906
 Alpha  occ. eigenvalues --   -0.14565   0.03966
 Alpha virt. eigenvalues --    0.05444   0.06679   0.07551   0.07890   0.08296
 Alpha virt. eigenvalues --    0.08898   0.09121   0.09692   0.09996   0.10524
 Alpha virt. eigenvalues --    0.11139   0.11422   0.11888   0.12046   0.12444

  Beta  occ. eigenvalues --  -19.04196 -19.00697 -19.00378 -14.25707 -14.21389
  Beta  occ. eigenvalues --  -10.18451 -10.12635 -10.12479 -10.12282 -10.12040
  Beta  occ. eigenvalues --  -10.10997 -10.10477 -10.10252 -10.07136  -0.95551
  Beta  occ. eigenvalues --   -0.95434  -0.91531  -0.84994  -0.82053  -0.69121
  Beta  occ. eigenvalues --   -0.66712  -0.62281  -0.60601  -0.59016  -0.57564
  Beta  occ. eigenvalues --   -0.53044  -0.50929  -0.44331  -0.43447  -0.41113
  Beta  occ. eigenvalues --   -0.40598  -0.39786  -0.39720  -0.38261  -0.37189
  Beta  occ. eigenvalues --   -0.36707  -0.34940  -0.34468  -0.33471  -0.32272
  Beta  occ. eigenvalues --   -0.31497  -0.30702  -0.29925  -0.29185  -0.28753
  Beta  occ. eigenvalues --   -0.28273  -0.28010  -0.26937  -0.26505  -0.24205
  Beta  occ. eigenvalues --   -0.23437  -0.17982  -0.17598  -0.17016  -0.15889
  Beta  occ. eigenvalues --   -0.14554
  Beta virt. eigenvalues --    0.06187   0.06535   0.07435   0.07952   0.08511
  Beta virt. eigenvalues --    0.08734   0.09157   0.09258   0.10170   0.10436
  Beta virt. eigenvalues --    0.10789   0.11457   0.11686   0.12121   0.12137

 Mulliken charges and spin densities:
               1          2
     1  C    0.255054  -0.657635
     2  C   -0.838461   0.625360
     3  C    0.185957  -0.551847
     4  O   -0.231137  -0.000916
     5  N    0.079534   0.136991
     6  C    1.143729  -1.507447
     7  C   -0.116849   0.307104
     8  O   -0.313881   0.006888
     9  C   -0.075017  -0.888903
    10  N   -0.128431   0.114248
    11  C    0.341832  -0.570119
    12  C    0.115637  -0.483147
    13  O   -0.201097   0.051588
    14  C    0.384090  -0.628828
    15  H    0.198970   0.002996
    16  H   -0.001004   0.121943
    17  H    0.043290   0.104330
    18  H   -0.547854   0.724685
    19  H    0.045791   0.108801
    20  H   -0.064670   0.232135
    21  H    0.248622   0.018501
    22  H    0.032743   0.157742
    23  H   -0.165095   0.329030
    24  H   -0.563340   0.752317
    25  H   -0.098717   0.293796
    26  H    0.161168   0.024492
    27  H    0.300044  -0.029986
    28  H   -0.006107   0.203169
    29  H   -0.265989   0.401219
    30  H   -0.494779   0.657052
    31  H   -0.082928   0.208577
    32  H   -0.276074   0.409764
    33  H   -0.008798   0.137806
    34  H   -0.056230   0.188293
 Sum of Mulliken charges =  -1.00000   1.00000

 Dipole moment (field-independent basis, Debye):
    X=              1.0225    Y=             -2.6680    Z=              1.9379  Tot=              3.4525
 Quadrupole moment (field-independent basis, Debye-Ang):
   XX=           -187.1761   YY=           -139.7213   ZZ=           -117.3353
   XY=              0.3728   XZ=             -1.4088   YZ=              2.9234

 Summary of Natural Population Analysis:

                                       Natural Population
                Natural  -----------------------------------------------
    Atom  No    Charge         Core      Valence    Rydberg      Total
 -----------------------------------------------------------------------
      C    1   -0.29355      0.99963     2.28661    0.00731     3.29355
      C    2   -0.01640      0.99958     2.00331    0.01351     3.01640
      C    3   -0.01348      0.99958     1.99891    0.01499     3.01348
      O    4   -0.38344      0.99990     3.37700    0.00655     4.38344
      N    5   -0.24677      0.99963     2.73437    0.01277     3.74677
      C    6   -0.18007      0.99962     2.17208    0.00837     3.18007
      C    7    0.34726      0.99963     1.63030    0.02281     2.65274
      O    8   -0.34872      0.99986     3.34341    0.00545     4.34872
      C    9   -0.12695      0.99959     2.11642    0.01094     3.12695
      N   10   -0.34051      0.99975     2.83020    0.01056     3.84051
      C   11   -0.09514      0.99962     2.08241    0.01310     3.09514
      C   12   -0.01789      0.99959     2.00641    0.01190     3.01789
      O   13   -0.30330      0.99988     3.29333    0.01008     4.30330
      C   14   -0.09574      0.99962     2.08711    0.00901     3.09574
      H   15    0.10824      0.00000     0.39078    0.00098     0.39176
      H   16    0.09984      0.00000     0.39942    0.00074     0.40016
      H   17    0.10190      0.00000     0.39743    0.00067     0.39810
      H   18    0.10161      0.00000     0.39641    0.00198     0.39839
      H   19    0.07984      0.00000     0.41901    0.00114     0.42016
      H   20    0.08613      0.00000     0.41280    0.00107     0.41387
      H   21    0.24577      0.00000     0.25110    0.00313     0.25423
      H   22    0.11604      0.00000     0.38196    0.00200     0.38396
      H   23    0.09775      0.00000     0.40069    0.00156     0.40225
      H   24    0.09567      0.00000     0.40194    0.00239     0.40433
      H   25    0.10076      0.00000     0.39770    0.00154     0.39924
      H   26    0.09674      0.00000     0.40174    0.00152     0.40326
      H   27    0.17992      0.00000     0.31716    0.00292     0.32008
      H   28    0.09671      0.00000     0.40205    0.00124     0.40329
      H   29    0.09679      0.00000     0.40169    0.00152     0.40321
      H   30    0.08455      0.00000     0.41299    0.00246     0.41545
      H   31    0.07826      0.00000     0.42003    0.00171     0.42174
      H   32    0.08011      0.00000     0.41814    0.00175     0.41989
      H   33    0.07913      0.00000     0.41975    0.00111     0.42087
      H   34    0.08894      0.00000     0.41014    0.00092     0.41106
 =======================================================================
   * Total *   -0.00000     13.99547    41.81479    0.18974    56.00000

 Normal termination of Gaussian 16 at Thu Dec 10 10:27:59 2020.
