 Gaussian 16, Revision A.03,

 -----------------------------------------------------------
 # opt freq B3LYP/6-31G(d) empiricaldispersion=gd3bj scf=xqc
 -----------------------------------------------------------

 ------------------------------
 CID_79762918_JID_3807_neutraal
 ------------------------------
 Symbolic Z-matrix:
 Charge =  0 Multiplicity = 1

 SCF Done:  E(RB3LYP) =  -580.450827140     A.U. after   13 cycles
 SCF Done:  E(RB3LYP) =  -580.459563776     A.U. after   11 cycles
 SCF Done:  E(RB3LYP) =  -580.460693099     A.U. after   10 cycles
 SCF Done:  E(RB3LYP) =  -580.461088165     A.U. after   10 cycles
 SCF Done:  E(RB3LYP) =  -580.461208337     A.U. after   10 cycles
 SCF Done:  E(RB3LYP) =  -580.461233714     A.U. after    9 cycles
 SCF Done:  E(RB3LYP) =  -580.461240092     A.U. after    9 cycles
 SCF Done:  E(RB3LYP) =  -580.461242042     A.U. after    7 cycles
 SCF Done:  E(RB3LYP) =  -580.461243423     A.U. after    8 cycles
 SCF Done:  E(RB3LYP) =  -580.461244341     A.U. after    8 cycles
 SCF Done:  E(RB3LYP) =  -580.461257936     A.U. after    9 cycles
 SCF Done:  E(RB3LYP) =  -580.461258494     A.U. after    8 cycles
 SCF Done:  E(RB3LYP) =  -580.461258645     A.U. after    8 cycles
 SCF Done:  E(RB3LYP) =  -580.461258629     A.U. after    7 cycles
 SCF Done:  E(RB3LYP) =  -580.461258646     A.U. after    7 cycles
 SCF Done:  E(RB3LYP) =  -580.461258652     A.U. after    7 cycles
 Optimization completed.
    -- Stationary point found.
 Normal termination of Gaussian 16 at Sun Dec 13 16:03:40 2020.

 --------------------------------------------------------------------
 #N Geom=AllCheck Guess=TCheck SCRF=Check GenChk RB3LYP/6-31G(d) Freq
 --------------------------------------------------------------------

 Structure from the checkpoint file:  "JID_3807.chk"
 ------------------------------
 CID_79762918_JID_3807_neutraal
 ------------------------------
 Charge =  0 Multiplicity = 1

 SCF Done:  E(RB3LYP) =  -580.461258652     A.U. after    1 cycles

  Exact polarizability: 122.112  -4.149 111.724   1.409   1.886 103.700
 Approx polarizability: 158.272  -3.906 159.647   1.409   1.765 155.924

                      1                      2                      3
                      A                      A                      A
 Frequencies --     21.6088                53.6375                96.9375
 Red. masses --      2.4550                 3.2934                 3.3394
 Frc consts  --      0.0007                 0.0056                 0.0185
 IR Inten    --      2.9640                 0.0604                 0.7913

                      4                      5                      6
                      A                      A                      A
 Frequencies --    103.1271               163.4498               188.2068
 Red. masses --      2.8530                 2.4208                 2.4443
 Frc consts  --      0.0179                 0.0381                 0.0510
 IR Inten    --      0.1890                 0.2918                 0.6388

                      7                      8                      9
                      A                      A                      A
 Frequencies --    191.0661               250.5469               260.6891
 Red. masses --      2.3111                 1.4553                 1.2756
 Frc consts  --      0.0497                 0.0538                 0.0511
 IR Inten    --      0.2604                31.5040                20.0117

                     10                     11                     12
                      A                      A                      A
 Frequencies --    275.5076               326.7329               348.2851
 Red. masses --      3.2015                 2.6298                 1.5010
 Frc consts  --      0.1432                 0.1654                 0.1073
 IR Inten    --      0.5582                 4.9247                73.9389

                     13                     14                     15
                      A                      A                      A
 Frequencies --    405.6351               438.7403               477.8749
 Red. masses --      3.9009                 3.6965                 3.8707
 Frc consts  --      0.3782                 0.4192                 0.5208
 IR Inten    --      1.6052                 3.3018                12.3849

                     16                     17                     18
                      A                      A                      A
 Frequencies --    516.9735               557.1499               674.3329
 Red. masses --      2.9618                 2.6953                 3.5228
 Frc consts  --      0.4664                 0.4929                 0.9438
 IR Inten    --      4.4122                 1.3380                 2.5550

                     19                     20                     21
                      A                      A                      A
 Frequencies --    689.2031               691.9629               791.8600
 Red. masses --      4.4692                 2.5322                 1.6620
 Frc consts  --      1.2508                 0.7143                 0.6140
 IR Inten    --      1.3810                 0.2034                10.7758

                     22                     23                     24
                      A                      A                      A
 Frequencies --    819.2140               839.7161               850.3516
 Red. masses --      2.4486                 2.3210                 2.2575
 Frc consts  --      0.9682                 0.9642                 0.9618
 IR Inten    --      2.1132                 6.5824                 5.4518

                     25                     26                     27
                      A                      A                      A
 Frequencies --    868.5832               881.6801               892.8871
 Red. masses --      2.0747                 2.0697                 2.3130
 Frc consts  --      0.9222                 0.9479                 1.0865
 IR Inten    --      4.1466                16.0118                 1.3929

                     28                     29                     30
                      A                      A                      A
 Frequencies --    914.6541               919.7427               970.9736
 Red. masses --      2.0226                 1.5456                 2.4692
 Frc consts  --      0.9969                 0.7703                 1.3716
 IR Inten    --     10.4776                 6.4351                 7.8534

                     31                     32                     33
                      A                      A                      A
 Frequencies --    992.7389               996.3883              1004.7496
 Red. masses --      1.8545                 2.3710                 1.4556
 Frc consts  --      1.0768                 1.3869                 0.8658
 IR Inten    --      6.9508                 4.1304                 0.6368

                     34                     35                     36
                      A                      A                      A
 Frequencies --   1043.7851              1053.4970              1072.1198
 Red. masses --      1.8932                 2.9467                 1.4509
 Frc consts  --      1.2153                 1.9269                 0.9826
 IR Inten    --      5.5793                26.7148                 2.9423

                     37                     38                     39
                      A                      A                      A
 Frequencies --   1094.0957              1096.7500              1107.8730
 Red. masses --      2.0144                 2.3259                 2.1821
 Frc consts  --      1.4207                 1.6484                 1.5780
 IR Inten    --     15.1343                13.5293                16.5599

                     40                     41                     42
                      A                      A                      A
 Frequencies --   1125.0906              1156.1945              1168.8829
 Red. masses --      2.5924                 2.3651                 2.0056
 Frc consts  --      1.9334                 1.8628                 1.6145
 IR Inten    --     36.8111                50.3937                22.4194

                     43                     44                     45
                      A                      A                      A
 Frequencies --   1187.1135              1194.2753              1226.0211
 Red. masses --      2.1314                 1.3440                 1.2337
 Frc consts  --      1.7697                 1.1294                 1.0926
 IR Inten    --     31.1018                 1.0020                 7.8889

                     46                     47                     48
                      A                      A                      A
 Frequencies --   1234.5155              1250.1064              1267.1184
 Red. masses --      1.3374                 1.3627                 1.2855
 Frc consts  --      1.2009                 1.2547                 1.2161
 IR Inten    --      0.2550                 3.6049                 2.2065

                     49                     50                     51
                      A                      A                      A
 Frequencies --   1292.8899              1302.4850              1305.9449
 Red. masses --      1.5475                 1.4515                 1.3260
 Frc consts  --      1.5241                 1.4508                 1.3324
 IR Inten    --      6.7365                27.0383                15.0589

                     52                     53                     54
                      A                      A                      A
 Frequencies --   1319.7111              1333.1416              1341.3875
 Red. masses --      1.3722                 1.5780                 1.2937
 Frc consts  --      1.4081                 1.6523                 1.3715
 IR Inten    --     21.4782                 2.8685                 4.7434

                     55                     56                     57
                      A                      A                      A
 Frequencies --   1350.4661              1365.3893              1371.1012
 Red. masses --      1.5792                 1.2460                 1.5436
 Frc consts  --      1.6969                 1.3686                 1.7097
 IR Inten    --      5.9793                 3.9241                 2.3379

                     58                     59                     60
                      A                      A                      A
 Frequencies --   1396.6475              1412.4032              1420.3098
 Red. masses --      1.3942                 1.4149                 1.3209
 Frc consts  --      1.6023                 1.6631                 1.5700
 IR Inten    --      3.1483                 8.0622                 2.3205

                     61                     62                     63
                      A                      A                      A
 Frequencies --   1440.8883              1472.7480              1513.0940
 Red. masses --      1.4437                 2.7890                 1.0600
 Frc consts  --      1.7660                 3.5642                 1.4299
 IR Inten    --     16.1172                 4.9490                 4.3035

                     64                     65                     66
                      A                      A                      A
 Frequencies --   1519.8136              1524.2601              1526.3123
 Red. masses --      1.0915                 1.0945                 1.0720
 Frc consts  --      1.4854                 1.4983                 1.4714
 IR Inten    --      1.3473                 4.8490                 4.2944

                     67                     68                     69
                      A                      A                      A
 Frequencies --   1529.9340              1551.1423              1562.1533
 Red. masses --      1.0687                 1.0943                 1.0953
 Frc consts  --      1.4739                 1.5513                 1.5748
 IR Inten    --      1.3537                 4.9350                 1.4838

                     70                     71                     72
                      A                      A                      A
 Frequencies --   3018.7058              3028.8485              3045.9661
 Red. masses --      1.0819                 1.0581                 1.0834
 Frc consts  --      5.8085                 5.7191                 5.9220
 IR Inten    --     38.3042                82.9881                 6.3585

                     73                     74                     75
                      A                      A                      A
 Frequencies --   3048.2676              3053.9964              3057.4463
 Red. masses --      1.0601                 1.0371                 1.0607
 Frc consts  --      5.8037                 5.6994                 5.8417
 IR Inten    --     43.4499                 7.0726                42.2941

                     76                     77                     78
                      A                      A                      A
 Frequencies --   3062.7779              3075.4027              3079.9035
 Red. masses --      1.0917                 1.0840                 1.0837
 Frc consts  --      6.0335                 6.0407                 6.0566
 IR Inten    --     67.8613                15.8528                26.8157

                     79                     80                     81
                      A                      A                      A
 Frequencies --   3091.7250              3103.4297              3114.7706
 Red. masses --      1.1015                 1.0887                 1.1030
 Frc consts  --      6.2037                 6.1777                 6.3050
 IR Inten    --     12.9910                17.4266                76.1716

                     82                     83                     84
                      A                      A                      A
 Frequencies --   3121.5276              3126.3017              3133.5857
 Red. masses --      1.0972                 1.0994                 1.1024
 Frc consts  --      6.2988                 6.3308                 6.3780
 IR Inten    --     20.2396                51.5041                23.3054

                     85                     86                     87
                      A                      A                      A
 Frequencies --   3169.3023              3190.4001              3726.2090
 Red. masses --      1.0894                 1.0910                 1.0660
 Frc consts  --      6.4472                 6.5428                 8.7203
 IR Inten    --     16.9120                11.5297                 7.5260

 - Thermochemistry -
 -------------------
 Temperature   298.150 Kelvin.  Pressure   1.00000 Atm.
 Atom     1 has atomic number  6 and mass  12.00000

 Molecular mass:   182.13068 amu.
 Principal axes and moments of inertia in atomic units:
                           1         2         3
     Eigenvalues --  1453.330603027.275343149.03197
           X            0.99989  -0.00976   0.01156
           Y            0.00884   0.99699   0.07707
           Z           -0.01227  -0.07696   0.99696
 This molecule is an asymmetric top.
 Rotational symmetry number  1.
 Warning -- assumption of classical behavior for rotation
           may cause significant error
 Rotational temperatures (Kelvin)      0.05960     0.02861     0.02750
 Rotational constants (GHZ):           1.24180     0.59616     0.57311
 Zero-point vibrational energy     728845.4 (Joules/Mol)
                                  174.19823 (Kcal/Mol)
 Warning -- explicit consideration of  17 degrees of freedom as
           vibrations may cause significant error
 Vibrational temperatures:     31.09    77.17   139.47   148.38   235.17
          (Kelvin)            270.79   274.90   360.48   375.07   396.39
                              470.10   501.10   583.62   631.25   687.56
                              743.81   801.61   970.21   991.61   995.58
                             1139.31  1178.67  1208.16  1223.47  1249.70
                             1268.54  1284.67  1315.98  1323.30  1397.01
                             1428.33  1433.58  1445.61  1501.77  1515.75
                             1542.54  1574.16  1577.98  1593.98  1618.75
                             1663.51  1681.76  1707.99  1718.30  1763.97
                             1776.19  1798.62  1823.10  1860.18  1873.99
                             1878.96  1898.77  1918.09  1929.96  1943.02
                             1964.49  1972.71  2009.46  2032.13  2043.51
                             2073.12  2118.96  2177.00  2186.67  2193.07
                             2196.02  2201.23  2231.75  2247.59  4343.24
                             4357.84  4382.47  4385.78  4394.02  4398.98
                             4406.65  4424.82  4431.29  4448.30  4465.14
                             4481.46  4491.18  4498.05  4508.53  4559.92
                             4590.27  5361.18

 Zero-point correction=                           0.277603 (Hartree/Particle)
 Thermal correction to Energy=                    0.290317
 Thermal correction to Enthalpy=                  0.291261
 Thermal correction to Gibbs Free Energy=         0.237778
 Sum of electronic and zero-point Energies=           -580.183656
 Sum of electronic and thermal Energies=              -580.170942
 Sum of electronic and thermal Enthalpies=            -580.169997
 Sum of electronic and thermal Free Energies=         -580.223481

                     E (Thermal)             CV                S
                      KCal/Mol        Cal/Mol-Kelvin    Cal/Mol-Kelvin
 Total                  182.177             49.232            112.566
 Electronic               0.000              0.000              0.000
 Translational            0.889              2.981             41.505
 Rotational               0.889              2.981             31.005
 Vibrational            180.399             43.270             40.055
 Vibration     1          0.593              1.985              6.481
 Vibration     2          0.596              1.976              4.679
 Vibration     3          0.603              1.951              3.515
 Vibration     4          0.605              1.947              3.394
 Vibration     5          0.623              1.887              2.509
 Vibration     6          0.633              1.856              2.245
 Vibration     7          0.634              1.852              2.217
 Vibration     8          0.663              1.762              1.727
 Vibration     9          0.669              1.745              1.657
 Vibration    10          0.677              1.719              1.561
 Vibration    11          0.710              1.622              1.276
 Vibration    12          0.726              1.579              1.174
 Vibration    13          0.771              1.458              0.942
 Vibration    14          0.799              1.386              0.831
 Vibration    15          0.834              1.299              0.716
 Vibration    16          0.872              1.212              0.617
 Vibration    17          0.913              1.124              0.530

 Optimization completed.
    -- Stationary point found.
 Normal termination of Gaussian 16 at Sun Dec 13 16:12:55 2020.

 ----------------------------------------------------------------------
 # B3LYP/6-311++G(d,p) empiricaldispersion=gd3bj scf=xqc pop=npa geom=c
 heck
 ----------------------------------------------------------------------

 --------------------------------------
 CID_79762918_JID_3807_Energie_neutraal
 --------------------------------------
 Structure from the checkpoint file:  "JID_3807.chk"
 Charge =  0 Multiplicity = 1

 SCF Done:  E(RB3LYP) =  -580.629669903     A.U. after   15 cycles
 Normal termination of Gaussian 16 at Sun Dec 13 16:16:37 2020.

 ----------------------------------------------------------------------
 # B3LYP/6-311++G(d,p) empiricaldispersion=gd3bj scf=xqc pop=npa geom=c
 heck
 ----------------------------------------------------------------------

 ------------------------------------
 CID_79762918_JID_3807_Energie_kation
 ------------------------------------
 Structure from the checkpoint file:  "JID_3807.chk"
 Charge =  1 Multiplicity = 2

 SCF Done:  E(UB3LYP) =  -580.317683434     A.U. after   25 cycles
 Normal termination of Gaussian 16 at Sun Dec 13 16:24:43 2020.
 Gaussian 16:  ES64L-G16RevA.03 25-Dec-2016

 ----------------------------------------------------------------------
 # B3LYP/6-311++G(d,p) empiricaldispersion=gd3bj scf=xqc pop=npa geom=c
 heck
 ----------------------------------------------------------------------

 -----------------------------------
 CID_79762918_JID_3807_Energie_anion
 -----------------------------------
 Structure from the checkpoint file:  "JID_3807.chk"
 Charge = -1 Multiplicity = 2

                         Standard orientation:
 ---------------------------------------------------------------------
 Center     Atomic      Atomic             Coordinates (Angstroms)
 Number     Number       Type             X           Y           Z
 ---------------------------------------------------------------------
      1          6           0        1.443529    2.199129    0.251414
      2          6           0        1.725996    0.712670    0.363409
      3          6           0        0.605372   -0.214954   -0.134551
      4          6           0        1.397433   -1.498612   -0.437409
      5          6           0        2.743574   -0.950904   -0.940766
      6          8           0        2.853583    0.393289   -0.464367
      7          6           0       -0.544575   -0.393050    0.836000
      8          6           0       -1.897894   -0.959186    0.459881
      9          6           0       -1.763439    0.491427    0.899784
     10          6           0       -2.153810    1.386588   -0.269553
     11          6           0       -2.266266    0.469437   -1.517453
     12          6           0       -2.361018   -0.988668   -0.991042
     13          8           0       -0.124829   -0.759873    2.140806
     14          1           0        0.614745    2.477699    0.910432
     15          1           0        1.183708    2.464790   -0.779533
     16          1           0        2.325557    2.778557    0.541697
     17          1           0        1.951810    0.458449    1.409508
     18          1           0        0.236874    0.192659   -1.079365
     19          1           0        0.901352   -2.148225   -1.164583
     20          1           0        1.542766   -2.076136    0.483935
     21          1           0        2.787668   -0.932942   -2.038014
     22          1           0        3.593958   -1.544541   -0.580204
     23          1           0       -2.303328   -1.699477    1.145213
     24          1           0       -2.061523    0.788366    1.900866
     25          1           0       -1.452491    2.212057   -0.434176
     26          1           0       -3.126127    1.837680   -0.039682
     27          1           0       -1.392992    0.589226   -2.164927
     28          1           0       -3.135399    0.731215   -2.129238
     29          1           0       -1.782821   -1.682640   -1.613676
     30          1           0       -3.400259   -1.337072   -1.012953
     31          1           0        0.113060   -1.700250    2.114890
 ---------------------------------------------------------------------

 SCF Done:  E(UB3LYP) =  -580.616055381     A.U. after   27 cycles

 The electronic state is 2-A.
 Alpha  occ. eigenvalues --  -19.02311 -19.01695 -10.12584 -10.11566 -10.11310
 Alpha  occ. eigenvalues --  -10.07496 -10.07031 -10.06818 -10.06795 -10.06787
 Alpha  occ. eigenvalues --  -10.06426 -10.06320 -10.06279  -0.93534  -0.92873
 Alpha  occ. eigenvalues --   -0.77217  -0.69368  -0.66838  -0.65619  -0.60823
 Alpha  occ. eigenvalues --   -0.58344  -0.52417  -0.49259  -0.47983  -0.45828
 Alpha  occ. eigenvalues --   -0.44603  -0.41983  -0.39920  -0.37563  -0.36753
 Alpha  occ. eigenvalues --   -0.35327  -0.34766  -0.33662  -0.32751  -0.30934
 Alpha  occ. eigenvalues --   -0.29321  -0.28850  -0.28026  -0.27169  -0.25272
 Alpha  occ. eigenvalues --   -0.24698  -0.24122  -0.23828  -0.23760  -0.22756
 Alpha  occ. eigenvalues --   -0.22201  -0.20653  -0.16553  -0.16139  -0.14374
 Alpha  occ. eigenvalues --    0.04497
 Alpha virt. eigenvalues --    0.06624   0.07421   0.07778   0.08882   0.09093
 Alpha virt. eigenvalues --    0.09468   0.10222   0.10403   0.11513   0.11988
 Alpha virt. eigenvalues --    0.12299   0.12586   0.13273   0.14111   0.14729

  Beta  occ. eigenvalues --  -19.02280 -19.01695 -10.12583 -10.11562 -10.11294
  Beta  occ. eigenvalues --  -10.07488 -10.07026 -10.06806 -10.06780 -10.06749
  Beta  occ. eigenvalues --  -10.06419 -10.06298 -10.06253  -0.93518  -0.92821
  Beta  occ. eigenvalues --   -0.77188  -0.69342  -0.66810  -0.65580  -0.60778
  Beta  occ. eigenvalues --   -0.58313  -0.52364  -0.49192  -0.47949  -0.45756
  Beta  occ. eigenvalues --   -0.44568  -0.41931  -0.39893  -0.37510  -0.36720
  Beta  occ. eigenvalues --   -0.35294  -0.34733  -0.33628  -0.32724  -0.30908
  Beta  occ. eigenvalues --   -0.29304  -0.28821  -0.28000  -0.27141  -0.25238
  Beta  occ. eigenvalues --   -0.24660  -0.24083  -0.23794  -0.23724  -0.22720
  Beta  occ. eigenvalues --   -0.22180  -0.20623  -0.16531  -0.16123  -0.14357
  Beta virt. eigenvalues --    0.06850   0.07615   0.08047   0.08271   0.09327
  Beta virt. eigenvalues --    0.09784   0.09886   0.10627   0.10794   0.11873
  Beta virt. eigenvalues --    0.12367   0.12596   0.12980   0.13560   0.14297

 Mulliken charges and spin densities:
               1          2
     1  C   -0.176064  -0.351713
     2  C   -0.265488  -0.415351
     3  C   -0.485705   0.903779
     4  C    1.578839  -1.762004
     5  C    0.123542  -0.412671
     6  O   -0.079731  -0.005691
     7  C   -1.395603   1.018670
     8  C   -0.716424   0.697065
     9  C    0.532468  -0.365986
    10  C    0.317565  -0.954823
    11  C   -0.477850   0.359036
    12  C    1.825236  -2.468353
    13  O   -0.112854  -0.050303
    14  H    0.101023   0.060601
    15  H    0.044564   0.111890
    16  H    0.059230   0.090305
    17  H    0.132745   0.068031
    18  H    0.995004  -0.822697
    19  H   -0.133116   0.294830
    20  H   -0.452925   0.587122
    21  H   -0.196894   0.346317
    22  H   -0.022763   0.170866
    23  H   -0.616731   0.872498
    24  H    0.133311   0.119324
    25  H    0.220109  -0.109386
    26  H   -0.258920   0.426813
    27  H   -0.440584   0.602391
    28  H   -0.618672   0.805461
    29  H   -0.226705   0.365484
    30  H   -0.318355   0.490480
    31  H   -0.068250   0.328016
 Sum of Mulliken charges =  -1.00000   1.00000

 Dipole moment (field-independent basis, Debye):
    X=              3.5077    Y=              4.1207    Z=              1.3151  Tot=              5.5690
 Quadrupole moment (field-independent basis, Debye-Ang):
   XX=           -143.8924   YY=           -122.4815   ZZ=           -122.6984
   XY=             -1.2495   XZ=             -5.5738   YZ=              2.9005

 Summary of Natural Population Analysis:

                                       Natural Population
                Natural  -----------------------------------------------
    Atom  No    Charge         Core      Valence    Rydberg      Total
 -----------------------------------------------------------------------
      C    1   -0.28950      0.99964     2.28477    0.00509     3.28950
      C    2    0.07171      0.99954     1.91578    0.01297     2.92829
      C    3   -0.13560      0.99952     2.12274    0.01334     3.13560
      C    4   -0.19938      0.99962     2.19139    0.00836     3.19938
      C    5   -0.00625      0.99960     1.99455    0.01210     3.00625
      O    6   -0.31000      0.99989     3.30183    0.00829     4.31000
      C    7    0.12675      0.99940     1.85650    0.01735     2.87325
      C    8   -0.11065      0.99955     2.09848    0.01263     3.11065
      C    9   -0.10804      0.99955     2.09829    0.01020     3.10804
      C   10   -0.19486      0.99963     2.18709    0.00814     3.19486
      C   11   -0.19251      0.99965     2.18529    0.00758     3.19251
      C   12   -0.19408      0.99963     2.18580    0.00865     3.19408
      O   13   -0.37066      0.99989     3.36444    0.00633     4.37066
      H   14    0.10255      0.00000     0.39663    0.00082     0.39745
      H   15    0.09827      0.00000     0.40053    0.00120     0.40173
      H   16    0.09992      0.00000     0.39917    0.00090     0.40008
      H   17    0.08628      0.00000     0.41217    0.00155     0.41372
      H   18    0.10576      0.00000     0.39121    0.00303     0.39424
      H   19    0.10798      0.00000     0.39046    0.00156     0.39202
      H   20    0.09609      0.00000     0.40156    0.00235     0.40391
      H   21    0.08183      0.00000     0.41675    0.00142     0.41817
      H   22    0.08193      0.00000     0.41672    0.00135     0.41807
      H   23    0.10983      0.00000     0.38826    0.00191     0.39017
      H   24    0.10947      0.00000     0.38941    0.00112     0.39053
      H   25    0.09917      0.00000     0.39967    0.00116     0.40083
      H   26    0.10057      0.00000     0.39835    0.00108     0.39943
      H   27    0.09387      0.00000     0.40443    0.00169     0.40613
      H   28    0.10242      0.00000     0.39603    0.00155     0.39758
      H   29    0.10224      0.00000     0.39592    0.00184     0.39776
      H   30    0.10245      0.00000     0.39576    0.00179     0.39755
      H   31    0.23244      0.00000     0.26301    0.00455     0.26756
 =======================================================================
   * Total *    0.00000     12.99509    36.84299    0.16191    50.00000

 Normal termination of Gaussian 16 at Sun Dec 13 16:33:17 2020.
