 Gaussian 16, Revision A.03,

 -----------------------------------------------------------
 # opt freq B3LYP/6-31G(d) empiricaldispersion=gd3bj scf=xqc
 -----------------------------------------------------------

 -------------------------------
 CID_105444259_JID_4240_neutraal
 -------------------------------
 Symbolic Z-matrix:
 Charge =  0 Multiplicity = 1

 SCF Done:  E(RB3LYP) =  -616.150332731     A.U. after   15 cycles
 SCF Done:  E(RB3LYP) =  -616.153766661     A.U. after   13 cycles
 SCF Done:  E(RB3LYP) =  -616.154778890     A.U. after   13 cycles
 SCF Done:  E(RB3LYP) =  -616.156471444     A.U. after   15 cycles
 SCF Done:  E(RB3LYP) =  -616.156983044     A.U. after   13 cycles
 SCF Done:  E(RB3LYP) =  -616.158053830     A.U. after   13 cycles
 SCF Done:  E(RB3LYP) =  -616.158559287     A.U. after   13 cycles
 SCF Done:  E(RB3LYP) =  -616.158644800     A.U. after   10 cycles
 SCF Done:  E(RB3LYP) =  -616.158659356     A.U. after   10 cycles
 SCF Done:  E(RB3LYP) =  -616.158664176     A.U. after    9 cycles
 SCF Done:  E(RB3LYP) =  -616.158664750     A.U. after    8 cycles
 SCF Done:  E(RB3LYP) =  -616.158664930     A.U. after    8 cycles
 SCF Done:  E(RB3LYP) =  -616.158664988     A.U. after    8 cycles
 SCF Done:  E(RB3LYP) =  -616.158664998     A.U. after    7 cycles
 Optimization completed.
    -- Stationary point found.
 Normal termination of Gaussian 16 at Thu Dec 10 09:21:53 2020.

 --------------------------------------------------------------------
 #N Geom=AllCheck Guess=TCheck SCRF=Check GenChk RB3LYP/6-31G(d) Freq
 --------------------------------------------------------------------

 Structure from the checkpoint file:  "JID_4240.chk"
 -------------------------------
 CID_105444259_JID_4240_neutraal
 -------------------------------
 Charge =  0 Multiplicity = 1

 SCF Done:  E(RB3LYP) =  -616.158664998     A.U. after    1 cycles

  Exact polarizability: 179.335  -4.027 125.122  -4.730  -0.004  80.798
 Approx polarizability: 239.813 -17.393 216.794  -5.678  -0.279 118.972

                      1                      2                      3
                      A                      A                      A
 Frequencies --     23.4549                65.7121                75.7438
 Red. masses --      4.9103                 5.8083                 3.3933
 Frc consts  --      0.0016                 0.0148                 0.0115
 IR Inten    --      0.8999                 3.6116                 2.5479

                      4                      5                      6
                      A                      A                      A
 Frequencies --    105.6800               126.0187               186.6773
 Red. masses --      4.0513                 3.3732                 3.9640
 Frc consts  --      0.0267                 0.0316                 0.0814
 IR Inten    --      5.1347                 0.5047                 1.7445

                      7                      8                      9
                      A                      A                      A
 Frequencies --    215.6437               218.2402               264.9700
 Red. masses --      1.8450                 1.2096                 3.4170
 Frc consts  --      0.0506                 0.0339                 0.1413
 IR Inten    --      0.6033                 0.6116                 0.7639

                     10                     11                     12
                      A                      A                      A
 Frequencies --    277.3807               282.6868               294.0471
 Red. masses --      2.4992                 1.6442                 2.2527
 Frc consts  --      0.1133                 0.0774                 0.1148
 IR Inten    --      2.1222                 0.8168                 1.2682

                     13                     14                     15
                      A                      A                      A
 Frequencies --    320.3336               383.5316               430.1317
 Red. masses --      3.2386                 2.4539                 3.7369
 Frc consts  --      0.1958                 0.2127                 0.4074
 IR Inten    --      0.7216                 7.9933                 6.3333

                     16                     17                     18
                      A                      A                      A
 Frequencies --    467.4553               484.7720               512.2495
 Red. masses --      3.8168                 3.8232                 3.3945
 Frc consts  --      0.4914                 0.5294                 0.5248
 IR Inten    --      1.2650                 4.0782                 0.2498

                     19                     20                     21
                      A                      A                      A
 Frequencies --    555.3318               591.0552               638.9009
 Red. masses --      4.7894                 4.1413                 4.4077
 Frc consts  --      0.8702                 0.8524                 1.0601
 IR Inten    --      3.2562                11.3543                 2.9721

                     22                     23                     24
                      A                      A                      A
 Frequencies --    691.9273               717.5959               788.9727
 Red. masses --      5.5666                 2.2422                 3.8544
 Frc consts  --      1.5702                 0.6803                 1.4136
 IR Inten    --      2.2232                14.7454                10.3003

                     25                     26                     27
                      A                      A                      A
 Frequencies --    796.0845               867.3037               885.9628
 Red. masses --      1.5270                 1.5705                 1.3927
 Frc consts  --      0.5702                 0.6960                 0.6441
 IR Inten    --     28.5476                 6.0145                 0.2713

                     28                     29                     30
                      A                      A                      A
 Frequencies --    895.3589               900.6067               933.6387
 Red. masses --      1.5651                 2.4285                 2.0884
 Frc consts  --      0.7393                 1.1605                 1.0726
 IR Inten    --     11.7674                 5.7870                37.3629

                     31                     32                     33
                      A                      A                      A
 Frequencies --    959.3810               967.8924              1011.2571
 Red. masses --      1.7238                 1.2757                 1.7287
 Frc consts  --      0.9348                 0.7041                 1.0416
 IR Inten    --     12.5520                 1.6412                 7.3500

                     34                     35                     36
                      A                      A                      A
 Frequencies --   1017.4670              1049.8137              1083.8017
 Red. masses --      5.8728                 1.9340                 1.5821
 Frc consts  --      3.5821                 1.2558                 1.0949
 IR Inten    --      0.8953                 1.2469                 4.7015

                     37                     38                     39
                      A                      A                      A
 Frequencies --   1085.2896              1093.1976              1119.8094
 Red. masses --      1.4474                 2.9522                 1.6923
 Frc consts  --      1.0044                 2.0787                 1.2503
 IR Inten    --      4.1580                91.7987                 8.3640

                     40                     41                     42
                      A                      A                      A
 Frequencies --   1128.7508              1144.9263              1186.5945
 Red. masses --      1.6528                 1.6651                 1.2714
 Frc consts  --      1.2407                 1.2860                 1.0547
 IR Inten    --     44.5093                28.6625                 0.7922

                     43                     44                     45
                      A                      A                      A
 Frequencies --   1198.3238              1206.3336              1219.8540
 Red. masses --      1.9333                 1.1201                 1.3990
 Frc consts  --      1.6357                 0.9604                 1.2266
 IR Inten    --     52.8867                 5.6671                 2.1063

                     46                     47                     48
                      A                      A                      A
 Frequencies --   1271.3345              1306.2989              1312.7857
 Red. masses --      2.4457                 1.7906                 3.1212
 Frc consts  --      2.3291                 1.8003                 3.1693
 IR Inten    --     93.8426                 5.7973                 4.6915

                     49                     50                     51
                      A                      A                      A
 Frequencies --   1335.6873              1373.8811              1396.6452
 Red. masses --      1.8112                 4.6692                 2.0433
 Frc consts  --      1.9038                 5.1926                 2.3483
 IR Inten    --    105.1301                21.7413                38.9753

                     52                     53                     54
                      A                      A                      A
 Frequencies --   1441.3025              1462.4872              1487.0345
 Red. masses --      1.2532                 1.3330                 2.0795
 Frc consts  --      1.5339                 1.6798                 2.7092
 IR Inten    --      8.1782                12.4164                66.3269

                     55                     56                     57
                      A                      A                      A
 Frequencies --   1505.4276              1510.3443              1520.6668
 Red. masses --      1.5290                 1.2441                 1.0545
 Frc consts  --      2.0417                 1.6720                 1.4367
 IR Inten    --      2.2382                11.4121                 3.0453

                     58                     59                     60
                      A                      A                      A
 Frequencies --   1521.1383              1531.6840              1537.0223
 Red. masses --      1.0477                 1.2764                 1.0695
 Frc consts  --      1.4284                 1.7643                 1.4887
 IR Inten    --      5.2959                22.6412                16.6224

                     61                     62                     63
                      A                      A                      A
 Frequencies --   1545.3568              1642.3617              1671.2630
 Red. masses --      1.9301                 5.5694                 6.1023
 Frc consts  --      2.7157                 8.8511                10.0424
 IR Inten    --     23.0928                65.0300                84.9917

                     64                     65                     66
                      A                      A                      A
 Frequencies --   1812.5454              2897.2473              3026.3077
 Red. masses --      9.6949                 1.0825                 1.0348
 Frc consts  --     18.7659                 5.3537                 5.5837
 IR Inten    --    287.2925               106.7324                56.9239

                     67                     68                     69
                      A                      A                      A
 Frequencies --   3054.9150              3085.0668              3119.2346
 Red. masses --      1.0352                 1.1067                 1.1027
 Frc consts  --      5.6918                 6.2057                 6.3211
 IR Inten    --     26.3297                42.8816                15.7556

                     70                     71                     72
                      A                      A                      A
 Frequencies --   3132.5445              3146.1350              3160.0565
 Red. masses --      1.1015                 1.0561                 1.0998
 Frc consts  --      6.3682                 6.1590                 6.4705
 IR Inten    --     31.4051                13.9478                26.5208

                     73                     74                     75
                      A                      A                      A
 Frequencies --   3188.2879              3194.5303              3205.0022
 Red. masses --      1.0866                 1.0898                 1.0935
 Frc consts  --      6.5081                 6.5526                 6.6182
 IR Inten    --      7.5436                 1.8639                17.4381

                     76                     77                     78
                      A                      A                      A
 Frequencies --   3208.7143              3231.3296              3232.9331
 Red. masses --      1.0908                 1.0918                 1.1161
 Frc consts  --      6.6168                 6.7170                 6.8727
 IR Inten    --      1.4524                12.3635                 7.1282

 - Thermochemistry -
 -------------------
 Temperature   298.150 Kelvin.  Pressure   1.00000 Atm.
 Atom     1 has atomic number  6 and mass  12.00000

 Molecular mass:   190.09938 amu.
 Principal axes and moments of inertia in atomic units:
                           1         2         3
     Eigenvalues --  1068.505565498.580585922.77905
           X            0.99987   0.01214  -0.01050
           Y           -0.01218   0.99992  -0.00369
           Z            0.01045   0.00381   0.99994
 This molecule is an asymmetric top.
 Rotational symmetry number  1.
 Warning -- assumption of classical behavior for rotation
           may cause significant error
 Rotational temperatures (Kelvin)      0.08106     0.01575     0.01462
 Rotational constants (GHZ):           1.68903     0.32822     0.30471
 Zero-point vibrational energy     613311.8 (Joules/Mol)
                                  146.58505 (Kcal/Mol)
 Warning -- explicit consideration of  20 degrees of freedom as
           vibrations may cause significant error
 Vibrational temperatures:     33.75    94.55   108.98   152.05   181.31
          (Kelvin)            268.59   310.26   314.00   381.23   399.09
                              406.72   423.07   460.89   551.82   618.86
                              672.56   697.48   737.01   799.00   850.40
                              919.24   995.53  1032.46  1135.16  1145.39
                             1247.86  1274.70  1288.22  1295.77  1343.30
                             1380.34  1392.58  1454.97  1463.91  1510.45
                             1559.35  1561.49  1572.87  1611.16  1624.02
                             1647.29  1707.24  1724.12  1735.64  1755.10
                             1829.17  1879.47  1888.81  1921.76  1976.71
                             2009.46  2073.71  2104.19  2139.51  2165.97
                             2173.05  2187.90  2188.58  2203.75  2211.43
                             2223.42  2362.99  2404.57  2607.85  4168.49
                             4354.18  4395.34  4438.72  4487.88  4507.03
                             4526.59  4546.62  4587.24  4596.22  4611.28
                             4616.62  4649.16  4651.47

 Zero-point correction=                           0.233598 (Hartree/Particle)
 Thermal correction to Energy=                    0.247114
 Thermal correction to Enthalpy=                  0.248058
 Thermal correction to Gibbs Free Energy=         0.192689
 Sum of electronic and zero-point Energies=           -615.925067
 Sum of electronic and thermal Energies=              -615.911551
 Sum of electronic and thermal Enthalpies=            -615.910607
 Sum of electronic and thermal Free Energies=         -615.965976

                     E (Thermal)             CV                S
                      KCal/Mol        Cal/Mol-Kelvin    Cal/Mol-Kelvin
 Total                  155.066             51.071            116.534
 Electronic               0.000              0.000              0.000
 Translational            0.889              2.981             41.633
 Rotational               0.889              2.981             31.920
 Vibrational            153.289             45.110             42.981
 Vibration     1          0.593              1.985              6.318
 Vibration     2          0.597              1.971              4.278
 Vibration     3          0.599              1.965              3.998
 Vibration     4          0.605              1.945              3.347
 Vibration     5          0.611              1.927              3.006
 Vibration     6          0.632              1.858              2.261
 Vibration     7          0.645              1.817              1.995
 Vibration     8          0.646              1.813              1.974
 Vibration     9          0.671              1.737              1.629
 Vibration    10          0.678              1.715              1.550
 Vibration    11          0.682              1.706              1.517
 Vibration    12          0.689              1.685              1.451
 Vibration    13          0.706              1.635              1.308
 Vibration    14          0.753              1.505              1.025
 Vibration    15          0.791              1.405              0.858
 Vibration    16          0.825              1.322              0.745
 Vibration    17          0.841              1.284              0.697
 Vibration    18          0.867              1.223              0.628
 Vibration    19          0.911              1.128              0.533
 Vibration    20          0.948              1.051              0.465

 Optimization completed.
    -- Stationary point found.
 Normal termination of Gaussian 16 at Thu Dec 10 09:29:18 2020.

 ----------------------------------------------------------------------
 # B3LYP/6-311++G(d,p) empiricaldispersion=gd3bj scf=xqc pop=npa geom=c
 heck
 ----------------------------------------------------------------------

 ---------------------------------------
 CID_105444259_JID_4240_Energie_neutraal
 ---------------------------------------
 Structure from the checkpoint file:  "JID_4240.chk"
 Charge =  0 Multiplicity = 1

 SCF Done:  E(RB3LYP) =  -616.328939840     A.U. after   15 cycles
 Normal termination of Gaussian 16 at Thu Dec 10 09:32:49 2020.

 ----------------------------------------------------------------------
 # B3LYP/6-311++G(d,p) empiricaldispersion=gd3bj scf=xqc pop=npa geom=c
 heck
 ----------------------------------------------------------------------

 -------------------------------------
 CID_105444259_JID_4240_Energie_kation
 -------------------------------------
 Structure from the checkpoint file:  "JID_4240.chk"
 Charge =  1 Multiplicity = 2

 SCF Done:  E(UB3LYP) =  -616.028773376     A.U. after   24 cycles
 Normal termination of Gaussian 16 at Thu Dec 10 09:40:41 2020.
 Gaussian 16:  ES64L-G16RevA.03 25-Dec-2016

 ----------------------------------------------------------------------
 # B3LYP/6-311++G(d,p) empiricaldispersion=gd3bj scf=xqc pop=npa geom=c
 heck
 ----------------------------------------------------------------------

 ------------------------------------
 CID_105444259_JID_4240_Energie_anion
 ------------------------------------
 Structure from the checkpoint file:  "JID_4240.chk"
 Charge = -1 Multiplicity = 2

                         Standard orientation:
 ---------------------------------------------------------------------
 Center     Atomic      Atomic             Coordinates (Angstroms)
 Number     Number       Type             X           Y           Z
 ---------------------------------------------------------------------
      1          6           0       -1.807513   -0.731556    1.825325
      2          6           0       -1.393982   -0.554041    0.370314
      3          6           0       -1.842388   -1.553742   -0.642467
      4          6           0       -2.436457   -0.148147   -0.685818
      5          6           0       -3.856534    0.055584   -0.333381
      6          8           0       -4.549741    0.942348   -0.790145
      7          6           0       -0.037678    0.076910    0.211150
      8          6           0        1.088720   -0.718407    0.020210
      9          6           0        2.362923   -0.141998   -0.074992
     10          6           0        2.509868    1.245195    0.024278
     11          6           0        1.374520    2.037936    0.218467
     12          6           0        0.109879    1.468287    0.313548
     13          8           0        3.391229   -1.018706   -0.265822
     14          6           0        4.702547   -0.490046   -0.371230
     15          1           0       -1.885154    0.236952    2.331122
     16          1           0       -1.049196   -1.323032    2.349979
     17          1           0       -2.766262   -1.248654    1.924696
     18          1           0       -1.175783   -1.821639   -1.456149
     19          1           0       -2.497008   -2.356072   -0.309772
     20          1           0       -2.081447    0.517100   -1.467227
     21          1           0       -4.281085   -0.676823    0.389787
     22          1           0        1.001996   -1.797532   -0.059089
     23          1           0        3.484498    1.712222   -0.050538
     24          1           0        1.489345    3.115887    0.290780
     25          1           0       -0.767803    2.092193    0.454895
     26          1           0        4.795035    0.189426   -1.228709
     27          1           0        4.996487    0.042831    0.542647
     28          1           0        5.361053   -1.347853   -0.517121
 ---------------------------------------------------------------------

 SCF Done:  E(UB3LYP) =  -616.319637057     A.U. after   33 cycles
 SCF Done:  E(UB3LYP) =  -616.319637057     a.u. after    1 cycles

 The electronic state is 2-A.
 Alpha  occ. eigenvalues --  -19.05673 -18.99161 -10.13904 -10.12947 -10.12055
 Alpha  occ. eigenvalues --  -10.10464 -10.08832 -10.08382 -10.08352 -10.08322
 Alpha  occ. eigenvalues --  -10.07867 -10.07544 -10.07348 -10.07278  -0.97286
 Alpha  occ. eigenvalues --   -0.92448  -0.79207  -0.75338  -0.66331  -0.66125
 Alpha  occ. eigenvalues --   -0.62614  -0.59939  -0.56009  -0.53191  -0.50260
 Alpha  occ. eigenvalues --   -0.47615  -0.45099  -0.43574  -0.39217  -0.38992
 Alpha  occ. eigenvalues --   -0.38238  -0.37684  -0.37106  -0.34115  -0.33137
 Alpha  occ. eigenvalues --   -0.32294  -0.31821  -0.31302  -0.29598  -0.29125
 Alpha  occ. eigenvalues --   -0.28232  -0.28103  -0.27583  -0.25795  -0.23591
 Alpha  occ. eigenvalues --   -0.22785  -0.20905  -0.19201  -0.15636  -0.14093
 Alpha  occ. eigenvalues --   -0.13036   0.04293
 Alpha virt. eigenvalues --    0.05642   0.06961   0.07421   0.07930   0.08771
 Alpha virt. eigenvalues --    0.08883   0.09280   0.09430   0.09741   0.10229
 Alpha virt. eigenvalues --    0.11530   0.11879   0.11913   0.12721   0.13011

  Beta  occ. eigenvalues --  -19.05660 -18.98904 -10.13904 -10.12734 -10.11995
  Beta  occ. eigenvalues --  -10.10424 -10.08811 -10.08406 -10.08318 -10.08297
  Beta  occ. eigenvalues --  -10.07867 -10.07511 -10.07338 -10.07274  -0.97255
  Beta  occ. eigenvalues --   -0.91965  -0.79135  -0.75295  -0.66292  -0.66057
  Beta  occ. eigenvalues --   -0.62589  -0.59866  -0.55663  -0.53124  -0.50211
  Beta  occ. eigenvalues --   -0.47440  -0.44941  -0.43514  -0.39175  -0.38954
  Beta  occ. eigenvalues --   -0.38173  -0.37567  -0.37059  -0.34066  -0.33079
  Beta  occ. eigenvalues --   -0.32076  -0.31722  -0.31223  -0.29539  -0.28942
  Beta  occ. eigenvalues --   -0.28177  -0.27556  -0.27054  -0.25739  -0.23531
  Beta  occ. eigenvalues --   -0.22711  -0.20778  -0.18897  -0.15522  -0.13885
  Beta  occ. eigenvalues --   -0.12970
  Beta virt. eigenvalues --    0.06681   0.07192   0.07587   0.07908   0.08300
  Beta virt. eigenvalues --    0.09072   0.09204   0.09661   0.09978   0.10315
  Beta virt. eigenvalues --    0.10812   0.11663   0.11812   0.12050   0.12944

 Mulliken charges and spin densities:
               1          2
     1  C   -0.402178  -0.254528
     2  C    0.668172  -0.041570
     3  C    0.068417  -0.531757
     4  C   -0.211825   0.322014
     5  C   -0.142966   0.005669
     6  O   -0.319712   0.073794
     7  C    0.613551   0.243066
     8  C   -1.198360   0.356449
     9  C   -0.581910   0.049141
    10  C    0.711213  -0.409593
    11  C    0.174600  -0.548169
    12  C   -0.132050  -0.276376
    13  O   -0.223281   0.074580
    14  C    1.219893  -1.557782
    15  H    0.131926   0.030581
    16  H    0.081823   0.068791
    17  H    0.150804  -0.018988
    18  H    0.120204   0.043941
    19  H   -0.309648   0.480493
    20  H    0.177566   0.052515
    21  H    0.017891   0.019423
    22  H    0.050226   0.159029
    23  H   -0.313911   0.490726
    24  H   -0.126796   0.297713
    25  H    0.194121  -0.037205
    26  H   -0.371705   0.531560
    27  H   -0.375303   0.535490
    28  H   -0.670764   0.840993
 Sum of Mulliken charges =  -1.00000   1.00000

 Dipole moment (field-independent basis, Debye):
    X=             -4.3374    Y=             -0.2096    Z=              2.2469  Tot=              4.8893
 Quadrupole moment (field-independent basis, Debye-Ang):
   XX=           -205.8531   YY=           -115.4584   ZZ=           -106.1204
   XY=              5.7963   XZ=             -3.9797   YZ=              1.3003

 Summary of Natural Population Analysis:

                                       Natural Population
                Natural  -----------------------------------------------
    Atom  No    Charge         Core      Valence    Rydberg      Total
 -----------------------------------------------------------------------
      C    1   -0.27927      0.99962     2.27397    0.00568     3.27927
      C    2   -0.03413      0.99951     2.02251    0.01211     3.03413
      C    3   -0.18043      0.99957     2.17067    0.01018     3.18043
      C    4   -0.15510      0.99954     2.14542    0.01014     3.15510
      C    5    0.24225      0.99968     1.73760    0.02047     2.75775
      O    6   -0.26374      0.99988     3.25725    0.00660     4.26374
      C    7   -0.00582      0.99948     1.99551    0.01083     3.00582
      C    8   -0.11645      0.99947     2.10784    0.00914     3.11645
      C    9    0.16549      0.99939     1.82164    0.01348     2.83451
      C   10   -0.14502      0.99952     2.13648    0.00903     3.14502
      C   11   -0.09037      0.99958     2.08040    0.01039     3.09037
      C   12   -0.11531      0.99951     2.10698    0.00882     3.11531
      O   13   -0.27247      0.99986     3.26236    0.01025     4.27247
      C   14   -0.10045      0.99960     2.09172    0.00913     3.10045
      H   15    0.10117      0.00000     0.39806    0.00077     0.39883
      H   16    0.10267      0.00000     0.39653    0.00079     0.39733
      H   17    0.09966      0.00000     0.39939    0.00096     0.40034
      H   18    0.10849      0.00000     0.39064    0.00087     0.39151
      H   19    0.10335      0.00000     0.39503    0.00162     0.39665
      H   20    0.11119      0.00000     0.38686    0.00195     0.38881
      H   21    0.03852      0.00000     0.45917    0.00232     0.46148
      H   22    0.10718      0.00000     0.39100    0.00182     0.39282
      H   23    0.10859      0.00000     0.38978    0.00162     0.39141
      H   24    0.09964      0.00000     0.39956    0.00080     0.40036
      H   25    0.10276      0.00000     0.39631    0.00093     0.39724
      H   26    0.08610      0.00000     0.41163    0.00226     0.41390
      H   27    0.08587      0.00000     0.41162    0.00251     0.41413
      H   28    0.09563      0.00000     0.40250    0.00187     0.40437
 =======================================================================
   * Total *   -0.00000     13.99421    36.83845    0.16733    51.00000

 Normal termination of Gaussian 16 at Thu Dec 10 09:51:20 2020.
