 Gaussian 16, Revision A.03,

 -----------------------------------------------------------
 # opt freq B3LYP/6-31G(d) empiricaldispersion=gd3bj scf=xqc
 -----------------------------------------------------------

 -----------------------------
 CID_67469329_JID_759_neutraal
 -----------------------------
 Symbolic Z-matrix:
 Charge =  0 Multiplicity = 1

 SCF Done:  E(RB3LYP) =  -439.048075113     A.U. after   15 cycles
 SCF Done:  E(RB3LYP) =  -439.053030195     A.U. after   13 cycles
 SCF Done:  E(RB3LYP) =  -439.053287380     A.U. after   11 cycles
 SCF Done:  E(RB3LYP) =  -439.053322608     A.U. after   10 cycles
 SCF Done:  E(RB3LYP) =  -439.053325259     A.U. after    8 cycles
 Optimization completed.
    -- Stationary point found.
 Normal termination of Gaussian 16 at Tue Dec  8 12:27:35 2020.

 --------------------------------------------------------------------
 #N Geom=AllCheck Guess=TCheck SCRF=Check GenChk RB3LYP/6-31G(d) Freq
 --------------------------------------------------------------------

 Structure from the checkpoint file:  "JID_759.chk"
 -----------------------------
 CID_67469329_JID_759_neutraal
 -----------------------------
 Charge =  0 Multiplicity = 1

 SCF Done:  E(RB3LYP) =  -439.053325259     A.U. after    1 cycles

  Exact polarizability: 153.505   7.298  92.778  -0.001  -0.001  36.836
 Approx polarizability: 299.635  27.718 154.351  -0.009  -0.007  57.108

                      1                      2                      3
                      A                      A                      A
 Frequencies --     90.2491               170.0430               229.3207
 Red. masses --      4.4339                 2.8395                 3.8131
 Frc consts  --      0.0213                 0.0484                 0.1181
 IR Inten    --      0.1371                 1.8557                 1.9514

                      4                      5                      6
                      A                      A                      A
 Frequencies --    311.4253               350.6957               455.6193
 Red. masses --      6.3369                 2.7022                 1.2263
 Frc consts  --      0.3621                 0.1958                 0.1500
 IR Inten    --      3.3680                 6.2387               116.0239

                      7                      8                      9
                      A                      A                      A
 Frequencies --    465.7869               479.1986               537.4302
 Red. masses --      2.3146                 7.7371                 4.2081
 Frc consts  --      0.2959                 1.0468                 0.7161
 IR Inten    --      0.7504                12.6614                 7.3682

                     10                     11                     12
                      A                      A                      A
 Frequencies --    577.5440               657.8682               672.1033
 Red. masses --      6.1781                 3.3731                 6.7924
 Frc consts  --      1.2142                 0.8601                 1.8078
 IR Inten    --      5.8409                 0.9233                 1.2999

                     13                     14                     15
                      A                      A                      A
 Frequencies --    704.2816               743.6253               799.9114
 Red. masses --      1.4375                 2.9127                 3.9333
 Frc consts  --      0.4201                 0.9490                 1.4828
 IR Inten    --     25.9188                12.7921                17.6769

                     16                     17                     18
                      A                      A                      A
 Frequencies --    841.2398               879.4033               894.0484
 Red. masses --      1.6277                 1.4492                 5.1629
 Frc consts  --      0.6787                 0.6603                 2.4315
 IR Inten    --     40.5308                 4.5935                 9.2863

                     19                     20                     21
                      A                      A                      A
 Frequencies --    937.0506               950.1264               960.2464
 Red. masses --      3.7234                 2.1239                 2.3478
 Frc consts  --      1.9263                 1.1297                 1.2755
 IR Inten    --     18.0291                 0.0378                34.3692

                     22                     23                     24
                      A                      A                      A
 Frequencies --    980.6970              1038.9461              1161.5636
 Red. masses --      1.2443                 2.4070                 3.1525
 Frc consts  --      0.7051                 1.5308                 2.5061
 IR Inten    --      0.0880                 0.3557                28.4054

                     25                     26                     27
                      A                      A                      A
 Frequencies --   1187.8725              1201.9812              1214.0968
 Red. masses --      1.4647                 1.1062                 1.0994
 Frc consts  --      1.2177                 0.9416                 0.9548
 IR Inten    --      8.4192                 1.0099                 1.1299

                     28                     29                     30
                      A                      A                      A
 Frequencies --   1272.0578              1302.0092              1353.7681
 Red. masses --      1.5088                 3.8914                 1.7724
 Frc consts  --      1.4385                 3.8867                 1.9138
 IR Inten    --     15.3593                24.5336                 0.6988

                     31                     32                     33
                      A                      A                      A
 Frequencies --   1386.1343              1427.1191              1459.3437
 Red. masses --      3.5069                 1.7226                 1.5308
 Frc consts  --      3.9700                 2.0670                 1.9208
 IR Inten    --     51.5607                 1.6384                 2.9672

                     34                     35                     36
                      A                      A                      A
 Frequencies --   1467.1613              1646.9813              1652.6522
 Red. masses --      1.3568                 7.0201                 8.7004
 Frc consts  --      1.7208                11.2194                14.0008
 IR Inten    --     15.4341                 5.7833                71.9301

                     37                     38                     39
                      A                      A                      A
 Frequencies --   1734.1107              1818.7898              3013.3768
 Red. masses --      6.3477                10.4573                 1.0610
 Frc consts  --     11.2467                20.3814                 5.6763
 IR Inten    --     48.7032               635.5588                 8.8318

                     40                     41                     42
                      A                      A                      A
 Frequencies --   3029.3413              3185.6774              3201.4073
 Red. masses --      1.0986                 1.0853                 1.0915
 Frc consts  --      5.9401                 6.4897                 6.5913
 IR Inten    --      7.4521                 7.1995                27.6306

                     43                     44                     45
                      A                      A                      A
 Frequencies --   3210.7130              3263.3063              3661.0549
 Red. masses --      1.0964                 1.0967                 1.0797
 Frc consts  --      6.6591                 6.8809                 8.5261
 IR Inten    --     18.9905                 1.2890                54.1554

 - Thermochemistry -
 -------------------
 Temperature   298.150 Kelvin.  Pressure   1.00000 Atm.
 Atom     1 has atomic number  6 and mass  12.00000

 Molecular mass:   133.05276 amu.
 Principal axes and moments of inertia in atomic units:
                           1         2         3
     Eigenvalues --   496.089731794.393292279.57730
           X            0.99998  -0.00570   0.00000
           Y            0.00570   0.99998   0.00001
           Z           -0.00000  -0.00001   1.00000
 This molecule is an asymmetric top.
 Rotational symmetry number  1.
 Warning -- assumption of classical behavior for rotation
           may cause significant error
 Rotational temperatures (Kelvin)      0.17459     0.04827     0.03800
 Rotational constants (GHZ):           3.63793     1.00577     0.79170
 Zero-point vibrational energy     350370.5 (Joules/Mol)
                                   83.74057 (Kcal/Mol)
 Warning -- explicit consideration of  10 degrees of freedom as
           vibrations may cause significant error
 Vibrational temperatures:    129.85   244.65   329.94   448.07   504.57
          (Kelvin)            655.53   670.16   689.46   773.24   830.96
                              946.53   967.01  1013.30  1069.91  1150.89
                             1210.36  1265.27  1286.34  1348.21  1367.02
                             1381.58  1411.00  1494.81  1671.23  1709.08
                             1729.38  1746.81  1830.21  1873.30  1947.77
                             1994.34  2053.31  2099.67  2110.92  2369.64
                             2377.80  2495.00  2616.83  4335.58  4358.55
                             4583.48  4606.11  4619.50  4695.17  5267.44

 Zero-point correction=                           0.133449 (Hartree/Particle)
 Thermal correction to Energy=                    0.141112
 Thermal correction to Enthalpy=                  0.142056
 Thermal correction to Gibbs Free Energy=         0.101072
 Sum of electronic and zero-point Energies=           -438.919876
 Sum of electronic and thermal Energies=              -438.912214
 Sum of electronic and thermal Enthalpies=            -438.911270
 Sum of electronic and thermal Free Energies=         -438.952253

                     E (Thermal)             CV                S
                      KCal/Mol        Cal/Mol-Kelvin    Cal/Mol-Kelvin
 Total                   88.549             30.518             86.257
 Electronic               0.000              0.000              0.000
 Translational            0.889              2.981             40.569
 Rotational               0.889              2.981             29.097
 Vibrational             86.771             24.557             16.591
 Vibration     1          0.602              1.956              3.655
 Vibration     2          0.625              1.879              2.435
 Vibration     3          0.652              1.796              1.884
 Vibration     4          0.700              1.652              1.355
 Vibration     5          0.728              1.574              1.163
 Vibration     6          0.814              1.348              0.779
 Vibration     7          0.823              1.326              0.749
 Vibration     8          0.836              1.296              0.712
 Vibration     9          0.892              1.167              0.571
 Vibration    10          0.934              1.080              0.490

                           ! Non-Optimized Parameters !
 Normal termination of Gaussian 16 at Tue Dec  8 12:32:29 2020.

 ----------------------------------------------------------------------
 # B3LYP/6-311++G(d,p) empiricaldispersion=gd3bj scf=xqc pop=npa geom=c
 heck
 ----------------------------------------------------------------------

 -------------------------------------
 CID_67469329_JID_759_Energie_neutraal
 -------------------------------------
 Structure from the checkpoint file:  "JID_759.chk"
 Charge =  0 Multiplicity = 1

 SCF Done:  E(RB3LYP) =  -439.176116746     A.U. after   15 cycles
 Normal termination of Gaussian 16 at Tue Dec  8 12:40:51 2020.

 ----------------------------------------------------------------------
 # B3LYP/6-311++G(d,p) empiricaldispersion=gd3bj scf=xqc pop=npa geom=c
 heck
 ----------------------------------------------------------------------

 -----------------------------------
 CID_67469329_JID_759_Energie_kation
 -----------------------------------
 Structure from the checkpoint file:  "JID_759.chk"
 Charge =  1 Multiplicity = 2

 SCF Done:  E(UB3LYP) =  -438.889603769     A.U. after   22 cycles
 Normal termination of Gaussian 16 at Tue Dec  8 12:49:37 2020.
 Gaussian 16:  ES64L-G16RevA.03 25-Dec-2016

 ----------------------------------------------------------------------
 # B3LYP/6-311++G(d,p) empiricaldispersion=gd3bj scf=xqc pop=npa geom=c
 heck
 ----------------------------------------------------------------------

 ----------------------------------
 CID_67469329_JID_759_Energie_anion
 ----------------------------------
 Structure from the checkpoint file:  "JID_759.chk"
 Charge = -1 Multiplicity = 2

                         Standard orientation:
 ---------------------------------------------------------------------
 Center     Atomic      Atomic             Coordinates (Angstroms)
 Number     Number       Type             X           Y           Z
 ---------------------------------------------------------------------
      1          6           0       -1.424906    1.454509    0.000367
      2          6           0       -2.611852    0.527583   -0.000335
      3          6           0       -2.482670   -0.812857   -0.000316
      4          6           0       -1.187339   -1.474652    0.000077
      5          6           0       -0.061878   -0.719974    0.000268
      6          6           0       -0.101180    0.746903    0.000076
      7          6           0        1.171962    1.206203   -0.000186
      8          6           0        2.104446    0.055124    0.000016
      9          8           0        3.323090    0.026789   -0.000323
     10          7           0        1.270896   -1.079851    0.000345
     11          1           0       -1.486402    2.125156    0.871372
     12          1           0       -1.486199    2.126761   -0.869368
     13          1           0       -3.595802    0.987499   -0.000630
     14          1           0       -3.368427   -1.442079   -0.000652
     15          1           0       -1.139992   -2.559435    0.000094
     16          1           0        1.520833    2.230221   -0.000478
     17          1           0        1.635496   -2.020508    0.000021
 ---------------------------------------------------------------------

 SCF Done:  E(UB3LYP) =  -439.198535811     A.U. after   20 cycles

 The electronic state is 2-A.
 Alpha  occ. eigenvalues --  -18.91487 -14.18256 -10.09086 -10.03865 -10.03085
 Alpha  occ. eigenvalues --  -10.01827 -10.00973 -10.00716 -10.00126  -9.98973
 Alpha  occ. eigenvalues --   -0.86881  -0.78991  -0.67655  -0.62186  -0.58375
 Alpha  occ. eigenvalues --   -0.54436  -0.46084  -0.42690  -0.41935  -0.37786
 Alpha  occ. eigenvalues --   -0.33282  -0.29402  -0.29294  -0.28344  -0.27089
 Alpha  occ. eigenvalues --   -0.26255  -0.25320  -0.23969  -0.20111  -0.18833
 Alpha  occ. eigenvalues --   -0.18455  -0.14290  -0.09980  -0.09334  -0.04980
 Alpha  occ. eigenvalues --    0.04202
 Alpha virt. eigenvalues --    0.09321   0.10363   0.11077   0.12309   0.12858
 Alpha virt. eigenvalues --    0.13303   0.14857   0.16168   0.16897   0.18042
 Alpha virt. eigenvalues --    0.18436   0.19126   0.20450   0.20890   0.21382

  Beta  occ. eigenvalues --  -18.91181 -14.18330 -10.08957 -10.03738 -10.03150
  Beta  occ. eigenvalues --  -10.01896 -10.00686 -10.00389  -9.99830  -9.98830
  Beta  occ. eigenvalues --   -0.86431  -0.78756  -0.67229  -0.61742  -0.57919
  Beta  occ. eigenvalues --   -0.54128  -0.45491  -0.42401  -0.41494  -0.37581
  Beta  occ. eigenvalues --   -0.32963  -0.29031  -0.28552  -0.28156  -0.26798
  Beta  occ. eigenvalues --   -0.25530  -0.25091  -0.23680  -0.19929  -0.18140
  Beta  occ. eigenvalues --   -0.17409  -0.13030  -0.09047  -0.08970  -0.03075
  Beta virt. eigenvalues --    0.09289   0.10108   0.10328   0.11050   0.12253
  Beta virt. eigenvalues --    0.13011   0.13284   0.14823   0.16832   0.17464
  Beta virt. eigenvalues --    0.17998   0.18603   0.19280   0.20426   0.20882

 Mulliken charges and spin densities:
               1          2
     1  C   -1.181096  -0.086702
     2  C    0.061853   0.245284
     3  C   -0.369852  -0.061146
     4  C   -0.519869   0.307479
     5  C   -0.515187  -0.005275
     6  C    1.488205   0.199134
     7  C   -0.061175   0.167118
     8  C   -0.015847   0.092026
     9  O   -0.492207   0.101467
    10  N   -0.223819  -0.036845
    11  H    0.082736   0.061999
    12  H    0.082978   0.061595
    13  H    0.117356  -0.016005
    14  H    0.086169   0.001078
    15  H    0.093193  -0.019953
    16  H    0.107003  -0.011294
    17  H    0.259558   0.000039
 Sum of Mulliken charges =  -1.00000   1.00000

 Dipole moment (field-independent basis, Debye):
    X=             -3.5625    Y=             -0.8924    Z=             -0.0001  Tot=              3.6725
 Quadrupole moment (field-independent basis, Debye-Ang):
   XX=            -99.5994   YY=            -63.0334   ZZ=            -67.7208
   XY=             -4.0076   XZ=              0.0021   YZ=             -0.0004

 Summary of Natural Population Analysis:

                                       Natural Population
                Natural  -----------------------------------------------
    Atom  No    Charge         Core      Valence    Rydberg      Total
 -----------------------------------------------------------------------
      C    1   -0.22418      0.99960     2.21686    0.00772     3.22418
      C    2   -0.03028      0.99957     2.02057    0.01014     3.03028
      C    3   -0.13340      0.99955     2.12361    0.01024     3.13340
      C    4   -0.07887      0.99951     2.06892    0.01044     3.07887
      C    5    0.10146      0.99947     1.88883    0.01023     2.89854
      C    6    0.05189      0.99949     1.94019    0.00842     2.94811
      C    7   -0.14181      0.99944     2.13330    0.00908     3.14181
      C    8    0.33634      0.99968     1.64043    0.02355     2.66366
      O    9   -0.31010      0.99987     3.30321    0.00701     4.31010
      N   10   -0.32757      0.99964     2.81914    0.00879     3.82757
      H   11    0.11132      0.00000     0.38730    0.00138     0.38868
      H   12    0.11127      0.00000     0.38735    0.00138     0.38873
      H   13    0.07936      0.00000     0.41948    0.00116     0.42064
      H   14    0.08771      0.00000     0.41114    0.00115     0.41229
      H   15    0.08476      0.00000     0.41361    0.00163     0.41524
      H   16    0.09276      0.00000     0.40624    0.00100     0.40724
      H   17    0.18934      0.00000     0.30862    0.00205     0.31066
 =======================================================================
   * Total *    0.00000      9.99583    24.88879    0.11538    35.00000

 Normal termination of Gaussian 16 at Tue Dec  8 13:04:42 2020.
