 Gaussian 16, Revision A.03,

 -----------------------------------------------------------
 # opt freq B3LYP/6-31G(d) empiricaldispersion=gd3bj scf=xqc
 -----------------------------------------------------------

 ------------------------------
 CID_65844477_JID_7639_neutraal
 ------------------------------
 Symbolic Z-matrix:
 Charge =  0 Multiplicity = 1

 SCF Done:  E(RB3LYP) =  -1084.15575650     A.U. after   15 cycles
 SCF Done:  E(RB3LYP) =  -1084.16197198     A.U. after   13 cycles
 SCF Done:  E(RB3LYP) =  -1084.16294918     A.U. after   12 cycles
 SCF Done:  E(RB3LYP) =  -1084.16319339     A.U. after   12 cycles
 SCF Done:  E(RB3LYP) =  -1084.16321865     A.U. after   12 cycles
 SCF Done:  E(RB3LYP) =  -1084.16329451     A.U. after   11 cycles
 SCF Done:  E(RB3LYP) =  -1084.16331884     A.U. after   10 cycles
 SCF Done:  E(RB3LYP) =  -1084.16333750     A.U. after   10 cycles
 SCF Done:  E(RB3LYP) =  -1084.16334399     A.U. after   10 cycles
 SCF Done:  E(RB3LYP) =  -1084.16334713     A.U. after    9 cycles
 SCF Done:  E(RB3LYP) =  -1084.16425349     A.U. after    7 cycles
 SCF Done:  E(RB3LYP) =  -1084.16425351     A.U. after    6 cycles
 SCF Done:  E(RB3LYP) =  -1084.16425351     A.U. after    7 cycles
 SCF Done:  E(RB3LYP) =  -1084.16425352     A.U. after    7 cycles
 Optimization completed.
    -- Stationary point found.
 Normal termination of Gaussian 16 at Fri Dec 11 13:21:51 2020.

 --------------------------------------------------------------------
 #N Geom=AllCheck Guess=TCheck SCRF=Check GenChk RB3LYP/6-31G(d) Freq
 --------------------------------------------------------------------

 Structure from the checkpoint file:  "JID_7639.chk"
 ------------------------------
 CID_65844477_JID_7639_neutraal
 ------------------------------
 Charge =  0 Multiplicity = 1

 SCF Done:  E(RB3LYP) =  -1084.16425352     A.U. after    1 cycles

  Exact polarizability: 191.210   5.946 164.751 -25.062   7.377 126.712
 Approx polarizability: 273.984  14.570 289.538 -52.659  21.505 211.881

                      1                      2                      3
                      A                      A                      A
 Frequencies --     12.4040                27.9162                42.6872
 Red. masses --      4.6049                 2.5245                 4.1620
 Frc consts  --      0.0004                 0.0012                 0.0045
 IR Inten    --      0.0056                 0.2198                 0.0697

                      4                      5                      6
                      A                      A                      A
 Frequencies --     64.9111                80.5382               100.9682
 Red. masses --      4.6533                 5.9796                 4.2268
 Frc consts  --      0.0116                 0.0229                 0.0254
 IR Inten    --      0.4717                 0.4632                 0.9862

                      7                      8                      9
                      A                      A                      A
 Frequencies --    141.4526               153.6438               181.1625
 Red. masses --      2.2415                 1.8597                 2.5972
 Frc consts  --      0.0264                 0.0259                 0.0502
 IR Inten    --      3.1918                 0.4476                 0.0692

                     10                     11                     12
                      A                      A                      A
 Frequencies --    205.1069               217.4386               265.7790
 Red. masses --      1.3978                 2.3338                 4.0491
 Frc consts  --      0.0346                 0.0650                 0.1685
 IR Inten    --      1.3653                 5.3735                 4.2135

                     13                     14                     15
                      A                      A                      A
 Frequencies --    273.9438               296.1747               317.7711
 Red. masses --      3.9358                 2.2240                 2.7672
 Frc consts  --      0.1740                 0.1149                 0.1646
 IR Inten    --      0.6776                 1.4885                 3.8966

                     16                     17                     18
                      A                      A                      A
 Frequencies --    341.5453               373.6769               403.5750
 Red. masses --      3.2119                 3.8595                 1.1991
 Frc consts  --      0.2208                 0.3175                 0.1151
 IR Inten    --      1.6129                 1.2531                28.7019

                     19                     20                     21
                      A                      A                      A
 Frequencies --    436.9299               462.0473               473.0071
 Red. masses --      4.0360                 3.3359                 3.3502
 Frc consts  --      0.4540                 0.4196                 0.4416
 IR Inten    --      3.6341                16.1396                 2.4464

                     22                     23                     24
                      A                      A                      A
 Frequencies --    490.0309               578.8381               591.2050
 Red. masses --      3.3862                 4.7217                 4.9230
 Frc consts  --      0.4791                 0.9321                 1.0138
 IR Inten    --      2.2237                12.2193                 4.8412

                     25                     26                     27
                      A                      A                      A
 Frequencies --    598.7988               630.6728               667.7184
 Red. masses --      6.4472                 5.1538                 2.9941
 Frc consts  --      1.3620                 1.2078                 0.7865
 IR Inten    --      7.1008                 4.5815                77.1030

                     28                     29                     30
                      A                      A                      A
 Frequencies --    674.5623               700.7948               708.0591
 Red. masses --      1.7021                 5.8472                 6.7945
 Frc consts  --      0.4563                 1.6919                 2.0070
 IR Inten    --    158.0952                 3.1058                18.8633

                     31                     32                     33
                      A                      A                      A
 Frequencies --    727.2842               758.9863               792.7690
 Red. masses --      2.6831                 3.9119                 1.4199
 Frc consts  --      0.8362                 1.3277                 0.5258
 IR Inten    --      3.8614                 4.5401                 7.8670

                     34                     35                     36
                      A                      A                      A
 Frequencies --    804.2215               810.7048               839.9668
 Red. masses --      1.4837                 2.7070                 1.3127
 Frc consts  --      0.5654                 1.0482                 0.5457
 IR Inten    --      8.3284                 4.8360                31.1821

                     37                     38                     39
                      A                      A                      A
 Frequencies --    860.9665               906.3334               913.2661
 Red. masses --      5.2945                 1.7625                 1.4458
 Frc consts  --      2.3123                 0.8530                 0.7105
 IR Inten    --      5.7332                 1.6799                 2.6865

                     40                     41                     42
                      A                      A                      A
 Frequencies --    963.3303               973.8327              1036.2616
 Red. masses --      1.3699                 2.4370                 3.0286
 Frc consts  --      0.7490                 1.3617                 1.9162
 IR Inten    --      0.5534                 5.9896                 8.5788

                     43                     44                     45
                      A                      A                      A
 Frequencies --   1064.8797              1080.6803              1088.6030
 Red. masses --      1.6810                 2.7523                 2.0269
 Frc consts  --      1.1231                 1.8938                 1.4152
 IR Inten    --      6.7590                 5.1663                 3.6692

                     46                     47                     48
                      A                      A                      A
 Frequencies --   1091.2349              1110.5189              1126.3765
 Red. masses --      2.1176                 1.7775                 2.2125
 Frc consts  --      1.4857                 1.2916                 1.6538
 IR Inten    --      3.0701                 6.8869                 6.4379

                     49                     50                     51
                      A                      A                      A
 Frequencies --   1149.2509              1162.6937              1181.0309
 Red. masses --      1.3608                 1.2963                 1.8344
 Frc consts  --      1.0590                 1.0325                 1.5075
 IR Inten    --     12.8777                 1.7173                 8.0248

                     52                     53                     54
                      A                      A                      A
 Frequencies --   1235.4415              1243.4866              1279.4010
 Red. masses --      1.4506                 1.5189                 1.9587
 Frc consts  --      1.3045                 1.3838                 1.8890
 IR Inten    --      3.4162                 5.9933                32.4635

                     55                     56                     57
                      A                      A                      A
 Frequencies --   1286.6607              1297.6336              1316.1410
 Red. masses --      1.7538                 1.3070                 5.3777
 Frc consts  --      1.7106                 1.2966                 5.4885
 IR Inten    --      7.5208                 1.1627                23.8287

                     58                     59                     60
                      A                      A                      A
 Frequencies --   1334.0737              1363.8568              1368.8107
 Red. masses --      3.5334                 1.5269                 1.4776
 Frc consts  --      3.7052                 1.6734                 1.6312
 IR Inten    --      9.4295                24.4681                12.9908

                     61                     62                     63
                      A                      A                      A
 Frequencies --   1434.1173              1438.6087              1468.9864
 Red. masses --      1.2473                 4.0640                 2.4461
 Frc consts  --      1.5115                 4.9555                 3.1100
 IR Inten    --      1.3494                22.2411                43.3485

                     64                     65                     66
                      A                      A                      A
 Frequencies --   1476.2760              1495.6394              1507.0568
 Red. masses --      1.3415                 2.8102                 1.2801
 Frc consts  --      1.7225                 3.7037                 1.7129
 IR Inten    --      4.7296                15.2650                 7.5817

                     67                     68                     69
                      A                      A                      A
 Frequencies --   1508.9450              1511.4888              1514.0707
 Red. masses --      1.0789                 1.2423                 1.7723
 Frc consts  --      1.4474                 1.6722                 2.3937
 IR Inten    --     13.7808                 1.7253                11.3561

                     70                     71                     72
                      A                      A                      A
 Frequencies --   1527.0926              1529.6640              1538.7145
 Red. masses --      1.0449                 2.3753                 1.1649
 Frc consts  --      1.4356                 3.2746                 1.6250
 IR Inten    --      7.5139                24.0505                 7.0800

                     73                     74                     75
                      A                      A                      A
 Frequencies --   1555.5809              1597.1573              1603.1665
 Red. masses --      1.3350                 5.8023                 5.9049
 Frc consts  --      1.9033                 8.7206                 8.9416
 IR Inten    --      9.8691                21.3877                 8.6073

                     76                     77                     78
                      A                      A                      A
 Frequencies --   1623.4280              1674.0916              3046.3401
 Red. masses --      3.9737                 1.3189                 1.0654
 Frc consts  --      6.1704                 2.1777                 5.8251
 IR Inten    --      6.4552               146.2275                34.1129

                     79                     80                     81
                      A                      A                      A
 Frequencies --   3048.8359              3083.0780              3096.2243
 Red. masses --      1.0348                 1.0336                 1.0983
 Frc consts  --      5.6673                 5.7884                 6.2033
 IR Inten    --     31.1699                26.6942                 2.0508

                     82                     83                     84
                      A                      A                      A
 Frequencies --   3097.7433              3118.5617              3125.3448
 Red. masses --      1.0588                 1.1019                 1.1035
 Frc consts  --      5.9864                 6.3141                 6.3508
 IR Inten    --     12.7282                55.4747                37.1735

                     85                     86                     87
                      A                      A                      A
 Frequencies --   3144.0376              3149.8563              3150.7765
 Red. masses --      1.0893                 1.1075                 1.1063
 Frc consts  --      6.3439                 6.4738                 6.4708
 IR Inten    --     36.9176                 3.2926                11.5237

                     88                     89                     90
                      A                      A                      A
 Frequencies --   3186.0209              3190.3161              3225.6129
 Red. masses --      1.1030                 1.0897                 1.0941
 Frc consts  --      6.5963                 6.5346                 6.7073
 IR Inten    --      5.6760                15.1330                 5.0792

                     91                     92                     93
                      A                      A                      A
 Frequencies --   3263.0237              3524.2561              3635.6922
 Red. masses --      1.0969                 1.0489                 1.0971
 Frc consts  --      6.8810                 7.6754                 8.5439
 IR Inten    --      2.0474                17.4555                23.4853

 - Thermochemistry -
 -------------------
 Temperature   298.150 Kelvin.  Pressure   1.00000 Atm.
 Atom     1 has atomic number  6 and mass  12.00000

 Molecular mass:   248.10957 amu.
 Principal axes and moments of inertia in atomic units:
                           1         2         3
     Eigenvalues --  2571.226815989.837746695.89761
           X            0.99955   0.01597  -0.02535
           Y           -0.01695   0.99910  -0.03895
           Z            0.02471   0.03936   0.99892
 This molecule is an asymmetric top.
 Rotational symmetry number  1.
 Warning -- assumption of classical behavior for rotation
           may cause significant error
 Rotational temperatures (Kelvin)      0.03369     0.01446     0.01294
 Rotational constants (GHZ):           0.70190     0.30130     0.26953
 Zero-point vibrational energy     716394.8 (Joules/Mol)
                                  171.22247 (Kcal/Mol)
 Warning -- explicit consideration of  25 degrees of freedom as
           vibrations may cause significant error
 Vibrational temperatures:     17.85    40.17    61.42    93.39   115.88
          (Kelvin)            145.27   203.52   221.06   260.65   295.10
                              312.85   382.40   394.14   426.13   457.20
                              491.41   537.64   580.65   628.64   664.78
                              680.55   705.05   832.82   850.61   861.54
                              907.40   960.70   970.54  1008.29  1018.74
                             1046.40  1092.01  1140.62  1157.10  1166.42
                             1208.52  1238.74  1304.01  1313.99  1386.02
                             1401.13  1490.95  1532.12  1554.86  1566.26
                             1570.04  1597.79  1620.60  1653.52  1672.86
                             1699.24  1777.52  1789.10  1840.77  1851.22
                             1867.01  1893.63  1919.43  1962.29  1969.41
                             2063.37  2069.84  2113.54  2124.03  2151.89
                             2168.32  2171.04  2174.70  2178.41  2197.15
                             2200.85  2213.87  2238.13  2297.95  2306.60
                             2335.75  2408.64  4383.00  4386.59  4435.86
                             4454.78  4456.96  4486.91  4496.67  4523.57
                             4531.94  4533.26  4583.97  4590.15  4640.94
                             4694.76  5070.62  5230.95

 Zero-point correction=                           0.272860 (Hartree/Particle)
 Thermal correction to Energy=                    0.289661
 Thermal correction to Enthalpy=                  0.290605
 Thermal correction to Gibbs Free Energy=         0.226087
 Sum of electronic and zero-point Energies=          -1083.891393
 Sum of electronic and thermal Energies=             -1083.874592
 Sum of electronic and thermal Enthalpies=           -1083.873648
 Sum of electronic and thermal Free Energies=        -1083.938167

                     E (Thermal)             CV                S
                      KCal/Mol        Cal/Mol-Kelvin    Cal/Mol-Kelvin
 Total                  181.765             62.955            135.790
 Electronic               0.000              0.000              0.000
 Translational            0.889              2.981             42.427
 Rotational               0.889              2.981             33.000
 Vibrational            179.988             56.993             60.363
 Vibration     1          0.593              1.987              7.583
 Vibration     2          0.593              1.984              5.972
 Vibration     3          0.595              1.980              5.130
 Vibration     4          0.597              1.971              4.302
 Vibration     5          0.600              1.962              3.878
 Vibration     6          0.604              1.948              3.436
 Vibration     7          0.615              1.912              2.784
 Vibration     8          0.619              1.899              2.627
 Vibration     9          0.630              1.865              2.316
 Vibration    10          0.640              1.833              2.087
 Vibration    11          0.646              1.814              1.980
 Vibration    12          0.672              1.736              1.624
 Vibration    13          0.676              1.721              1.571
 Vibration    14          0.690              1.681              1.438
 Vibration    15          0.704              1.640              1.322
 Vibration    16          0.721              1.592              1.205
 Vibration    17          0.745              1.526              1.065
 Vibration    18          0.769              1.462              0.950
 Vibration    19          0.797              1.390              0.836
 Vibration    20          0.820              1.334              0.760
 Vibration    21          0.830              1.310              0.729
 Vibration    22          0.846              1.272              0.684
 Vibration    23          0.935              1.077              0.488
 Vibration    24          0.949              1.051              0.465
 Vibration    25          0.957              1.034              0.452

 Optimization completed.
    -- Stationary point found.
 Normal termination of Gaussian 16 at Fri Dec 11 13:34:07 2020.

 ----------------------------------------------------------------------
 # B3LYP/6-311++G(d,p) empiricaldispersion=gd3bj scf=xqc pop=npa geom=c
 heck
 ----------------------------------------------------------------------

 --------------------------------------
 CID_65844477_JID_7639_Energie_neutraal
 --------------------------------------
 Structure from the checkpoint file:  "JID_7639.chk"
 Charge =  0 Multiplicity = 1

 SCF Done:  E(RB3LYP) =  -1084.37743662     A.U. after   16 cycles
 Normal termination of Gaussian 16 at Fri Dec 11 13:39:25 2020.

 ----------------------------------------------------------------------
 # B3LYP/6-311++G(d,p) empiricaldispersion=gd3bj scf=xqc pop=npa geom=c
 heck
 ----------------------------------------------------------------------

 ------------------------------------
 CID_65844477_JID_7639_Energie_kation
 ------------------------------------
 Structure from the checkpoint file:  "JID_7639.chk"
 Charge =  1 Multiplicity = 2

 SCF Done:  E(UB3LYP) =  -1084.08576475     A.U. after   33 cycles
 SCF Done:  E(UB3LYP) =  -1084.08576475     a.u. after    2 cycles
 Normal termination of Gaussian 16 at Fri Dec 11 14:07:06 2020.
 Gaussian 16:  ES64L-G16RevA.03 25-Dec-2016

 ----------------------------------------------------------------------
 # B3LYP/6-311++G(d,p) empiricaldispersion=gd3bj scf=xqc pop=npa geom=c
 heck
 ----------------------------------------------------------------------

 -----------------------------------
 CID_65844477_JID_7639_Energie_anion
 -----------------------------------
 Structure from the checkpoint file:  "JID_7639.chk"
 Charge = -1 Multiplicity = 2

                         Standard orientation:
 ---------------------------------------------------------------------
 Center     Atomic      Atomic             Coordinates (Angstroms)
 Number     Number       Type             X           Y           Z
 ---------------------------------------------------------------------
      1          6           0        4.329014    1.106217   -1.290153
      2          6           0        4.260744    0.454442    0.100414
      3          6           0        2.895067   -0.078720    0.416039
      4          7           0        2.104038    0.552375    1.290279
      5          7           0        0.950097   -0.153880    1.310070
      6          6           0        0.987137   -1.230248    0.466090
      7          6           0        2.239434   -1.203904   -0.129990
      8          6           0       -0.149628   -2.156958    0.234278
      9         16           0       -1.149206   -1.727847   -1.288101
     10          6           0       -1.662965   -0.082413   -0.823586
     11          6           0       -2.764585    0.108833    0.035444
     12          6           0       -3.101428    1.437533    0.358022
     13          7           0       -2.436001    2.505849   -0.072971
     14          6           0       -1.380405    2.307600   -0.875950
     15          6           0       -0.966859    1.039024   -1.276601
     16          7           0       -3.433720   -0.961253    0.613670
     17          6           0       -0.123326    0.327072    2.159488
     18          1           0        4.070356    0.386721   -2.075239
     19          1           0        5.335046    1.488070   -1.497390
     20          1           0        3.623856    1.941675   -1.357289
     21          1           0        4.997511   -0.357254    0.159011
     22          1           0        4.527447    1.187474    0.868913
     23          1           0        2.615953   -1.905237   -0.861469
     24          1           0        0.216301   -3.166527    0.031128
     25          1           0       -0.833635   -2.209481    1.083492
     26          1           0       -3.951682    1.625223    1.014901
     27          1           0       -0.847093    3.195606   -1.205512
     28          1           0       -0.102037    0.910399   -1.918244
     29          1           0       -4.372346   -0.757280    0.934452
     30          1           0       -3.378249   -1.819693    0.074734
     31          1           0        0.268176    0.489189    3.166486
     32          1           0       -0.516715    1.269156    1.769330
     33          1           0       -0.929677   -0.405006    2.194002
 ---------------------------------------------------------------------

 SCF Done:  E(UB3LYP) =  -1084.37676317     A.U. after   33 cycles
 SCF Done:  E(UB3LYP) =  -1084.37676317     a.u. after    1 cycles

 The electronic state is 2-A.
 Alpha  occ. eigenvalues --  -88.71889 -14.27072 -14.20739 -14.20502 -14.15737
 Alpha  occ. eigenvalues --  -10.09712 -10.09175 -10.08788 -10.08297 -10.08124
 Alpha  occ. eigenvalues --  -10.07803 -10.07212 -10.06065 -10.05980 -10.05931
 Alpha  occ. eigenvalues --  -10.04624 -10.03899  -7.80400  -5.76778  -5.76448
 Alpha  occ. eigenvalues --   -5.75806  -0.93176  -0.81689  -0.78607  -0.73794
 Alpha  occ. eigenvalues --   -0.70393  -0.67285  -0.67028  -0.62193  -0.61010
 Alpha  occ. eigenvalues --   -0.58535  -0.54796  -0.53285  -0.49659  -0.47798
 Alpha  occ. eigenvalues --   -0.46624  -0.43094  -0.40546  -0.39545  -0.38083
 Alpha  occ. eigenvalues --   -0.36566  -0.35633  -0.34890  -0.34535  -0.33039
 Alpha  occ. eigenvalues --   -0.32545  -0.31258  -0.30270  -0.29891  -0.29049
 Alpha  occ. eigenvalues --   -0.28753  -0.28352  -0.27398  -0.25680  -0.24949
 Alpha  occ. eigenvalues --   -0.24793  -0.24409  -0.21551  -0.21141  -0.17873
 Alpha  occ. eigenvalues --   -0.15021  -0.13166  -0.13052  -0.12119  -0.10971
 Alpha  occ. eigenvalues --   -0.09536   0.04681
 Alpha virt. eigenvalues --    0.06881   0.07309   0.08132   0.08896   0.09383
 Alpha virt. eigenvalues --    0.09791   0.10240   0.10891   0.11195   0.11457
 Alpha virt. eigenvalues --    0.12146   0.12454   0.12800   0.13289   0.13891

  Beta  occ. eigenvalues --  -88.71875 -14.27034 -14.20709 -14.20484 -14.15297
  Beta  occ. eigenvalues --  -10.09708 -10.09172 -10.08760 -10.08127 -10.08083
  Beta  occ. eigenvalues --  -10.07803 -10.07211 -10.05979 -10.05908 -10.05844
  Beta  occ. eigenvalues --  -10.04607 -10.03761  -7.80384  -5.76728  -5.76446
  Beta  occ. eigenvalues --   -5.75797  -0.93122  -0.81415  -0.78197  -0.73745
  Beta  occ. eigenvalues --   -0.70162  -0.67020  -0.66939  -0.61888  -0.60756
  Beta  occ. eigenvalues --   -0.58517  -0.54490  -0.53224  -0.49498  -0.47691
  Beta  occ. eigenvalues --   -0.46454  -0.43038  -0.40432  -0.39448  -0.37933
  Beta  occ. eigenvalues --   -0.36440  -0.35498  -0.34822  -0.34489  -0.32966
  Beta  occ. eigenvalues --   -0.32377  -0.31152  -0.30153  -0.29863  -0.28936
  Beta  occ. eigenvalues --   -0.28627  -0.27911  -0.27059  -0.25654  -0.24892
  Beta  occ. eigenvalues --   -0.24493  -0.24197  -0.21044  -0.20553  -0.17807
  Beta  occ. eigenvalues --   -0.13764  -0.12935  -0.12845  -0.11643  -0.10806
  Beta  occ. eigenvalues --   -0.08918
  Beta virt. eigenvalues --    0.06777   0.07451   0.08478   0.08899   0.09184
  Beta virt. eigenvalues --    0.09690   0.09987   0.10311   0.11006   0.11286
  Beta virt. eigenvalues --    0.11735   0.12424   0.12699   0.12917   0.13410

 Mulliken charges and spin densities:
               1          2
     1  C   -0.473732  -0.037070
     2  C   -0.624498   0.057092
     3  C    0.332679   0.151403
     4  N   -0.172218   0.000510
     5  N    0.233714   0.028300
     6  C   -0.647919   1.427610
     7  C   -0.113526  -0.380414
     8  C    0.923083  -2.151606
     9  S   -0.104885  -0.226303
    10  C    0.465549   0.394912
    11  C    0.021435  -0.064741
    12  C   -0.235485  -0.256978
    13  N   -0.139984   0.202694
    14  C   -0.570161  -0.089322
    15  C   -0.272280   0.306074
    16  N   -0.380015   0.095491
    17  C   -0.257300  -0.030510
    18  H    0.133854   0.005947
    19  H    0.097356   0.022486
    20  H    0.135617  -0.000973
    21  H    0.100659   0.021648
    22  H    0.144353   0.006489
    23  H    0.014236   0.124938
    24  H   -0.499382   0.741592
    25  H   -0.024961   0.198090
    26  H    0.070973   0.027423
    27  H    0.129126   0.000401
    28  H    0.132759   0.011708
    29  H    0.089468   0.149363
    30  H    0.111207   0.141308
    31  H    0.097742   0.083617
    32  H    0.204550  -0.006083
    33  H    0.077986   0.044908
 Sum of Mulliken charges =  -1.00000   1.00000

 Dipole moment (field-independent basis, Debye):
    X=              3.1876    Y=              0.1830    Z=              0.0789  Tot=              3.1938
 Quadrupole moment (field-independent basis, Debye-Ang):
   XX=           -144.3187   YY=           -153.8898   ZZ=           -129.1589
   XY=              7.4089   XZ=             -6.6379   YZ=              0.0806

 Summary of Natural Population Analysis:

                                       Natural Population
                Natural  -----------------------------------------------
    Atom  No    Charge         Core      Valence    Rydberg      Total
 -----------------------------------------------------------------------
      C    1   -0.28025      0.99967     2.27656    0.00402     3.28025
      C    2   -0.20103      0.99961     2.19371    0.00772     3.20103
      C    3    0.06631      0.99959     1.91714    0.01696     2.93369
      N    4   -0.16144      0.99970     2.65066    0.01108     3.66144
      N    5   -0.10123      0.99962     2.58944    0.01217     3.60123
      C    6    0.08634      0.99951     1.90115    0.01300     2.91366
      C    7   -0.16062      0.99944     2.15248    0.00870     3.16062
      C    8   -0.24193      0.99953     2.22935    0.01306     3.24193
      S    9    0.09669      4.99957     2.88494    0.01880     7.90331
      C   10   -0.07502      0.99936     2.06299    0.01267     3.07502
      C   11    0.06564      0.99941     1.92302    0.01194     2.93436
      C   12    0.00083      0.99955     1.98139    0.01822     2.99917
      N   13   -0.17210      0.99971     2.66180    0.01059     3.67210
      C   14   -0.01245      0.99959     1.99896    0.01390     3.01245
      C   15   -0.08907      0.99949     2.07960    0.00997     3.08907
      N   16   -0.40411      0.99971     2.89443    0.00997     3.90411
      C   17   -0.17670      0.99964     2.16890    0.00816     3.17670
      H   18    0.09685      0.00000     0.40204    0.00111     0.40315
      H   19    0.09069      0.00000     0.40822    0.00109     0.40931
      H   20    0.10064      0.00000     0.39833    0.00103     0.39936
      H   21    0.09559      0.00000     0.40325    0.00116     0.40441
      H   22    0.10330      0.00000     0.39540    0.00130     0.39670
      H   23    0.10550      0.00000     0.39355    0.00095     0.39450
      H   24    0.11246      0.00000     0.38532    0.00222     0.38754
      H   25    0.10778      0.00000     0.39037    0.00184     0.39222
      H   26    0.07722      0.00000     0.42072    0.00207     0.42278
      H   27    0.08350      0.00000     0.41532    0.00118     0.41650
      H   28    0.10138      0.00000     0.39713    0.00149     0.39862
      H   29    0.18134      0.00000     0.31716    0.00151     0.31866
      H   30    0.19161      0.00000     0.30624    0.00215     0.30839
      H   31    0.09633      0.00000     0.40277    0.00091     0.40367
      H   32    0.11044      0.00000     0.38841    0.00115     0.38956
      H   33    0.10552      0.00000     0.39325    0.00123     0.39448
 =======================================================================
   * Total *   -0.00000     20.99268    44.78402    0.22330    66.00000

 Normal termination of Gaussian 16 at Fri Dec 11 14:22:00 2020.
