 Gaussian 16, Revision A.03,

 -----------------------------------------------------------
 # opt freq B3LYP/6-31G(d) empiricaldispersion=gd3bj scf=xqc
 -----------------------------------------------------------

 ------------------------------
 CID_150345921_JID_927_neutraal
 ------------------------------
 Symbolic Z-matrix:
 Charge =  0 Multiplicity = 1

 SCF Done:  E(RB3LYP) =  -490.676726097     A.U. after   16 cycles
 SCF Done:  E(RB3LYP) =  -490.684440762     A.U. after   15 cycles
 SCF Done:  E(RB3LYP) =  -490.688240556     A.U. after   14 cycles
 SCF Done:  E(RB3LYP) =  -490.689646371     A.U. after   13 cycles
 SCF Done:  E(RB3LYP) =  -490.690278005     A.U. after   13 cycles
 SCF Done:  E(RB3LYP) =  -490.691011994     A.U. after   16 cycles
 SCF Done:  E(RB3LYP) =  -490.691688901     A.U. after   16 cycles
 SCF Done:  E(RB3LYP) =  -490.692388203     A.U. after   14 cycles
 SCF Done:  E(RB3LYP) =  -490.692801351     A.U. after   16 cycles
 SCF Done:  E(RB3LYP) =  -490.692897442     A.U. after   12 cycles
 SCF Done:  E(RB3LYP) =  -490.695878848     A.U. after    9 cycles
 SCF Done:  E(RB3LYP) =  -490.695879075     A.U. after    8 cycles
 SCF Done:  E(RB3LYP) =  -490.695879238     A.U. after    9 cycles
 SCF Done:  E(RB3LYP) =  -490.695879007     A.U. after    9 cycles
 SCF Done:  E(RB3LYP) =  -490.695879234     A.U. after    9 cycles
 SCF Done:  E(RB3LYP) =  -490.695879242     A.U. after    7 cycles
 Optimization completed.
    -- Stationary point found.
 Normal termination of Gaussian 16 at Tue Dec  8 13:50:59 2020.

 --------------------------------------------------------------------
 #N Geom=AllCheck Guess=TCheck SCRF=Check GenChk RB3LYP/6-31G(d) Freq
 --------------------------------------------------------------------

 Structure from the checkpoint file:  "JID_927.chk"
 ------------------------------
 CID_150345921_JID_927_neutraal
 ------------------------------
 Charge =  0 Multiplicity = 1

 SCF Done:  E(RB3LYP) =  -490.695879242     A.U. after    1 cycles

  Exact polarizability: 115.171  -2.435  70.567   1.549  -0.718  62.768
 Approx polarizability: 181.042 -10.790  99.251   9.520  -1.196  95.101

                      1                      2                      3
                      A                      A                      A
 Frequencies --     27.2769                36.5003                86.9455
 Red. masses --      6.1541                 4.1401                 4.8936
 Frc consts  --      0.0027                 0.0032                 0.0218
 IR Inten    --      0.0234                 0.3163                 1.1071

                      4                      5                      6
                      A                      A                      A
 Frequencies --    156.9112               235.0800               263.4981
 Red. masses --      5.1035                 1.9207                 1.6313
 Frc consts  --      0.0740                 0.0625                 0.0667
 IR Inten    --      5.1001                 1.6274                 2.5617

                      7                      8                      9
                      A                      A                      A
 Frequencies --    288.9223               331.4379               382.1230
 Red. masses --      3.7680                 2.4143                 2.1997
 Frc consts  --      0.1853                 0.1563                 0.1892
 IR Inten    --      3.4775                 2.0205                 0.1651

                     10                     11                     12
                      A                      A                      A
 Frequencies --    454.5600               481.8014               565.9715
 Red. masses --      2.4390                 3.5237                13.6284
 Frc consts  --      0.2969                 0.4819                 2.5721
 IR Inten    --      4.2063                 3.1518                 9.3652

                     13                     14                     15
                      A                      A                      A
 Frequencies --    638.5823               684.0160               757.3849
 Red. masses --      4.5646                 4.8636                 3.5782
 Frc consts  --      1.0967                 1.3407                 1.2093
 IR Inten    --     24.4549                10.4813                10.9234

                     16                     17                     18
                      A                      A                      A
 Frequencies --    818.4993               851.9626               888.1859
 Red. masses --      3.5434                 3.4591                 1.9614
 Frc consts  --      1.3986                 1.4793                 0.9116
 IR Inten    --      4.5894                 9.2003                19.6310

                     19                     20                     21
                      A                      A                      A
 Frequencies --    911.3282               927.9518               967.2120
 Red. masses --      1.8948                 3.4401                 2.0809
 Frc consts  --      0.9272                 1.7453                 1.1469
 IR Inten    --     13.6980                 2.3377                 4.4256

                     22                     23                     24
                      A                      A                      A
 Frequencies --    996.1761              1032.2004              1055.2821
 Red. masses --      2.0979                 1.6553                 2.3346
 Frc consts  --      1.2266                 1.0391                 1.5318
 IR Inten    --     17.8204                88.5931                17.4481

                     25                     26                     27
                      A                      A                      A
 Frequencies --   1082.1489              1127.0479              1152.4858
 Red. masses --      1.8504                 2.9292                 1.6846
 Frc consts  --      1.2767                 2.1922                 1.3183
 IR Inten    --      6.0959                75.1600                10.1153

                     28                     29                     30
                      A                      A                      A
 Frequencies --   1184.0847              1236.9104              1238.6273
 Red. masses --      2.3522                 2.2326                 1.5391
 Frc consts  --      1.9431                 2.0125                 1.3913
 IR Inten    --      8.1724                29.7196                24.7033

                     31                     32                     33
                      A                      A                      A
 Frequencies --   1276.7031              1290.0926              1331.0476
 Red. masses --      1.5411                 1.7096                 1.3628
 Frc consts  --      1.4800                 1.6764                 1.4226
 IR Inten    --     11.8716                36.9028                 4.5414

                     34                     35                     36
                      A                      A                      A
 Frequencies --   1353.9272              1373.8491              1398.3752
 Red. masses --      1.3102                 1.2850                 1.3939
 Frc consts  --      1.4151                 1.4291                 1.6059
 IR Inten    --      0.5326                12.4163                15.8346

                     37                     38                     39
                      A                      A                      A
 Frequencies --   1407.8412              1442.7821              1513.3959
 Red. masses --      1.3689                 1.3487                 1.1285
 Frc consts  --      1.5986                 1.6541                 1.5228
 IR Inten    --      8.5914                14.8771                26.6559

                     40                     41                     42
                      A                      A                      A
 Frequencies --   1516.8748              1523.1149              1528.3914
 Red. masses --      1.0604                 1.0729                 1.0653
 Frc consts  --      1.4375                 1.4665                 1.4662
 IR Inten    --      0.3130                 9.4109                 0.2789

                     43                     44                     45
                      A                      A                      A
 Frequencies --   1537.3992              2231.3471              2999.6010
 Red. masses --      1.1036                13.9488                 1.0825
 Frc consts  --      1.5368                40.9187                 5.7388
 IR Inten    --      6.2592               520.8708                32.6615

                     46                     47                     48
                      A                      A                      A
 Frequencies --   3005.5823              3054.6341              3080.6998
 Red. masses --      1.0742                 1.0354                 1.0645
 Frc consts  --      5.7175                 5.6924                 5.9525
 IR Inten    --     90.6121                14.7160                16.2969

                     49                     50                     51
                      A                      A                      A
 Frequencies --   3105.4286              3124.4037              3130.1277
 Red. masses --      1.0862                 1.1025                 1.1036
 Frc consts  --      6.1717                 6.3408                 6.3705
 IR Inten    --     30.1156                31.7053                17.8384

                     52                     53                     54
                      A                      A                      A
 Frequencies --   3133.4767              3135.1222              3476.2997
 Red. masses --      1.0941                 1.1028                 1.0742
 Frc consts  --      6.3294                 6.3865                 7.6482
 IR Inten    --     19.7967                25.5079                 8.1080

 - Thermochemistry -
 -------------------
 Temperature   298.150 Kelvin.  Pressure   1.00000 Atm.
 Atom     1 has atomic number  6 and mass  12.00000

 Molecular mass:   142.08546 amu.
 Principal axes and moments of inertia in atomic units:
                           1         2         3
     Eigenvalues --   604.478072499.005262757.72966
           X            0.99979  -0.02038  -0.00178
           Y            0.02032   0.99941  -0.02763
           Z            0.00234   0.02759   0.99962
 This molecule is an asymmetric top.
 Rotational symmetry number  1.
 Warning -- assumption of classical behavior for rotation
           may cause significant error
 Rotational temperatures (Kelvin)      0.14329     0.03466     0.03141
 Rotational constants (GHZ):           2.98562     0.72218     0.65443
 Zero-point vibrational energy     435629.9 (Joules/Mol)
                                  104.11805 (Kcal/Mol)
 Warning -- explicit consideration of  12 degrees of freedom as
           vibrations may cause significant error
 Vibrational temperatures:     39.25    52.52   125.10   225.76   338.23
          (Kelvin)            379.12   415.69   476.87   549.79   654.01
                              693.20   814.31   918.78   984.15  1089.71
                             1177.64  1225.78  1277.90  1311.20  1335.12
                             1391.60  1433.28  1485.11  1518.32  1556.97
                             1621.57  1658.17  1703.63  1779.64  1782.11
                             1836.89  1856.16  1915.08  1948.00  1976.66
                             2011.95  2025.57  2075.84  2177.44  2182.44
                             2191.42  2199.01  2211.97  3210.41  4315.76
                             4324.36  4394.94  4432.44  4468.02  4495.32
                             4503.56  4508.37  4510.74  5001.62

 Zero-point correction=                           0.165923 (Hartree/Particle)
 Thermal correction to Energy=                    0.175688
 Thermal correction to Enthalpy=                  0.176632
 Thermal correction to Gibbs Free Energy=         0.129028
 Sum of electronic and zero-point Energies=           -490.529957
 Sum of electronic and thermal Energies=              -490.520192
 Sum of electronic and thermal Enthalpies=            -490.519247
 Sum of electronic and thermal Free Energies=         -490.566852

                     E (Thermal)             CV                S
                      KCal/Mol        Cal/Mol-Kelvin    Cal/Mol-Kelvin
 Total                  110.246             35.225            100.191
 Electronic               0.000              0.000              0.000
 Translational            0.889              2.981             40.765
 Rotational               0.889              2.981             29.811
 Vibrational            108.468             29.263             29.615
 Vibration     1          0.593              1.984              6.018
 Vibration     2          0.594              1.982              5.441
 Vibration     3          0.601              1.958              3.728
 Vibration     4          0.621              1.895              2.587
 Vibration     5          0.655              1.787              1.840
 Vibration     6          0.670              1.740              1.638
 Vibration     7          0.685              1.694              1.480
 Vibration     8          0.714              1.613              1.253
 Vibration     9          0.752              1.508              1.031
 Vibration    10          0.813              1.351              0.782
 Vibration    11          0.838              1.290              0.705
 Vibration    12          0.922              1.105              0.512

                           ! Non-Optimized Parameters !
 Normal termination of Gaussian 16 at Tue Dec  8 13:54:28 2020.

 ----------------------------------------------------------------------
 # B3LYP/6-311++G(d,p) empiricaldispersion=gd3bj scf=xqc pop=npa geom=c
 heck
 ----------------------------------------------------------------------

 --------------------------------------
 CID_150345921_JID_927_Energie_neutraal
 --------------------------------------
 Structure from the checkpoint file:  "JID_927.chk"
 Charge =  0 Multiplicity = 1

 SCF Done:  E(RB3LYP) =  -490.837989285     A.U. after   14 cycles
 Normal termination of Gaussian 16 at Tue Dec  8 13:56:48 2020.

 ----------------------------------------------------------------------
 # B3LYP/6-311++G(d,p) empiricaldispersion=gd3bj scf=xqc pop=npa geom=c
 heck
 ----------------------------------------------------------------------

 ------------------------------------
 CID_150345921_JID_927_Energie_kation
 ------------------------------------
 Structure from the checkpoint file:  "JID_927.chk"
 Charge =  1 Multiplicity = 2

 SCF Done:  E(UB3LYP) =  -490.500745660     A.U. after   30 cycles
 Normal termination of Gaussian 16 at Tue Dec  8 14:02:15 2020.
 Gaussian 16:  ES64L-G16RevA.03 25-Dec-2016

 ----------------------------------------------------------------------
 # B3LYP/6-311++G(d,p) empiricaldispersion=gd3bj scf=xqc pop=npa geom=c
 heck
 ----------------------------------------------------------------------

 -----------------------------------
 CID_150345921_JID_927_Energie_anion
 -----------------------------------
 Structure from the checkpoint file:  "JID_927.chk"
 Charge = -1 Multiplicity = 2

                         Standard orientation:
 ---------------------------------------------------------------------
 Center     Atomic      Atomic             Coordinates (Angstroms)
 Number     Number       Type             X           Y           Z
 ---------------------------------------------------------------------
      1          6           0        2.460000   -1.612184    0.389849
      2          6           0        2.130718   -0.317931   -0.333041
      3          6           0        0.798653   -0.332477   -1.134599
      4          6           0       -0.030203    0.806824   -0.501643
      5          6           0        1.074408    1.674556    0.106427
      6          8           0        1.984223    0.725803    0.649430
      7          7           0       -0.905872    0.397766    0.615724
      8          7           0       -1.758455   -0.714374    0.215400
      9          7           0       -2.942588   -0.342289    0.087530
     10          7           0       -4.055730   -0.165529   -0.084504
     11          1           0        3.350334   -1.489407    1.014419
     12          1           0        2.649307   -2.415102   -0.330852
     13          1           0        1.625379   -1.916053    1.031597
     14          1           0        2.961973   -0.045375   -1.001400
     15          1           0        0.976693   -0.134843   -2.196291
     16          1           0        0.271051   -1.286873   -1.059163
     17          1           0       -0.646166    1.341584   -1.230066
     18          1           0        0.726691    2.320205    0.916386
     19          1           0        1.552245    2.291411   -0.671519
     20          1           0       -0.304227   -0.013706    1.330441
 ---------------------------------------------------------------------

 SCF Done:  E(UB3LYP) =  -490.832975584     A.U. after   31 cycles

 The electronic state is 2-A.
 Alpha  occ. eigenvalues --  -19.01286 -14.30467 -14.22557 -14.21765 -14.20889
 Alpha  occ. eigenvalues --  -10.10923 -10.10334 -10.08644 -10.05447 -10.04963
 Alpha  occ. eigenvalues --   -0.98445  -0.93237  -0.85580  -0.74432  -0.66662
 Alpha  occ. eigenvalues --   -0.63346  -0.56723  -0.48558  -0.46778  -0.43145
 Alpha  occ. eigenvalues --   -0.39052  -0.36888  -0.36547  -0.36012  -0.34192
 Alpha  occ. eigenvalues --   -0.31532  -0.30568  -0.30061  -0.28909  -0.27266
 Alpha  occ. eigenvalues --   -0.25667  -0.24078  -0.23334  -0.21181  -0.20289
 Alpha  occ. eigenvalues --   -0.15796  -0.11949  -0.10581   0.05005
 Alpha virt. eigenvalues --    0.07207   0.08136   0.09462   0.10070   0.11232
 Alpha virt. eigenvalues --    0.11509   0.12199   0.12930   0.13369   0.15144
 Alpha virt. eigenvalues --    0.15251   0.16395   0.17118   0.17741   0.18604

  Beta  occ. eigenvalues --  -19.01270 -14.30110 -14.22614 -14.21238 -14.20750
  Beta  occ. eigenvalues --  -10.10904 -10.10309 -10.08636 -10.05426 -10.04941
  Beta  occ. eigenvalues --   -0.97733  -0.93208  -0.85233  -0.74130  -0.66618
  Beta  occ. eigenvalues --   -0.63180  -0.56655  -0.48447  -0.46702  -0.42839
  Beta  occ. eigenvalues --   -0.38958  -0.36713  -0.36085  -0.35073  -0.33857
  Beta  occ. eigenvalues --   -0.31300  -0.30345  -0.29425  -0.28481  -0.27202
  Beta  occ. eigenvalues --   -0.25439  -0.23922  -0.23243  -0.21142  -0.19551
  Beta  occ. eigenvalues --   -0.15675  -0.11728  -0.10413
  Beta virt. eigenvalues --    0.07714   0.08746   0.09836   0.10291   0.11238
  Beta virt. eigenvalues --    0.11476   0.11981   0.12696   0.13087   0.13684
  Beta virt. eigenvalues --    0.15356   0.15439   0.16456   0.17071   0.17797

 Mulliken charges and spin densities:
               1          2
     1  C    0.887974  -1.534171
     2  C   -0.415974   0.538356
     3  C    0.207346  -0.733828
     4  C   -0.337535   0.368432
     5  C    0.358697  -0.858699
     6  O   -0.129374   0.012106
     7  N    0.250207  -0.300986
     8  N   -1.666121   1.286799
     9  N    1.007482  -0.608660
    10  N    0.194247  -0.214319
    11  H   -0.038808   0.181476
    12  H   -0.143801   0.275475
    13  H   -0.061907   0.206085
    14  H   -0.435653   0.612522
    15  H   -0.622187   0.799731
    16  H    0.065862   0.114771
    17  H   -0.027918   0.237127
    18  H    0.013083   0.155083
    19  H   -0.272689   0.415966
    20  H    0.167070   0.046736
 Sum of Mulliken charges =  -1.00000   1.00000

 Dipole moment (field-independent basis, Debye):
    X=              1.0909    Y=              0.0846    Z=              2.2814  Tot=              2.5302
 Quadrupole moment (field-independent basis, Debye-Ang):
   XX=           -122.7914   YY=            -82.4472   ZZ=            -84.4975
   XY=             -2.1635   XZ=              5.3547   YZ=              0.9702

 Summary of Natural Population Analysis:

                                       Natural Population
                Natural  -----------------------------------------------
    Atom  No    Charge         Core      Valence    Rydberg      Total
 -----------------------------------------------------------------------
      C    1   -0.28802      0.99964     2.28325    0.00513     3.28802
      C    2    0.06045      0.99959     1.92406    0.01589     2.93955
      C    3   -0.21590      0.99960     2.20665    0.00964     3.21590
      C    4   -0.02468      0.99959     2.01108    0.01401     3.02468
      C    5   -0.01480      0.99956     2.00155    0.01369     3.01480
      O    6   -0.30810      0.99989     3.29900    0.00921     4.30810
      N    7   -0.24355      0.99973     2.73109    0.01274     3.74355
      N    8   -0.16285      0.99973     2.64724    0.01588     3.66285
      N    9    0.14147      0.99971     2.34338    0.01545     3.35853
      N   10    0.01195      0.99982     2.47392    0.01431     3.48805
      H   11    0.09981      0.00000     0.39899    0.00120     0.40019
      H   12    0.09979      0.00000     0.39917    0.00104     0.40021
      H   13    0.09943      0.00000     0.39912    0.00145     0.40057
      H   14    0.08087      0.00000     0.41663    0.00250     0.41913
      H   15    0.10483      0.00000     0.39268    0.00249     0.39517
      H   16    0.11312      0.00000     0.38519    0.00169     0.38688
      H   17    0.09812      0.00000     0.40037    0.00151     0.40188
      H   18    0.09434      0.00000     0.40425    0.00141     0.40566
      H   19    0.08239      0.00000     0.41580    0.00181     0.41761
      H   20    0.17133      0.00000     0.32492    0.00374     0.32867
 =======================================================================
   * Total *    0.00000      9.99686    27.85834    0.14480    38.00000

 Normal termination of Gaussian 16 at Tue Dec  8 14:07:43 2020.
