 Gaussian 16, Revision A.03,

 -----------------------------------------------------------
 # opt freq B3LYP/6-31G(d) empiricaldispersion=gd3bj scf=xqc
 -----------------------------------------------------------

 ------------------------------
 CID_55121231_JID_8019_neutraal
 ------------------------------
 Symbolic Z-matrix:
 Charge =  0 Multiplicity = 1

 SCF Done:  E(RB3LYP) =  -1201.48578694     A.U. after   15 cycles
 SCF Done:  E(RB3LYP) =  -1201.46063525     A.U. after   14 cycles
 SCF Done:  E(RB3LYP) =  -1201.49125962     A.U. after   13 cycles
 SCF Done:  E(RB3LYP) =  -1201.49495835     A.U. after   13 cycles
 SCF Done:  E(RB3LYP) =  -1201.49594355     A.U. after   12 cycles
 SCF Done:  E(RB3LYP) =  -1201.49574682     A.U. after   13 cycles
 SCF Done:  E(RB3LYP) =  -1201.48876043     A.U. after   13 cycles
 SCF Done:  E(RB3LYP) =  -1201.49142846     A.U. after   12 cycles
 SCF Done:  E(RB3LYP) =  -1201.49682487     A.U. after   11 cycles
 SCF Done:  E(RB3LYP) =  -1201.49790504     A.U. after   12 cycles
 SCF Done:  E(RB3LYP) =  -1201.49881436     A.U. after    9 cycles
 SCF Done:  E(RB3LYP) =  -1201.49881578     A.U. after    8 cycles
 SCF Done:  E(RB3LYP) =  -1201.49881770     A.U. after    8 cycles
 SCF Done:  E(RB3LYP) =  -1201.49881867     A.U. after    8 cycles
 SCF Done:  E(RB3LYP) =  -1201.49881888     A.U. after    8 cycles
 Optimization completed.
    -- Stationary point found.
 Normal termination of Gaussian 16 at Fri Dec 11 18:48:11 2020.

 --------------------------------------------------------------------
 #N Geom=AllCheck Guess=TCheck SCRF=Check GenChk RB3LYP/6-31G(d) Freq
 --------------------------------------------------------------------

 Structure from the checkpoint file:  "JID_8019.chk"
 ------------------------------
 CID_55121231_JID_8019_neutraal
 ------------------------------
 Charge =  0 Multiplicity = 1

 SCF Done:  E(RB3LYP) =  -1201.49881888     A.U. after    1 cycles

  Exact polarizability: 174.723 -16.073 170.664  12.595  13.342 135.172
 Approx polarizability: 254.537 -42.487 287.772  33.854  27.132 210.590

                      1                      2                      3
                      A                      A                      A
 Frequencies --     33.1476                36.0753                56.6552
 Red. masses --      5.7292                 5.0005                 4.5383
 Frc consts  --      0.0037                 0.0038                 0.0086
 IR Inten    --      4.3683                 1.0099                 1.3286

                      4                      5                      6
                      A                      A                      A
 Frequencies --     73.8414                82.1558               103.6361
 Red. masses --      6.9105                 4.4662                 3.7554
 Frc consts  --      0.0222                 0.0178                 0.0238
 IR Inten    --      2.3290                 0.2294                 0.2899

                      7                      8                      9
                      A                      A                      A
 Frequencies --    128.1859               139.9932               140.9187
 Red. masses --      3.4523                 2.7951                 2.0505
 Frc consts  --      0.0334                 0.0323                 0.0240
 IR Inten    --      1.7907                 1.7532                 0.6011

                     10                     11                     12
                      A                      A                      A
 Frequencies --    189.3507               200.8047               223.6109
 Red. masses --      3.4909                 1.5042                 2.2404
 Frc consts  --      0.0737                 0.0357                 0.0660
 IR Inten    --      0.3645                 0.6428                 1.2364

                     13                     14                     15
                      A                      A                      A
 Frequencies --    236.9136               267.0882               274.0524
 Red. masses --      3.4796                 1.3205                 3.9870
 Frc consts  --      0.1151                 0.0555                 0.1764
 IR Inten    --      1.3204                 0.6482                 1.7744

                     16                     17                     18
                      A                      A                      A
 Frequencies --    299.0783               306.4338               326.0312
 Red. masses --      7.2818                 2.9598                 3.4472
 Frc consts  --      0.3838                 0.1637                 0.2159
 IR Inten    --      1.3466                 3.4046                 2.3432

                     19                     20                     21
                      A                      A                      A
 Frequencies --    351.2774               390.4671               404.2849
 Red. masses --      4.0855                 3.4261                 2.9309
 Frc consts  --      0.2970                 0.3078                 0.2822
 IR Inten    --      0.2368                 4.1775                 5.1902

                     22                     23                     24
                      A                      A                      A
 Frequencies --    433.7378               463.6492               484.1422
 Red. masses --      5.6349                 4.7926                 2.3912
 Frc consts  --      0.6246                 0.6070                 0.3302
 IR Inten    --     23.4234                 1.1467                10.1696

                     25                     26                     27
                      A                      A                      A
 Frequencies --    493.1995               514.5320               550.7962
 Red. masses --      3.5573                 5.5843                 5.1319
 Frc consts  --      0.5098                 0.8711                 0.9173
 IR Inten    --     10.4410                14.9813                51.7122

                     28                     29                     30
                      A                      A                      A
 Frequencies --    559.2213               613.9268               658.0474
 Red. masses --      3.8672                 2.1611                 3.9962
 Frc consts  --      0.7125                 0.4799                 1.0196
 IR Inten    --     33.4669                58.5280                 9.1852

                     31                     32                     33
                      A                      A                      A
 Frequencies --    694.6299               729.7822               741.1799
 Red. masses --      4.4969                 1.7940                 2.9508
 Frc consts  --      1.2784                 0.5629                 0.9551
 IR Inten    --     12.3571                42.9939                64.0936

                     34                     35                     36
                      A                      A                      A
 Frequencies --    753.1099               774.0568               778.1364
 Red. masses --      4.2576                 1.8656                 1.9266
 Frc consts  --      1.4228                 0.6586                 0.6873
 IR Inten    --     88.5481                54.1822                11.9729

                     37                     38                     39
                      A                      A                      A
 Frequencies --    811.0427               834.5449               880.3355
 Red. masses --      2.5739                 1.1600                 1.9917
 Frc consts  --      0.9975                 0.4760                 0.9094
 IR Inten    --     20.2652                 1.4146                 2.6283

                     40                     41                     42
                      A                      A                      A
 Frequencies --    887.2600               919.2350               937.9914
 Red. masses --      1.3790                 3.7636                 2.0389
 Frc consts  --      0.6396                 1.8737                 1.0569
 IR Inten    --      4.3259                 8.0052                 4.4914

                     43                     44                     45
                      A                      A                      A
 Frequencies --    960.8129               987.4193               990.1983
 Red. masses --      1.3373                 2.1525                 1.3467
 Frc consts  --      0.7274                 1.2365                 0.7780
 IR Inten    --      1.0876                 4.8698                 3.0707

                     46                     47                     48
                      A                      A                      A
 Frequencies --    991.1049               994.0628              1045.7626
 Red. masses --      1.4155                 1.3058                 2.3044
 Frc consts  --      0.8192                 0.7602                 1.4848
 IR Inten    --     38.1618                 4.9235                 5.0652

                     49                     50                     51
                      A                      A                      A
 Frequencies --   1060.4663              1068.7078              1089.0688
 Red. masses --      5.7667                 2.0393                 2.1731
 Frc consts  --      3.8209                 1.3723                 1.5186
 IR Inten    --     24.2198                 9.2032                16.8441

                     52                     53                     54
                      A                      A                      A
 Frequencies --   1118.6983              1147.7956              1160.8762
 Red. masses --      5.5930                 1.6936                 2.3871
 Frc consts  --      4.1240                 1.3146                 1.8954
 IR Inten    --    118.4620                28.8306                35.8853

                     55                     56                     57
                      A                      A                      A
 Frequencies --   1162.0046              1175.9466              1200.3496
 Red. masses --      2.1803                 1.4677                 1.0972
 Frc consts  --      1.7345                 1.1958                 0.9314
 IR Inten    --     12.2765                 8.1188                 1.9720

                     58                     59                     60
                      A                      A                      A
 Frequencies --   1234.2485              1268.4942              1290.6374
 Red. masses --      1.9960                 1.6176                 1.3948
 Frc consts  --      1.7915                 1.5335                 1.3689
 IR Inten    --    104.6231                 5.2445                 9.3061

                     61                     62                     63
                      A                      A                      A
 Frequencies --   1302.7964              1312.6703              1322.3155
 Red. masses --      4.2137                 1.2265                 1.9367
 Frc consts  --      4.2138                 1.2452                 1.9951
 IR Inten    --    112.0213                32.6931               147.9274

                     64                     65                     66
                      A                      A                      A
 Frequencies --   1335.3097              1348.8780              1374.0769
 Red. masses --      3.2113                 3.1679                 1.2135
 Frc consts  --      3.3736                 3.3960                 1.3500
 IR Inten    --     46.0769                31.3859                 9.6141

                     67                     68                     69
                      A                      A                      A
 Frequencies --   1393.9464              1406.0023              1417.5863
 Red. masses --      1.5350                 1.3064                 1.4462
 Frc consts  --      1.7573                 1.5215                 1.7123
 IR Inten    --     93.7873                12.1390                74.0405

                     70                     71                     72
                      A                      A                      A
 Frequencies --   1450.9380              1479.7943              1480.9296
 Red. masses --      1.2795                 1.6574                 1.0561
 Frc consts  --      1.5870                 2.1384                 1.3646
 IR Inten    --      7.3012                 3.3960                 9.1413

                     73                     74                     75
                      A                      A                      A
 Frequencies --   1482.9899              1506.9840              1511.3267
 Red. masses --      1.1483                 2.0969                 1.1700
 Frc consts  --      1.4880                 2.8058                 1.5746
 IR Inten    --      3.7738                65.0382                 7.0148

                     76                     77                     78
                      A                      A                      A
 Frequencies --   1514.5434              1522.5915              1529.3725
 Red. masses --      1.1371                 1.1006                 1.0990
 Frc consts  --      1.5368                 1.5033                 1.5145
 IR Inten    --     26.1729                 7.0903                 3.5587

                     79                     80                     81
                      A                      A                      A
 Frequencies --   1539.6454              1555.8563              1563.3848
 Red. masses --      1.0447                 1.9501                 1.0987
 Frc consts  --      1.4591                 2.7813                 1.5822
 IR Inten    --      3.5371                70.9827                10.0360

                     82                     83                     84
                      A                      A                      A
 Frequencies --   1632.9402              1657.0200              1797.8017
 Red. masses --      4.5745                 5.6707                 8.1384
 Frc consts  --      7.1868                 9.1737                15.4979
 IR Inten    --     33.5216                58.4104               371.1758

                     85                     86                     87
                      A                      A                      A
 Frequencies --   2928.3519              2948.6158              3047.1385
 Red. masses --      1.0754                 1.0728                 1.0430
 Frc consts  --      5.4335                 5.4954                 5.7057
 IR Inten    --     78.1318               116.9010                27.9855

                     88                     89                     90
                      A                      A                      A
 Frequencies --   3072.2812              3084.3178              3100.7011
 Red. masses --      1.0827                 1.0291                 1.0648
 Frc consts  --      6.0209                 5.7679                 6.0315
 IR Inten    --     21.7714                 0.4107                12.4234

                     91                     92                     93
                      A                      A                      A
 Frequencies --   3106.6890              3111.4421              3154.2284
 Red. masses --      1.0899                 1.0980                 1.1003
 Frc consts  --      6.1976                 6.2631                 6.4495
 IR Inten    --     12.0034                33.4337                 5.0095

                     94                     95                     96
                      A                      A                      A
 Frequencies --   3164.1039              3184.7596              3193.3577
 Red. masses --      1.0987                 1.1066                 1.1077
 Frc consts  --      6.4807                 6.6129                 6.6551
 IR Inten    --     23.9817                 0.6124                 1.0894

                     97                     98                     99
                      A                      A                      A
 Frequencies --   3197.9835              3208.7045              3219.2589
 Red. masses --      1.0865                 1.0892                 1.0928
 Frc consts  --      6.5471                 6.6073                 6.6729
 IR Inten    --      2.9586                 3.8479                 7.9939

                    100                    101                    102
                      A                      A                      A
 Frequencies --   3225.1805              3515.9499              3520.9084
 Red. masses --      1.0973                 1.0748                 1.0746
 Frc consts  --      6.7249                 7.8279                 7.8491
 IR Inten    --      9.5119                 0.5015               119.4762

 - Thermochemistry -
 -------------------
 Temperature   298.150 Kelvin.  Pressure   1.00000 Atm.
 Atom     1 has atomic number  6 and mass  12.00000

 Molecular mass:   270.10381 amu.
 Principal axes and moments of inertia in atomic units:
                           1         2         3
     Eigenvalues --  3864.080565256.512245698.47873
           X            0.99893   0.03187  -0.03365
           Y           -0.03448   0.99619  -0.08013
           Z            0.03097   0.08120   0.99622
 This molecule is an asymmetric top.
 Rotational symmetry number  1.
 Warning -- assumption of classical behavior for rotation
           may cause significant error
 Rotational temperatures (Kelvin)      0.02242     0.01648     0.01520
 Rotational constants (GHZ):           0.46706     0.34333     0.31671
 Zero-point vibrational energy     784432.6 (Joules/Mol)
                                  187.48389 (Kcal/Mol)
 Warning -- explicit consideration of  29 degrees of freedom as
           vibrations may cause significant error
 Vibrational temperatures:     47.69    51.90    81.51   106.24   118.20
          (Kelvin)            149.11   184.43   201.42   202.75   272.43
                              288.91   321.73   340.87   384.28   394.30
                              430.31   440.89   469.09   505.41   561.80
                              581.68   624.05   667.09   696.57   709.60
                              740.30   792.47   804.59   883.30   946.78
                              999.42  1049.99  1066.39  1083.56  1113.70
                             1119.56  1166.91  1200.72  1266.61  1276.57
                             1322.57  1349.56  1382.40  1420.68  1424.67
                             1425.98  1430.23  1504.62  1525.77  1537.63
                             1566.93  1609.56  1651.42  1670.24  1671.87
                             1691.92  1727.04  1775.81  1825.08  1856.94
                             1874.43  1888.64  1902.52  1921.21  1940.73
                             1976.99  2005.58  2022.92  2039.59  2087.58
                             2129.09  2130.73  2133.69  2168.21  2174.46
                             2179.09  2190.67  2200.43  2215.21  2238.53
                             2249.36  2349.44  2384.08  2586.64  4213.25
                             4242.40  4384.15  4420.33  4437.65  4461.22
                             4469.83  4476.67  4538.23  4552.44  4582.16
                             4594.53  4601.19  4616.61  4631.80  4640.32
                             5058.67  5065.80

 Zero-point correction=                           0.298775 (Hartree/Particle)
 Thermal correction to Energy=                    0.317148
 Thermal correction to Enthalpy=                  0.318092
 Thermal correction to Gibbs Free Energy=         0.251934
 Sum of electronic and zero-point Energies=          -1201.200044
 Sum of electronic and thermal Energies=             -1201.181671
 Sum of electronic and thermal Enthalpies=           -1201.180727
 Sum of electronic and thermal Free Energies=        -1201.246885

                     E (Thermal)             CV                S
                      KCal/Mol        Cal/Mol-Kelvin    Cal/Mol-Kelvin
 Total                  199.013             69.297            139.242
 Electronic               0.000              0.000              0.000
 Translational            0.889              2.981             42.680
 Rotational               0.889              2.981             33.115
 Vibrational            197.236             63.336             63.448
 Vibration     1          0.594              1.983              5.632
 Vibration     2          0.594              1.982              5.464
 Vibration     3          0.596              1.975              4.570
 Vibration     4          0.599              1.966              4.048
 Vibration     5          0.600              1.961              3.839
 Vibration     6          0.605              1.946              3.385
 Vibration     7          0.611              1.925              2.973
 Vibration     8          0.615              1.913              2.804
 Vibration     9          0.615              1.912              2.791
 Vibration    10          0.633              1.855              2.234
 Vibration    11          0.638              1.839              2.126
 Vibration    12          0.649              1.805              1.930
 Vibration    13          0.656              1.784              1.826
 Vibration    14          0.672              1.734              1.615
 Vibration    15          0.676              1.721              1.571
 Vibration    16          0.692              1.675              1.422
 Vibration    17          0.697              1.661              1.382
 Vibration    18          0.710              1.623              1.280
 Vibration    19          0.728              1.573              1.160
 Vibration    20          0.758              1.491              0.998
 Vibration    21          0.769              1.461              0.947
 Vibration    22          0.794              1.397              0.847
 Vibration    23          0.821              1.331              0.756
 Vibration    24          0.840              1.285              0.699
 Vibration    25          0.849              1.265              0.675
 Vibration    26          0.870              1.218              0.623
 Vibration    27          0.906              1.138              0.543
 Vibration    28          0.915              1.120              0.525
 Vibration    29          0.973              1.002              0.426

 Optimization completed.
    -- Stationary point found.
 Normal termination of Gaussian 16 at Fri Dec 11 19:06:35 2020.

 ----------------------------------------------------------------------
 # B3LYP/6-311++G(d,p) empiricaldispersion=gd3bj scf=xqc pop=npa geom=c
 heck
 ----------------------------------------------------------------------

 --------------------------------------
 CID_55121231_JID_8019_Energie_neutraal
 --------------------------------------
 Structure from the checkpoint file:  "JID_8019.chk"
 Charge =  0 Multiplicity = 1

 SCF Done:  E(RB3LYP) =  -1201.75686552     A.U. after   16 cycles
 Normal termination of Gaussian 16 at Fri Dec 11 19:14:12 2020.

 ----------------------------------------------------------------------
 # B3LYP/6-311++G(d,p) empiricaldispersion=gd3bj scf=xqc pop=npa geom=c
 heck
 ----------------------------------------------------------------------

 ------------------------------------
 CID_55121231_JID_8019_Energie_kation
 ------------------------------------
 Structure from the checkpoint file:  "JID_8019.chk"
 Charge =  1 Multiplicity = 2

 SCF Done:  E(UB3LYP) =  -1201.45705152     A.U. after   27 cycles
 Normal termination of Gaussian 16 at Fri Dec 11 19:30:44 2020.
 Gaussian 16:  ES64L-G16RevA.03 25-Dec-2016

 ----------------------------------------------------------------------
 # B3LYP/6-311++G(d,p) empiricaldispersion=gd3bj scf=xqc pop=npa geom=c
 heck
 ----------------------------------------------------------------------

 -----------------------------------
 CID_55121231_JID_8019_Energie_anion
 -----------------------------------
 Structure from the checkpoint file:  "JID_8019.chk"
 Charge = -1 Multiplicity = 2

                         Standard orientation:
 ---------------------------------------------------------------------
 Center     Atomic      Atomic             Coordinates (Angstroms)
 Number     Number       Type             X           Y           Z
 ---------------------------------------------------------------------
      1          6           0        0.251738    2.097987   -2.418948
      2          6           0        1.424071    1.736880   -1.512677
      3          7           0        1.720656    0.306292   -1.589476
      4          6           0        3.017646   -0.073624   -1.038927
      5          6           0        2.962497   -0.242106    0.493225
      6          6           0        2.080690   -1.438397    0.804992
      7          8           0        2.493746   -2.574534    0.647473
      8          7           0        0.742472   -1.252023    1.163469
      9          6           0        0.056969   -0.037002    1.263515
     10          6           0        0.515594    0.950523    2.154115
     11          6           0       -0.109233    2.187351    2.250307
     12          6           0       -1.238076    2.473530    1.477752
     13          6           0       -1.741402    1.493454    0.631352
     14          6           0       -1.114311    0.246634    0.532027
     15         16           0       -1.921325   -0.936147   -0.556736
     16          8           0       -2.350769   -0.228054   -1.771770
     17          8           0       -1.117971   -2.168688   -0.650695
     18          6           0       -3.413334   -1.359294    0.373912
     19          1           0        0.516402    1.952961   -3.474284
     20          1           0       -0.027779    3.148908   -2.288192
     21          1           0       -0.618072    1.472585   -2.202388
     22          1           0        2.305562    2.352126   -1.780216
     23          1           0        1.174473    1.987341   -0.474692
     24          1           0        1.664035    0.005644   -2.558980
     25          1           0        3.312271   -1.034528   -1.471234
     26          1           0        3.809619    0.660050   -1.279444
     27          1           0        3.965337   -0.470846    0.864924
     28          1           0        2.628083    0.687107    0.954039
     29          1           0        0.189327   -2.041093    0.837178
     30          1           0        1.369337    0.717930    2.780923
     31          1           0        0.279712    2.927971    2.942845
     32          1           0       -1.723384    3.441829    1.541684
     33          1           0       -2.610599    1.695601    0.013760
     34          1           0       -3.120811   -1.806562    1.325751
     35          1           0       -4.012267   -0.461024    0.530465
     36          1           0       -3.959101   -2.082943   -0.236232
 ---------------------------------------------------------------------

 SCF Done:  E(UB3LYP) =  -1201.76302675     A.U. after   33 cycles
 SCF Done:  E(UB3LYP) =  -1201.76302675     a.u. after    1 cycles

 The electronic state is 2-A.
 Alpha  occ. eigenvalues --  -88.91312 -18.98360 -18.98144 -18.96538 -14.20412
 Alpha  occ. eigenvalues --  -14.18409 -10.14797 -10.08984 -10.08665 -10.07927
 Alpha  occ. eigenvalues --  -10.07542 -10.05995 -10.04317 -10.04299 -10.03752
 Alpha  occ. eigenvalues --  -10.03550 -10.03353 -10.02056  -7.97633  -5.93954
 Alpha  occ. eigenvalues --   -5.93822  -5.93704  -0.97545  -0.91852  -0.87460
 Alpha  occ. eigenvalues --   -0.80296  -0.79422  -0.71476  -0.66124  -0.65885
 Alpha  occ. eigenvalues --   -0.61850  -0.61414  -0.60651  -0.52706  -0.52091
 Alpha  occ. eigenvalues --   -0.49644  -0.48196  -0.46094  -0.43665  -0.40189
 Alpha  occ. eigenvalues --   -0.38566  -0.37861  -0.37096  -0.35804  -0.34887
 Alpha  occ. eigenvalues --   -0.34392  -0.33914  -0.33479  -0.32155  -0.31730
 Alpha  occ. eigenvalues --   -0.31034  -0.30312  -0.30031  -0.28706  -0.27240
 Alpha  occ. eigenvalues --   -0.27141  -0.25999  -0.24610  -0.24460  -0.23576
 Alpha  occ. eigenvalues --   -0.23411  -0.22437  -0.22298  -0.20406  -0.19428
 Alpha  occ. eigenvalues --   -0.18098  -0.17383  -0.15575  -0.13866  -0.13314
 Alpha  occ. eigenvalues --   -0.11484  -0.09927   0.04945
 Alpha virt. eigenvalues --    0.07686   0.08117   0.08912   0.09130   0.10315
 Alpha virt. eigenvalues --    0.10433   0.10977   0.11098   0.11738   0.12092
 Alpha virt. eigenvalues --    0.12885   0.13076   0.13257   0.13646   0.14019

  Beta  occ. eigenvalues --  -88.91303 -18.98321 -18.98091 -18.96484 -14.20445
  Beta  occ. eigenvalues --  -14.18401 -10.14739 -10.08977 -10.08631 -10.07740
  Beta  occ. eigenvalues --  -10.07541 -10.05997 -10.04299 -10.03939 -10.03626
  Beta  occ. eigenvalues --  -10.03555 -10.03372 -10.01601  -7.97622  -5.93949
  Beta  occ. eigenvalues --   -5.93775  -5.93701  -0.97387  -0.91750  -0.87343
  Beta  occ. eigenvalues --   -0.80157  -0.79395  -0.71011  -0.66092  -0.65594
  Beta  occ. eigenvalues --   -0.61537  -0.61112  -0.60286  -0.52632  -0.51537
  Beta  occ. eigenvalues --   -0.49577  -0.48125  -0.45720  -0.43528  -0.40002
  Beta  occ. eigenvalues --   -0.38511  -0.37661  -0.36966  -0.35486  -0.34781
  Beta  occ. eigenvalues --   -0.34366  -0.33787  -0.33411  -0.32020  -0.31601
  Beta  occ. eigenvalues --   -0.30866  -0.30164  -0.29861  -0.28628  -0.27191
  Beta  occ. eigenvalues --   -0.27058  -0.25706  -0.24524  -0.24226  -0.23468
  Beta  occ. eigenvalues --   -0.22971  -0.22224  -0.21958  -0.20230  -0.19342
  Beta  occ. eigenvalues --   -0.17904  -0.16851  -0.15223  -0.13814  -0.11746
  Beta  occ. eigenvalues --   -0.10950  -0.09035
  Beta virt. eigenvalues --    0.07574   0.08056   0.08820   0.09051   0.10239
  Beta virt. eigenvalues --    0.10395   0.10844   0.10957   0.11358   0.11801
  Beta virt. eigenvalues --    0.12003   0.12852   0.13087   0.13214   0.13719

 Mulliken charges and spin densities:
               1          2
     1  C   -0.672615  -0.013395
     2  C   -0.075351  -0.035754
     3  N    0.006330  -0.023263
     4  C   -0.321325  -0.017393
     5  C   -0.112042  -0.019046
     6  C   -0.193510   0.035100
     7  O   -0.338818   0.018297
     8  N    0.010624  -0.006263
     9  C   -0.033490   0.145064
    10  C   -0.198464  -0.094919
    11  C   -0.381836   0.383303
    12  C   -0.538938  -0.109029
    13  C   -0.500763   0.194741
    14  C    0.144411   0.413165
    15  S    0.462912  -0.114221
    16  O   -0.075660  -0.058085
    17  O   -0.211324  -0.006450
    18  C   -0.648638   0.060574
    19  H    0.100983   0.005001
    20  H    0.107263   0.003916
    21  H    0.257573  -0.009164
    22  H    0.045316   0.045374
    23  H    0.203163  -0.023358
    24  H    0.217172   0.005664
    25  H    0.172708   0.000174
    26  H    0.065095   0.027009
    27  H    0.155902   0.030629
    28  H    0.073332   0.055883
    29  H    0.281051   0.007274
    30  H    0.146431  -0.003640
    31  H    0.064171   0.018300
    32  H    0.086895   0.032803
    33  H    0.157080   0.014690
    34  H    0.186545   0.000121
    35  H    0.179308   0.016793
    36  H    0.178509   0.020103
 Sum of Mulliken charges =  -1.00000   1.00000

 Dipole moment (field-independent basis, Debye):
    X=             -0.2651    Y=              2.2243    Z=             -0.3480  Tot=              2.2669
 Quadrupole moment (field-independent basis, Debye-Ang):
   XX=           -137.8850   YY=           -150.1837   ZZ=           -136.7388
   XY=             10.4796   XZ=             -7.8772   YZ=             -4.0786

 Summary of Natural Population Analysis:

                                       Natural Population
                Natural  -----------------------------------------------
    Atom  No    Charge         Core      Valence    Rydberg      Total
 -----------------------------------------------------------------------
      C    1   -0.29235      0.99966     2.28826    0.00443     3.29235
      C    2   -0.09325      0.99965     2.08117    0.01242     3.09325
      N    3   -0.33575      0.99973     2.82400    0.01203     3.83575
      C    4   -0.07830      0.99963     2.06878    0.00988     3.07830
      C    5   -0.24056      0.99958     2.23284    0.00815     3.24056
      C    6    0.35966      0.99968     1.61679    0.02388     2.64034
      O    7   -0.32176      0.99987     3.31552    0.00637     4.32176
      N    8   -0.32384      0.99962     2.81323    0.01099     3.82384
      C    9    0.11202      0.99943     1.87460    0.01395     2.88798
      C   10   -0.13099      0.99953     2.12338    0.00808     3.13099
      C   11   -0.01484      0.99957     2.00485    0.01043     3.01484
      C   12   -0.13245      0.99957     2.12207    0.01081     3.13245
      C   13   -0.06526      0.99953     2.05563    0.01010     3.06526
      C   14   -0.09253      0.99932     2.07666    0.01654     3.09253
      S   15    1.04772      4.99920     1.85957    0.09350     6.95228
      O   16   -0.47571      0.99991     3.46936    0.00644     4.47571
      O   17   -0.48149      0.99990     3.47451    0.00707     4.48149
      C   18   -0.38586      0.99962     2.38001    0.00623     3.38586
      H   19    0.08495      0.00000     0.41400    0.00105     0.41505
      H   20    0.09622      0.00000     0.40297    0.00081     0.40378
      H   21    0.12076      0.00000     0.37817    0.00107     0.37924
      H   22    0.06772      0.00000     0.43057    0.00171     0.43228
      H   23    0.10051      0.00000     0.39641    0.00308     0.39949
      H   24    0.16906      0.00000     0.32825    0.00269     0.33094
      H   25    0.09791      0.00000     0.40078    0.00131     0.40209
      H   26    0.07322      0.00000     0.42437    0.00242     0.42678
      H   27    0.10431      0.00000     0.39432    0.00137     0.39569
      H   28    0.11102      0.00000     0.38718    0.00180     0.38898
      H   29    0.21350      0.00000     0.28474    0.00176     0.28650
      H   30    0.09531      0.00000     0.40319    0.00150     0.40469
      H   31    0.08766      0.00000     0.41136    0.00097     0.41234
      H   32    0.09336      0.00000     0.40565    0.00099     0.40664
      H   33    0.10039      0.00000     0.39836    0.00125     0.39961
      H   34    0.11013      0.00000     0.38902    0.00085     0.38987
      H   35    0.11055      0.00000     0.38862    0.00084     0.38945
      H   36    0.10898      0.00000     0.38988    0.00114     0.39102
 =======================================================================
   * Total *   -0.00000     21.99300    49.70908    0.29793    72.00000

 Normal termination of Gaussian 16 at Fri Dec 11 19:51:20 2020.
