 Gaussian 16, Revision A.03,

 -----------------------------------------------------------
 # opt freq B3LYP/6-31G(d) empiricaldispersion=gd3bj scf=xqc
 -----------------------------------------------------------

 -------------------------------
 CID_151566646_JID_2134_neutraal
 -------------------------------
 Symbolic Z-matrix:
 Charge =  0 Multiplicity = 1

 SCF Done:  E(RB3LYP) =  -614.795607996     A.U. after   16 cycles
 SCF Done:  E(RB3LYP) =  -614.820641795     A.U. after   13 cycles
 SCF Done:  E(RB3LYP) =  -614.833181230     A.U. after   13 cycles
 SCF Done:  E(RB3LYP) =  -614.840031726     A.U. after   13 cycles
 SCF Done:  E(RB3LYP) =  -614.844091775     A.U. after   13 cycles
 SCF Done:  E(RB3LYP) =  -614.842613008     A.U. after   13 cycles
 SCF Done:  E(RB3LYP) =  -614.845763314     A.U. after   12 cycles
 SCF Done:  E(RB3LYP) =  -614.846061000     A.U. after   13 cycles
 SCF Done:  E(RB3LYP) =  -614.846378521     A.U. after   12 cycles
 SCF Done:  E(RB3LYP) =  -614.846979359     A.U. after   12 cycles
 SCF Done:  E(RB3LYP) =  -614.863733231     A.U. after   11 cycles
 SCF Done:  E(RB3LYP) =  -614.863739764     A.U. after    9 cycles
 SCF Done:  E(RB3LYP) =  -614.863741888     A.U. after    8 cycles
 SCF Done:  E(RB3LYP) =  -614.863743991     A.U. after    9 cycles
 SCF Done:  E(RB3LYP) =  -614.863744499     A.U. after    8 cycles
 Optimization completed.
    -- Stationary point found.

 1\1\GINC-NODE301\FOpt\RB3LYP\6-31G(d)\C3H13N9\VSC10255\09-Dec-2020\0\\
 # opt freq B3LYP/6-31G(d) empiricaldispersion=gd3bj scf=xqc\\CID_15156
 6646_JID_2134_neutraal\\0,1\C,0.7678272896,0.068257953,-0.080063057\C,
 0.4265613565,-0.1896780636,1.4247099521\N,0.8559763416,0.9189566589,2.
 2536536875\N,-1.0282462932,-0.4303427256,1.5303270532\N,1.1562883875,-
 1.3558345513,1.9252520004\C,0.1114187534,1.3006996642,-0.7781706804\N,
 0.6620326433,1.3986167865,-2.1148967144\N,-1.3052598467,1.1285185568,-
 0.8590674521\N,0.3799886564,2.6065561395,0.0284909769\N,1.5657609823,2

 Normal termination of Gaussian 16 at Wed Dec  9 17:38:33 2020.

 --------------------------------------------------------------------
 #N Geom=AllCheck Guess=TCheck SCRF=Check GenChk RB3LYP/6-31G(d) Freq
 --------------------------------------------------------------------

 Structure from the checkpoint file:  "JID_2134.chk"
 -------------------------------
 CID_151566646_JID_2134_neutraal
 -------------------------------
 Charge =  0 Multiplicity = 1

 SCF Done:  E(RB3LYP) =  -614.863744498     A.U. after    1 cycles

  Exact polarizability:  97.532  -8.185 100.361  -6.320   8.627  82.779
 Approx polarizability: 135.692 -28.918 165.292 -22.019  34.733 142.891

                      1                      2                      3
                      A                      A                      A
 Frequencies --     54.3673                73.1889               127.4354
 Red. masses --      6.9647                 5.1896                 4.8552
 Frc consts  --      0.0121                 0.0164                 0.0465
 IR Inten    --      0.1232                 0.5295                 0.8972

                      4                      5                      6
                      A                      A                      A
 Frequencies --    156.9682               214.3388               230.4993
 Red. masses --      4.7912                 1.1542                 3.8850
 Frc consts  --      0.0696                 0.0312                 0.1216
 IR Inten    --      0.5984                60.1841                 5.4608

                      7                      8                      9
                      A                      A                      A
 Frequencies --    256.4304               278.5248               302.0011
 Red. masses --      1.4485                 3.9916                 2.4390
 Frc consts  --      0.0561                 0.1824                 0.1311
 IR Inten    --      7.1127                 1.6033                 6.7959

                     10                     11                     12
                      A                      A                      A
 Frequencies --    308.6990               331.3284               338.5257
 Red. masses --      3.0635                 1.5812                 3.2081
 Frc consts  --      0.1720                 0.1023                 0.2166
 IR Inten    --      1.4631                19.1330                 4.8239

                     13                     14                     15
                      A                      A                      A
 Frequencies --    375.2289               389.6132               404.6039
 Red. masses --      1.9240                 1.2138                 1.5481
 Frc consts  --      0.1596                 0.1086                 0.1493
 IR Inten    --     74.5309                47.9914                41.4365

                     16                     17                     18
                      A                      A                      A
 Frequencies --    417.6500               434.7041               465.4646
 Red. masses --      1.7831                 2.2221                 3.0918
 Frc consts  --      0.1832                 0.2474                 0.3947
 IR Inten    --     29.2756                58.1848                24.7552

                     19                     20                     21
                      A                      A                      A
 Frequencies --    476.7202               508.1455               551.9504
 Red. masses --      2.5810                 2.8119                 1.9278
 Frc consts  --      0.3456                 0.4278                 0.3460
 IR Inten    --     32.0954                30.8025                24.9224

                     22                     23                     24
                      A                      A                      A
 Frequencies --    574.7503               595.0219               628.6574
 Red. masses --      3.9251                 7.4349                 3.1670
 Frc consts  --      0.7639                 1.5509                 0.7374
 IR Inten    --     14.0059                22.1950                21.6585

                     25                     26                     27
                      A                      A                      A
 Frequencies --    708.8084               778.8585               805.6182
 Red. masses --      4.5781                 4.3977                 4.5144
 Frc consts  --      1.3552                 1.5718                 1.7263
 IR Inten    --     16.5237                18.6227                20.3298

                     28                     29                     30
                      A                      A                      A
 Frequencies --    860.9606               868.2199               913.0446
 Red. masses --      2.1825                 2.5251                 1.6305
 Frc consts  --      0.9532                 1.1215                 0.8009
 IR Inten    --     47.8464               130.8243                65.4007

                     31                     32                     33
                      A                      A                      A
 Frequencies --    952.0222               960.8880               979.8012
 Red. masses --      1.9357                 2.0848                 1.4206
 Frc consts  --      1.0337                 1.1341                 0.8035
 IR Inten    --    190.8019               125.3140               303.8467

                     34                     35                     36
                      A                      A                      A
 Frequencies --   1013.2064              1021.9047              1074.4919
 Red. masses --      2.1669                 2.0696                 1.3912
 Frc consts  --      1.3106                 1.2734                 0.9463
 IR Inten    --    199.0182               135.9843               114.2585

                     37                     38                     39
                      A                      A                      A
 Frequencies --   1079.3327              1100.2564              1140.9584
 Red. masses --      1.8383                 1.4180                 1.4538
 Frc consts  --      1.2617                 1.0114                 1.1150
 IR Inten    --     52.0431                31.0157                26.4428

                     40                     41                     42
                      A                      A                      A
 Frequencies --   1159.1467              1219.2356              1273.8962
 Red. masses --      1.6256                 1.4577                 1.4922
 Frc consts  --      1.2869                 1.2767                 1.4267
 IR Inten    --     45.3263                18.7625                18.0185

                     43                     44                     45
                      A                      A                      A
 Frequencies --   1305.9622              1321.1505              1350.8043
 Red. masses --     11.2702                 1.8205                 2.0243
 Frc consts  --     11.3251                 1.8722                 2.1762
 IR Inten    --    118.0369                70.3373                26.0593

                     46                     47                     48
                      A                      A                      A
 Frequencies --   1391.0323              1421.0406              1431.3905
 Red. masses --      1.7180                 1.5939                 1.5298
 Frc consts  --      1.9586                 1.8964                 1.8468
 IR Inten    --     23.8517                18.7989                17.9138

                     49                     50                     51
                      A                      A                      A
 Frequencies --   1445.3906              1670.2005              1675.2843
 Red. masses --      1.8714                 1.1019                 1.0959
 Frc consts  --      2.3034                 1.8111                 1.8121
 IR Inten    --     18.9272                61.7870                58.1271

                     52                     53                     54
                      A                      A                      A
 Frequencies --   1685.4626              1693.9148              1711.4358
 Red. masses --      1.0895                 1.0990                 1.0969
 Frc consts  --      1.8236                 1.8579                 1.8930
 IR Inten    --     27.5503                24.1603                59.4379

                     55                     56                     57
                      A                      A                      A
 Frequencies --   1731.4426              2237.5928              3077.1871
 Red. masses --      1.0794                13.8476                 1.0857
 Frc consts  --      1.9066                40.8495                 6.0573
 IR Inten    --     33.8829               482.3508                15.4363

                     58                     59                     60
                      A                      A                      A
 Frequencies --   3410.7853              3440.8775              3449.0705
 Red. masses --      1.0577                 1.0507                 1.0492
 Frc consts  --      7.2495                 7.3296                 7.3538
 IR Inten    --    122.8293                 1.1507                 4.6583

                     61                     62                     63
                      A                      A                      A
 Frequencies --   3458.6412              3474.4323              3477.9757
 Red. masses --      1.0555                 1.0493                 1.0507
 Frc consts  --      7.4393                 7.4627                 7.4884
 IR Inten    --      6.3946                 0.2868                 3.7677

                     64                     65                     66
                      A                      A                      A
 Frequencies --   3522.9658              3536.9788              3543.9528
 Red. masses --      1.0899                 1.0915                 1.0868
 Frc consts  --      7.9699                 8.0452                 8.0424
 IR Inten    --      0.2386                 6.2164                19.0966

                     67                     68                     69
                      A                      A                      A
 Frequencies --   3549.6064              3564.9075              3579.2020
 Red. masses --      1.0853                 1.0935                 1.0915
 Frc consts  --      8.0564                 8.1880                 8.2388
 IR Inten    --      5.0708                 0.8196                 8.1089

 - Thermochemistry -
 -------------------
 Temperature   298.150 Kelvin.  Pressure   1.00000 Atm.
 Atom     1 has atomic number  6 and mass  12.00000

 Molecular mass:   175.12939 amu.
 Principal axes and moments of inertia in atomic units:
                           1         2         3
     Eigenvalues --  1462.820122196.068042734.48891
           X            0.99842   0.05619  -0.00241
           Y           -0.05621   0.99837  -0.00938
           Z            0.00188   0.00951   0.99995
 This molecule is an asymmetric top.
 Rotational symmetry number  1.
 Warning -- assumption of classical behavior for rotation
           may cause significant error
 Rotational temperatures (Kelvin)      0.05921     0.03944     0.03167
 Rotational constants (GHZ):           1.23374     0.82181     0.65999
 Zero-point vibrational energy     559637.9 (Joules/Mol)
                                  133.75668 (Kcal/Mol)
 Warning -- explicit consideration of  23 degrees of freedom as
           vibrations may cause significant error
 Vibrational temperatures:     78.22   105.30   183.35   225.84   308.39
          (Kelvin)            331.64   368.95   400.74   434.51   444.15
                              476.71   487.06   539.87   560.57   582.13
                              600.91   625.44   669.70   685.89   731.11
                              794.13   826.94   856.10   904.50  1019.82
                             1120.60  1159.10  1238.73  1249.17  1313.67
                             1369.75  1382.50  1409.72  1457.78  1470.29
                             1545.95  1552.92  1583.02  1641.58  1667.75
                             1754.21  1832.85  1878.99  1900.84  1943.51
                             2001.39  2044.56  2059.45  2079.59  2403.05
                             2410.36  2425.00  2437.17  2462.37  2491.16
                             3219.40  4427.39  4907.36  4950.66  4962.44
                             4976.21  4998.93  5004.03  5068.76  5088.92
                             5098.96  5107.09  5129.11  5149.67

 Zero-point correction=                           0.213155 (Hartree/Particle)
 Thermal correction to Energy=                    0.226247
 Thermal correction to Enthalpy=                  0.227192
 Thermal correction to Gibbs Free Energy=         0.175138
 Sum of electronic and zero-point Energies=           -614.650590
 Sum of electronic and thermal Energies=              -614.637497
 Sum of electronic and thermal Enthalpies=            -614.636553
 Sum of electronic and thermal Free Energies=         -614.688607

                     E (Thermal)             CV                S
                      KCal/Mol        Cal/Mol-Kelvin    Cal/Mol-Kelvin
 Total                  141.972             51.179            109.557
 Electronic               0.000              0.000              0.000
 Translational            0.889              2.981             41.388
 Rotational               0.889              2.981             30.553
 Vibrational            140.195             45.218             37.616
 Vibration     1          0.596              1.976              4.652
 Vibration     2          0.599              1.967              4.066
 Vibration     3          0.611              1.926              2.984
 Vibration     4          0.621              1.895              2.586
 Vibration     5          0.644              1.819              2.006
 Vibration     6          0.652              1.794              1.875
 Vibration     7          0.666              1.752              1.686
 Vibration     8          0.679              1.713              1.543
 Vibration     9          0.694              1.670              1.406
 Vibration    10          0.698              1.657              1.369
 Vibration    11          0.714              1.613              1.254
 Vibration    12          0.719              1.599              1.219
 Vibration    13          0.746              1.523              1.058
 Vibration    14          0.758              1.492              1.002
 Vibration    15          0.770              1.460              0.946
 Vibration    16          0.781              1.432              0.900
 Vibration    17          0.795              1.395              0.843
 Vibration    18          0.823              1.327              0.750
 Vibration    19          0.833              1.302              0.719
 Vibration    20          0.863              1.232              0.638
 Vibration    21          0.907              1.135              0.540
 Vibration    22          0.931              1.086              0.495
 Vibration    23          0.953              1.042              0.458

                           ! Non-Optimized Parameters !

 1\1\GINC-NODE301\Freq\RB3LYP\6-31G(d)\C3H13N9\VSC10255\09-Dec-2020\0\\
 #N Geom=AllCheck Guess=TCheck SCRF=Check GenChk RB3LYP/6-31G(d) Freq\\
 CID_151566646_JID_2134_neutraal\\0,1\C,0.7678272896,0.068257953,-0.080
 063057\C,0.4265613565,-0.1896780636,1.4247099521\N,0.8559763416,0.9189
 566589,2.2536536875\N,-1.0282462932,-0.4303427256,1.5303270532\N,1.156
 2883875,-1.3558345513,1.9252520004\C,0.1114187534,1.3006996642,-0.7781
 706804\N,0.6620326433,1.3986167865,-2.1148967144\N,-1.3052598467,1.128
 5185568,-0.8590674521\N,0.3799886564,2.6065561395,0.0284909769\N,1.565

 Normal termination of Gaussian 16 at Wed Dec  9 17:44:54 2020.

 ----------------------------------------------------------------------
 # B3LYP/6-311++G(d,p) empiricaldispersion=gd3bj scf=xqc pop=npa geom=c
 heck
 ----------------------------------------------------------------------

 ---------------------------------------
 CID_151566646_JID_2134_Energie_neutraal
 ---------------------------------------
 Structure from the checkpoint file:  "JID_2134.chk"
 Charge =  0 Multiplicity = 1

 SCF Done:  E(RB3LYP) =  -615.082270905     A.U. after   15 cycles
 Normal termination of Gaussian 16 at Wed Dec  9 17:48:41 2020.

 ----------------------------------------------------------------------
 # B3LYP/6-311++G(d,p) empiricaldispersion=gd3bj scf=xqc pop=npa geom=c
 heck
 ----------------------------------------------------------------------

 -------------------------------------
 CID_151566646_JID_2134_Energie_kation
 -------------------------------------
 Structure from the checkpoint file:  "JID_2134.chk"
 Charge =  1 Multiplicity = 2

 SCF Done:  E(UB3LYP) =  -614.767363910     A.U. after   29 cycles
 Normal termination of Gaussian 16 at Wed Dec  9 17:56:47 2020.
 Gaussian 16:  ES64L-G16RevA.03 25-Dec-2016

 ------------------------------------
 CID_151566646_JID_2134_Energie_anion
 ------------------------------------
 Structure from the checkpoint file:  "JID_2134.chk"
 Charge = -1 Multiplicity = 2

                         Standard orientation:
 ---------------------------------------------------------------------
 Center     Atomic      Atomic             Coordinates (Angstroms)
 Number     Number       Type             X           Y           Z
 ---------------------------------------------------------------------
      1          6           0       -0.375802    0.356828   -0.645215
      2          6           0       -1.445532   -0.548240    0.050388
      3          7           0       -0.862251   -1.800080    0.490042
      4          7           0       -2.032126    0.214786    1.172546
      5          7           0       -2.498615   -0.920287   -0.895954
      6          6           0        0.850991    0.821620    0.201004
      7          7           0        1.749829    1.540955   -0.678911
      8          7           0        0.426132    1.686473    1.256794
      9          7           0        1.571507   -0.396276    0.853446
     10          7           0        2.082497   -1.175667    0.048654
     11          7           0        2.598468   -1.917851   -0.653543
     12          7           0       -1.067957    1.525738   -1.210544
     13          1           0        0.013607   -0.249007   -1.470913
     14          1           0       -1.621699   -2.414443    0.780984
     15          1           0       -0.254045   -1.636590    1.287946
     16          1           0       -2.785024   -0.358513    1.555180
     17          1           0       -2.495840    1.041540    0.789575
     18          1           0       -2.749644   -0.075711   -1.411730
     19          1           0       -2.102294   -1.571395   -1.574579
     20          1           0        2.465142    2.019775   -0.135089
     21          1           0        2.226308    0.901919   -1.313505
     22          1           0       -0.322426    1.220901    1.777170
     23          1           0        1.201024    1.884546    1.886380
     24          1           0       -1.019992    2.265913   -0.507718
     25          1           0       -0.505445    1.885276   -1.978475
 ---------------------------------------------------------------------

 SCF Done:  E(UB3LYP) =  -615.072318252     A.U. after   33 cycles
 SCF Done:  E(UB3LYP) =  -615.072318252     a.u. after    1 cycles

 The electronic state is 2-A.
 Alpha  occ. eigenvalues --  -14.34192 -14.24362 -14.22542 -14.19485 -14.19113
 Alpha  occ. eigenvalues --  -14.18903 -14.18611 -14.18512 -14.18004 -10.16484
 Alpha  occ. eigenvalues --  -10.15295 -10.09972  -1.00791  -0.86970  -0.84911
 Alpha  occ. eigenvalues --   -0.81319  -0.77039  -0.74555  -0.73735  -0.73355
 Alpha  occ. eigenvalues --   -0.60329  -0.52799  -0.47403  -0.44446  -0.43284
 Alpha  occ. eigenvalues --   -0.41550  -0.39726  -0.38916  -0.37871  -0.37315
 Alpha  occ. eigenvalues --   -0.36196  -0.35039  -0.33624  -0.32761  -0.31776
 Alpha  occ. eigenvalues --   -0.30909  -0.29881  -0.28086  -0.25207  -0.21510
 Alpha  occ. eigenvalues --   -0.17083  -0.16626  -0.15892  -0.15404  -0.14444
 Alpha  occ. eigenvalues --   -0.14366  -0.12352   0.04768
 Alpha virt. eigenvalues --    0.07214   0.07431   0.08568   0.09126   0.10062
 Alpha virt. eigenvalues --    0.10935   0.11196   0.12444   0.12676   0.13149
 Alpha virt. eigenvalues --    0.14203   0.14567   0.15474   0.16080   0.16698

  Beta  occ. eigenvalues --  -14.34023 -14.24077 -14.22607 -14.19434 -14.19076
  Beta  occ. eigenvalues --  -14.18881 -14.18590 -14.18494 -14.17954 -10.16432
  Beta  occ. eigenvalues --  -10.15293 -10.09965  -1.00432  -0.86867  -0.84847
  Beta  occ. eigenvalues --   -0.81194  -0.76990  -0.74483  -0.73668  -0.73314
  Beta  occ. eigenvalues --   -0.60240  -0.52663  -0.47334  -0.44274  -0.43218
  Beta  occ. eigenvalues --   -0.41475  -0.39624  -0.38848  -0.37534  -0.37132
  Beta  occ. eigenvalues --   -0.35845  -0.34965  -0.33573  -0.32269  -0.31555
  Beta  occ. eigenvalues --   -0.30829  -0.29836  -0.28043  -0.25172  -0.21254
  Beta  occ. eigenvalues --   -0.17041  -0.16584  -0.15720  -0.15345  -0.14389
  Beta  occ. eigenvalues --   -0.14223  -0.12299
  Beta virt. eigenvalues --    0.07154   0.08302   0.08735   0.09429   0.09595
  Beta virt. eigenvalues --    0.10793   0.11252   0.11570   0.12814   0.12947
  Beta virt. eigenvalues --    0.13401   0.14475   0.14866   0.15704   0.16406

 Mulliken charges and spin densities:
               1          2
     1  C    2.353353  -1.999423
     2  C    0.079131  -1.138246
     3  N   -0.534098   0.161851
     4  N   -0.473519   0.105966
     5  N   -0.459507   0.180114
     6  C   -0.656513  -0.068820
     7  N   -0.435285   0.113828
     8  N   -0.431146  -0.001502
     9  N   -0.608993   0.638287
    10  N    0.552525  -0.117765
    11  N   -0.025835  -0.332144
    12  N   -0.589047   0.347462
    13  H    0.271046  -0.057140
    14  H   -0.019954   0.266632
    15  H    0.167240   0.083129
    16  H   -0.153459   0.414689
    17  H   -0.025319   0.279718
    18  H    0.151032   0.111362
    19  H    0.112765   0.122812
    20  H   -0.387538   0.649041
    21  H    0.064344   0.186229
    22  H    0.340028   0.011492
    23  H   -0.375298   0.629508
    24  H    0.064499   0.169575
    25  H    0.019548   0.243348
 Sum of Mulliken charges =  -1.00000   1.00000

 Dipole moment (field-independent basis, Debye):
    X=             -1.7670    Y=             -1.2825    Z=             -1.8597  Tot=              2.8680
 Quadrupole moment (field-independent basis, Debye-Ang):
   XX=           -122.4480   YY=           -112.5966   ZZ=           -100.1442
   XY=             -3.1951   XZ=             -0.6711   YZ=             -2.8626

 Summary of Natural Population Analysis:

                                       Natural Population
                Natural  -----------------------------------------------
    Atom  No    Charge         Core      Valence    Rydberg      Total
 -----------------------------------------------------------------------
      C    1   -0.03133      0.99946     2.01547    0.01641     3.03133
      C    2    0.23212      0.99963     1.74975    0.01850     2.76788
      N    3   -0.43139      0.99973     2.92128    0.01038     3.93139
      N    4   -0.44142      0.99974     2.92999    0.01169     3.94142
      N    5   -0.43797      0.99974     2.92806    0.01016     3.93797
      C    6    0.23074      0.99959     1.74891    0.02077     2.76926
      N    7   -0.42370      0.99973     2.91243    0.01155     3.92370
      N    8   -0.43666      0.99971     2.92603    0.01092     3.93666
      N    9   -0.22648      0.99970     2.71061    0.01617     3.72648
      N   10    0.12718      0.99969     2.35631    0.01681     3.37282
      N   11   -0.02961      0.99982     2.51692    0.01287     3.52961
      N   12   -0.43551      0.99977     2.92615    0.00959     3.93551
      H   13    0.10153      0.00000     0.39677    0.00170     0.39847
      H   14    0.17556      0.00000     0.32262    0.00181     0.32444
      H   15    0.18968      0.00000     0.30796    0.00236     0.31032
      H   16    0.18030      0.00000     0.31662    0.00308     0.31970
      H   17    0.17932      0.00000     0.31867    0.00201     0.32068
      H   18    0.18708      0.00000     0.31049    0.00242     0.31292
      H   19    0.17660      0.00000     0.32170    0.00170     0.32340
      H   20    0.18435      0.00000     0.31073    0.00492     0.31565
      H   21    0.17739      0.00000     0.32077    0.00184     0.32261
      H   22    0.20105      0.00000     0.29565    0.00329     0.29895
      H   23    0.18270      0.00000     0.31284    0.00446     0.31730
      H   24    0.18471      0.00000     0.31227    0.00302     0.31529
      H   25    0.18374      0.00000     0.31424    0.00202     0.31626
 =======================================================================
   * Total *   -0.00000     11.99630    34.80325    0.20045    47.00000

 Normal termination of Gaussian 16 at Wed Dec  9 18:05:21 2020.
