 Gaussian 16, Revision A.03,

 -----------------------------------------------------------
 # opt freq B3LYP/6-31G(d) empiricaldispersion=gd3bj scf=xqc
 -----------------------------------------------------------

 -----------------------------
 CID_1497910_JID_5099_neutraal
 -----------------------------
 Symbolic Z-matrix:
 Charge =  0 Multiplicity = 1

 SCF Done:  E(RB3LYP) =  -1009.35299453     A.U. after   15 cycles
 SCF Done:  E(RB3LYP) =  -1009.35688322     A.U. after   12 cycles
 SCF Done:  E(RB3LYP) =  -1009.35764001     A.U. after   12 cycles
 SCF Done:  E(RB3LYP) =  -1009.35781274     A.U. after   12 cycles
 SCF Done:  E(RB3LYP) =  -1009.35797395     A.U. after   11 cycles
 SCF Done:  E(RB3LYP) =  -1009.35805258     A.U. after   11 cycles
 SCF Done:  E(RB3LYP) =  -1009.35809750     A.U. after   11 cycles
 SCF Done:  E(RB3LYP) =  -1009.35810788     A.U. after   10 cycles
 SCF Done:  E(RB3LYP) =  -1009.35811818     A.U. after   11 cycles
 SCF Done:  E(RB3LYP) =  -1009.35811889     A.U. after    8 cycles
 SCF Done:  E(RB3LYP) =  -1009.35811966     A.U. after    8 cycles
 SCF Done:  E(RB3LYP) =  -1009.35811971     A.U. after    8 cycles
 SCF Done:  E(RB3LYP) =  -1009.35811978     A.U. after    8 cycles
 SCF Done:  E(RB3LYP) =  -1009.35811979     A.U. after    8 cycles
 SCF Done:  E(RB3LYP) =  -1009.35811981     A.U. after    7 cycles
 Optimization completed.
    -- Stationary point found.
 Normal termination of Gaussian 16 at Thu Dec 10 14:47:50 2020.

 --------------------------------------------------------------------
 #N Geom=AllCheck Guess=TCheck SCRF=Check GenChk RB3LYP/6-31G(d) Freq
 --------------------------------------------------------------------

 Structure from the checkpoint file:  "JID_5099.chk"
 -----------------------------
 CID_1497910_JID_5099_neutraal
 -----------------------------
 Charge =  0 Multiplicity = 1

 SCF Done:  E(RB3LYP) =  -1009.35811981     A.U. after    1 cycles

  Exact polarizability: 219.611  -4.577 155.622 -10.223 -11.261  74.787
 Approx polarizability: 314.413 -27.450 282.768 -19.574 -26.226 115.179

                      1                      2                      3
                      A                      A                      A
 Frequencies --     17.1089                21.6929                82.9362
 Red. masses --      4.2703                 4.8385                 6.9903
 Frc consts  --      0.0007                 0.0013                 0.0283
 IR Inten    --      0.2778                 1.2940                 1.8252

                      4                      5                      6
                      A                      A                      A
 Frequencies --     96.3273               116.2736               153.3547
 Red. masses --      3.6940                 4.9815                 2.5741
 Frc consts  --      0.0202                 0.0397                 0.0357
 IR Inten    --      1.6973                 2.3660                 9.1549

                      7                      8                      9
                      A                      A                      A
 Frequencies --    230.5253               249.7599               260.0860
 Red. masses --      4.1857                 4.1582                 3.3890
 Frc consts  --      0.1311                 0.1528                 0.1351
 IR Inten    --      0.4549                11.4381                15.8891

                     10                     11                     12
                      A                      A                      A
 Frequencies --    277.8876               298.7361               328.3725
 Red. masses --      1.4634                 6.5605                 2.8244
 Frc consts  --      0.0666                 0.3450                 0.1794
 IR Inten    --     65.6458                 4.8615                 8.7499

                     13                     14                     15
                      A                      A                      A
 Frequencies --    376.9583               381.0346               442.4148
 Red. masses --      1.1043                 5.3140                 2.5644
 Frc consts  --      0.0925                 0.4546                 0.2957
 IR Inten    --    119.2862                 5.7326                10.7885

                     16                     17                     18
                      A                      A                      A
 Frequencies --    457.7154               482.8049               544.4317
 Red. masses --      3.2404                 4.0231                 6.9762
 Frc consts  --      0.4000                 0.5525                 1.2183
 IR Inten    --      1.2729                 9.8959                 0.4523

                     19                     20                     21
                      A                      A                      A
 Frequencies --    562.5288               587.4973               619.1323
 Red. masses --      5.2268                 5.6692                 5.3819
 Frc consts  --      0.9745                 1.1529                 1.2155
 IR Inten    --      1.8456                 1.1552                 1.5474

                     22                     23                     24
                      A                      A                      A
 Frequencies --    666.9952               679.8041               692.5268
 Red. masses --      3.8298                 5.9825                 2.4157
 Frc consts  --      1.0039                 1.6289                 0.6826
 IR Inten    --      6.5164                 7.2075                 0.5547

                     25                     26                     27
                      A                      A                      A
 Frequencies --    713.6252               759.4246               795.2197
 Red. masses --      2.2125                 1.7391                 1.7305
 Frc consts  --      0.6639                 0.5909                 0.6448
 IR Inten    --      1.9783                56.3806                13.7759

                     28                     29                     30
                      A                      A                      A
 Frequencies --    819.8668               869.9153               879.7641
 Red. masses --      6.7956                 1.6637                 1.4561
 Frc consts  --      2.6913                 0.7418                 0.6640
 IR Inten    --     32.9817                90.1082                 5.3433

                     31                     32                     33
                      A                      A                      A
 Frequencies --    883.1290               891.3627               896.0833
 Red. masses --      1.4625                 1.5091                 4.0454
 Frc consts  --      0.6720                 0.7064                 1.9139
 IR Inten    --      5.7570                14.6021                 1.6590

                     34                     35                     36
                      A                      A                      A
 Frequencies --    906.7177               962.7882               977.5455
 Red. masses --      2.3585                 1.2552                 3.9406
 Frc consts  --      1.1425                 0.6855                 2.2186
 IR Inten    --     27.7865                 0.1242                 2.7133

                     37                     38                     39
                      A                      A                      A
 Frequencies --   1019.3470              1056.3645              1106.3470
 Red. masses --      6.1365                 2.0769                 2.2741
 Frc consts  --      3.7568                 1.3655                 1.6400
 IR Inten    --      1.5245                 3.6801                15.5504

                     40                     41                     42
                      A                      A                      A
 Frequencies --   1111.0769              1114.1651              1154.9657
 Red. masses --      1.8908                 1.5782                 2.6853
 Frc consts  --      1.3753                 1.1543                 2.1104
 IR Inten    --      4.3074                 4.6358                58.5530

                     43                     44                     45
                      A                      A                      A
 Frequencies --   1184.5189              1200.5994              1215.0273
 Red. masses --      1.2897                 1.1611                 1.6752
 Frc consts  --      1.0662                 0.9861                 1.4571
 IR Inten    --     18.4133                25.2586               115.6899

                     46                     47                     48
                      A                      A                      A
 Frequencies --   1218.6380              1265.6495              1297.9260
 Red. masses --      1.2400                 1.4216                 2.1729
 Frc consts  --      1.0850                 1.3417                 2.1567
 IR Inten    --     67.8909                 1.1779                51.0908

                     49                     50                     51
                      A                      A                      A
 Frequencies --   1350.2714              1358.7118              1369.0362
 Red. masses --      3.5056                 1.3169                 1.9293
 Frc consts  --      3.7658                 1.4324                 2.1305
 IR Inten    --     23.7518                 5.0808                24.7925

                     52                     53                     54
                      A                      A                      A
 Frequencies --   1377.5621              1381.6926              1433.6738
 Red. masses --      1.4278                 3.6909                 1.3953
 Frc consts  --      1.5964                 4.1515                 1.6898
 IR Inten    --      4.5029                19.2487                23.8525

                     55                     56                     57
                      A                      A                      A
 Frequencies --   1487.5616              1496.5789              1534.1631
 Red. masses --      2.9609                 1.1099                 1.5722
 Frc consts  --      3.8603                 1.4646                 2.1803
 IR Inten    --     49.7160                 6.0960                12.6926

                     58                     59                     60
                      A                      A                      A
 Frequencies --   1538.9187              1573.5939              1578.8792
 Red. masses --      1.8449                 3.8534                 7.8949
 Frc consts  --      2.5743                 5.6219                11.5957
 IR Inten    --     26.1749                 4.2666                65.8023

                     61                     62                     63
                      A                      A                      A
 Frequencies --   1659.0345              1668.0794              1699.6240
 Red. masses --      6.0525                 5.8768                 1.0885
 Frc consts  --      9.8151                 9.6344                 1.8526
 IR Inten    --     67.0074                74.9758                37.0519

                     64                     65                     66
                      A                      A                      A
 Frequencies --   2983.1990              3072.2088              3086.1150
 Red. masses --      1.0716                 1.0647                 1.0857
 Frc consts  --      5.6188                 5.9206                 6.0921
 IR Inten    --     54.8181                 5.2640                59.6845

                     67                     68                     69
                      A                      A                      A
 Frequencies --   3126.2846              3190.8041              3201.3706
 Red. masses --      1.1057                 1.0866                 1.0899
 Frc consts  --      6.3674                 6.5183                 6.5814
 IR Inten    --     10.2376                11.3773                 7.5738

                     70                     71                     72
                      A                      A                      A
 Frequencies --   3210.3954              3222.2233              3283.9322
 Red. masses --      1.0918                 1.0946                 1.0937
 Frc consts  --      6.6300                 6.6962                 6.9490
 IR Inten    --     14.2310                10.7066                 2.6925

                     73                     74                     75
                      A                      A                      A
 Frequencies --   3476.1897              3559.5183              3749.7089
 Red. masses --      1.0500                 1.0923                 1.0658
 Frc consts  --      7.4759                 8.1542                 8.8293
 IR Inten    --      1.0404                 0.0719                34.6529

 - Thermochemistry -
 -------------------
 Temperature   298.150 Kelvin.  Pressure   1.00000 Atm.
 Atom     1 has atomic number  6 and mass  12.00000

 Molecular mass:   220.06703 amu.
 Principal axes and moments of inertia in atomic units:
                           1         2         3
     Eigenvalues --  1617.255746807.278187959.84778
           X            0.99976   0.02152   0.00303
           Y           -0.02149   0.99972  -0.00998
           Z           -0.00325   0.00991   0.99995
 This molecule is an asymmetric top.
 Rotational symmetry number  1.
 Warning -- assumption of classical behavior for rotation
           may cause significant error
 Rotational temperatures (Kelvin)      0.05356     0.01272     0.01088
 Rotational constants (GHZ):           1.11593     0.26512     0.22673
 Zero-point vibrational energy     565811.5 (Joules/Mol)
                                  135.23221 (Kcal/Mol)
 Warning -- explicit consideration of  21 degrees of freedom as
           vibrations may cause significant error
 Vibrational temperatures:     24.62    31.21   119.33   138.59   167.29
          (Kelvin)            220.64   331.67   359.35   374.21   399.82
                              429.81   472.45   542.36   548.22   636.54
                              658.55   694.65   783.32   809.35   845.28
                              890.79   959.66   978.09   996.39  1026.75
                             1092.64  1144.14  1179.61  1251.61  1265.78
                             1270.63  1282.47  1289.26  1304.56  1385.24
                             1406.47  1466.61  1519.87  1591.79  1598.59
                             1603.04  1661.74  1704.26  1727.39  1748.15
                             1753.35  1820.99  1867.43  1942.74  1954.88
                             1969.74  1982.00  1987.95  2062.74  2140.27
                             2153.24  2207.32  2214.16  2264.05  2271.66
                             2386.98  2399.99  2445.38  4292.16  4420.22
                             4440.23  4498.03  4590.86  4606.06  4619.04
                             4636.06  4724.85  5001.46  5121.35  5394.99

 Zero-point correction=                           0.215506 (Hartree/Particle)
 Thermal correction to Energy=                    0.229302
 Thermal correction to Enthalpy=                  0.230246
 Thermal correction to Gibbs Free Energy=         0.172686
 Sum of electronic and zero-point Energies=          -1009.142614
 Sum of electronic and thermal Energies=             -1009.128818
 Sum of electronic and thermal Enthalpies=           -1009.127873
 Sum of electronic and thermal Free Energies=        -1009.185433

                     E (Thermal)             CV                S
                      KCal/Mol        Cal/Mol-Kelvin    Cal/Mol-Kelvin
 Total                  143.889             52.733            121.145
 Electronic               0.000              0.000              0.000
 Translational            0.889              2.981             42.069
 Rotational               0.889              2.981             32.838
 Vibrational            142.112             46.771             46.238
 Vibration     1          0.593              1.986              6.944
 Vibration     2          0.593              1.985              6.473
 Vibration     3          0.600              1.961              3.820
 Vibration     4          0.603              1.952              3.527
 Vibration     5          0.608              1.936              3.161
 Vibration     6          0.619              1.899              2.630
 Vibration     7          0.652              1.794              1.875
 Vibration     8          0.663              1.763              1.732
 Vibration     9          0.668              1.746              1.661
 Vibration    10          0.679              1.714              1.547
 Vibration    11          0.692              1.676              1.424
 Vibration    12          0.712              1.619              1.268
 Vibration    13          0.748              1.519              1.051
 Vibration    14          0.751              1.511              1.035
 Vibration    15          0.802              1.378              0.819
 Vibration    16          0.816              1.344              0.773
 Vibration    17          0.839              1.288              0.703
 Vibration    18          0.900              1.152              0.556
 Vibration    19          0.918              1.112              0.519
 Vibration    20          0.945              1.058              0.472
 Vibration    21          0.979              0.991              0.418

 Optimization completed.
    -- Stationary point found.
 Normal termination of Gaussian 16 at Thu Dec 10 14:54:57 2020.

 ----------------------------------------------------------------------
 # B3LYP/6-311++G(d,p) empiricaldispersion=gd3bj scf=xqc pop=npa geom=c
 heck
 ----------------------------------------------------------------------

 -------------------------------------
 CID_1497910_JID_5099_Energie_neutraal
 -------------------------------------
 Structure from the checkpoint file:  "JID_5099.chk"
 Charge =  0 Multiplicity = 1

 SCF Done:  E(RB3LYP) =  -1009.56257780     A.U. after   16 cycles
 Normal termination of Gaussian 16 at Thu Dec 10 14:58:00 2020.

 ----------------------------------------------------------------------
 # B3LYP/6-311++G(d,p) empiricaldispersion=gd3bj scf=xqc pop=npa geom=c
 heck
 ----------------------------------------------------------------------

 -----------------------------------
 CID_1497910_JID_5099_Energie_kation
 -----------------------------------
 Structure from the checkpoint file:  "JID_5099.chk"
 Charge =  1 Multiplicity = 2

 SCF Done:  E(UB3LYP) =  -1009.28164333     A.U. after   25 cycles
 Normal termination of Gaussian 16 at Thu Dec 10 15:05:01 2020.
 Gaussian 16:  ES64L-G16RevA.03 25-Dec-2016

 ----------------------------------------------------------------------
 # B3LYP/6-311++G(d,p) empiricaldispersion=gd3bj scf=xqc pop=npa geom=c
 heck
 ----------------------------------------------------------------------

 ----------------------------------
 CID_1497910_JID_5099_Energie_anion
 ----------------------------------
 Structure from the checkpoint file:  "JID_5099.chk"
 Charge = -1 Multiplicity = 2

                         Standard orientation:
 ---------------------------------------------------------------------
 Center     Atomic      Atomic             Coordinates (Angstroms)
 Number     Number       Type             X           Y           Z
 ---------------------------------------------------------------------
      1          6           0       -3.716710   -1.296465    0.487869
      2          6           0       -2.351003   -1.525351    0.335610
      3          6           0       -1.494980   -0.465193    0.002080
      4          6           0       -2.034833    0.816758   -0.170733
      5          6           0       -3.403744    1.034004   -0.015667
      6          6           0       -4.255753   -0.023647    0.315147
      7          8           0       -3.966657    2.270341   -0.177067
      8          6           0       -0.045115   -0.660027   -0.170403
      9          6           0        0.639969   -1.847038   -0.085748
     10         16           0        2.330613   -1.600689   -0.360595
     11          6           0        2.007390    0.118409   -0.586498
     12          7           0        0.753930    0.437046   -0.454492
     13          6           0        3.107478    1.105486   -0.837002
     14          6           0        3.655784    1.717691    0.464744
     15          7           0        4.321338    0.695970    1.274954
     16          1           0       -4.373127   -2.122571    0.746419
     17          1           0       -1.955736   -2.525443    0.479655
     18          1           0       -1.367141    1.633982   -0.427511
     19          1           0       -5.317332    0.167129    0.431107
     20          1           0       -3.265799    2.900412   -0.405907
     21          1           0        0.251433   -2.835439    0.110192
     22          1           0        3.933239    0.627607   -1.373090
     23          1           0        2.697807    1.902899   -1.465639
     24          1           0        4.403113    2.472830    0.195812
     25          1           0        2.829629    2.240447    0.975708
     26          1           0        4.802717    1.135301    2.057007
     27          1           0        3.626881    0.072265    1.682667
 ---------------------------------------------------------------------

 SCF Done:  E(UB3LYP) =  -1009.56017760     A.U. after   33 cycles
 SCF Done:  E(UB3LYP) =  -1009.56017760     a.u. after    1 cycles

 The electronic state is 2-A.
 Alpha  occ. eigenvalues --  -88.73789 -19.04753 -14.18926 -14.17817 -10.11422
 Alpha  occ. eigenvalues --  -10.09653 -10.08556 -10.06653 -10.06248 -10.06000
 Alpha  occ. eigenvalues --  -10.05603 -10.04673 -10.04556 -10.04433 -10.04390
 Alpha  occ. eigenvalues --   -7.82468  -5.78740  -5.78394  -5.78109  -0.95662
 Alpha  occ. eigenvalues --   -0.82942  -0.77919  -0.73393  -0.66548  -0.66037
 Alpha  occ. eigenvalues --   -0.63489  -0.62128  -0.57854  -0.51699  -0.50321
 Alpha  occ. eigenvalues --   -0.48926  -0.45435  -0.41868  -0.40673  -0.38923
 Alpha  occ. eigenvalues --   -0.38112  -0.36232  -0.34970  -0.34704  -0.31680
 Alpha  occ. eigenvalues --   -0.30324  -0.30092  -0.29794  -0.29196  -0.28115
 Alpha  occ. eigenvalues --   -0.25866  -0.25588  -0.25210  -0.23914  -0.23428
 Alpha  occ. eigenvalues --   -0.22410  -0.21929  -0.16321  -0.14857  -0.14524
 Alpha  occ. eigenvalues --   -0.13917  -0.11875  -0.09261   0.04692
 Alpha virt. eigenvalues --    0.06697   0.07814   0.08334   0.08812   0.09523
 Alpha virt. eigenvalues --    0.09912   0.10351   0.11210   0.11292   0.11976
 Alpha virt. eigenvalues --    0.12608   0.13231   0.13817   0.14282   0.14881

  Beta  occ. eigenvalues --  -88.73730 -19.04745 -14.18917 -14.17851 -10.11398
  Beta  occ. eigenvalues --  -10.09495 -10.08517 -10.06641 -10.06253 -10.06029
  Beta  occ. eigenvalues --  -10.05474 -10.04439 -10.04398 -10.04337 -10.04255
  Beta  occ. eigenvalues --   -7.82414  -5.78715  -5.78370  -5.77908  -0.95636
  Beta  occ. eigenvalues --   -0.82812  -0.77892  -0.73236  -0.66318  -0.65640
  Beta  occ. eigenvalues --   -0.63337  -0.62002  -0.57590  -0.51598  -0.50215
  Beta  occ. eigenvalues --   -0.48489  -0.45243  -0.41732  -0.40513  -0.38846
  Beta  occ. eigenvalues --   -0.37999  -0.36153  -0.34816  -0.34602  -0.31634
  Beta  occ. eigenvalues --   -0.30092  -0.29976  -0.29655  -0.28831  -0.28054
  Beta  occ. eigenvalues --   -0.25568  -0.25419  -0.25127  -0.23755  -0.23320
  Beta  occ. eigenvalues --   -0.22054  -0.21713  -0.15536  -0.14544  -0.14237
  Beta  occ. eigenvalues --   -0.13601  -0.11412  -0.07943
  Beta virt. eigenvalues --    0.07207   0.07817   0.08281   0.08956   0.09420
  Beta virt. eigenvalues --    0.09548   0.10282   0.10683   0.11256   0.11480
  Beta virt. eigenvalues --    0.12514   0.12832   0.13186   0.13888   0.14311

 Mulliken charges and spin densities:
               1          2
     1  C   -0.540529  -0.009274
     2  C   -0.605952   0.102385
     3  C    0.936764   0.082705
     4  C   -0.187393  -0.008601
     5  C   -0.553838   0.008095
     6  C   -0.006994   0.045590
     7  O   -0.265902   0.002908
     8  C   -0.460572  -0.183852
     9  C   -0.058963   0.374415
    10  S   -0.489837   0.070239
    11  C    0.496788  -0.148129
    12  N    0.225248   0.000752
    13  C   -0.373852   0.279511
    14  C    0.627621  -0.917312
    15  N   -0.457562   0.065392
    16  H    0.135661   0.003843
    17  H    0.048961  -0.004188
    18  H    0.133054   0.013059
    19  H    0.136858  -0.009765
    20  H    0.239200   0.019140
    21  H    0.224308  -0.016751
    22  H    0.000854   0.154036
    23  H    0.016288   0.145441
    24  H   -0.592102   0.750359
    25  H    0.082320   0.039481
    26  H    0.086398   0.138864
    27  H    0.203172   0.001657
 Sum of Mulliken charges =  -1.00000   1.00000

 Dipole moment (field-independent basis, Debye):
    X=             -3.2868    Y=             -1.3940    Z=              0.7972  Tot=              3.6581
 Quadrupole moment (field-independent basis, Debye-Ang):
   XX=           -173.3384   YY=           -116.2297   ZZ=           -109.8141
   XY=             -7.2338   XZ=              2.8709   YZ=             -2.0916

 Summary of Natural Population Analysis:

                                       Natural Population
                Natural  -----------------------------------------------
    Atom  No    Charge         Core      Valence    Rydberg      Total
 -----------------------------------------------------------------------
      C    1   -0.10260      0.99958     2.09412    0.00889     3.10260
      C    2   -0.10359      0.99954     2.09627    0.00778     3.10359
      C    3    0.00546      0.99949     1.98662    0.00842     2.99454
      C    4   -0.13083      0.99949     2.12257    0.00877     3.13083
      C    5    0.15876      0.99939     1.82985    0.01201     2.84124
      C    6   -0.12423      0.99953     2.11484    0.00986     3.12423
      O    7   -0.34687      0.99988     3.34067    0.00632     4.34687
      C    8    0.04179      0.99947     1.94412    0.01462     2.95821
      C    9   -0.11928      0.99949     2.11114    0.00866     3.11928
      S   10    0.19259      4.99943     2.78783    0.02015     7.80741
      C   11    0.05713      0.99961     1.92407    0.01919     2.94287
      N   12   -0.25835      0.99963     2.74786    0.01085     3.75835
      C   13   -0.21805      0.99957     2.20593    0.01256     3.21805
      C   14   -0.08325      0.99963     2.07217    0.01145     3.08325
      N   15   -0.42686      0.99977     2.91574    0.01135     3.92686
      H   16    0.09227      0.00000     0.40672    0.00101     0.40773
      H   17    0.09622      0.00000     0.40259    0.00119     0.40378
      H   18    0.10721      0.00000     0.39123    0.00156     0.39279
      H   19    0.09700      0.00000     0.40197    0.00103     0.40300
      H   20    0.23031      0.00000     0.26672    0.00298     0.26969
      H   21    0.10090      0.00000     0.39829    0.00080     0.39910
      H   22    0.10515      0.00000     0.39366    0.00120     0.39485
      H   23    0.10989      0.00000     0.38867    0.00144     0.39011
      H   24    0.09057      0.00000     0.40597    0.00346     0.40943
      H   25    0.08053      0.00000     0.41768    0.00179     0.41947
      H   26    0.17172      0.00000     0.32683    0.00146     0.32828
      H   27    0.17642      0.00000     0.32147    0.00211     0.32358
 =======================================================================
   * Total *   -0.00000     18.99349    38.81561    0.19090    58.00000

 Normal termination of Gaussian 16 at Thu Dec 10 15:16:16 2020.
