 Gaussian 16, Revision A.03,

 -----------------------------------------------------------
 # opt freq B3LYP/6-31G(d) empiricaldispersion=gd3bj scf=xqc
 -----------------------------------------------------------

 -------------------------------
 CID_151082964_JID_5256_neutraal
 -------------------------------
 Symbolic Z-matrix:
 Charge =  0 Multiplicity = 1

 SCF Done:  E(RB3LYP) =  -1015.62867476     A.U. after   15 cycles
 SCF Done:  E(RB3LYP) =  -1015.63268142     A.U. after   12 cycles
 SCF Done:  E(RB3LYP) =  -1015.63362502     A.U. after   13 cycles
 SCF Done:  E(RB3LYP) =  -1015.63346189     A.U. after   13 cycles
 SCF Done:  E(RB3LYP) =  -1015.63439474     A.U. after   12 cycles
 SCF Done:  E(RB3LYP) =  -1015.63449437     A.U. after   11 cycles
 SCF Done:  E(RB3LYP) =  -1015.63451678     A.U. after   10 cycles
 SCF Done:  E(RB3LYP) =  -1015.63452599     A.U. after   10 cycles
 SCF Done:  E(RB3LYP) =  -1015.63452958     A.U. after   10 cycles
 SCF Done:  E(RB3LYP) =  -1015.63453300     A.U. after   10 cycles
 SCF Done:  E(RB3LYP) =  -1015.63458655     A.U. after    9 cycles
 SCF Done:  E(RB3LYP) =  -1015.63458782     A.U. after    9 cycles
 SCF Done:  E(RB3LYP) =  -1015.63458955     A.U. after   10 cycles
 SCF Done:  E(RB3LYP) =  -1015.63458970     A.U. after    8 cycles
 SCF Done:  E(RB3LYP) =  -1015.63458972     A.U. after    8 cycles
 Optimization completed.
    -- Stationary point found.
 Normal termination of Gaussian 16 at Thu Dec 10 15:18:23 2020.

 --------------------------------------------------------------------
 #N Geom=AllCheck Guess=TCheck SCRF=Check GenChk RB3LYP/6-31G(d) Freq
 --------------------------------------------------------------------

 Structure from the checkpoint file:  "JID_5256.chk"
 -------------------------------
 CID_151082964_JID_5256_neutraal
 -------------------------------
 Charge =  0 Multiplicity = 1

 SCF Done:  E(RB3LYP) =  -1015.63458972     A.U. after    1 cycles

  Exact polarizability: 173.196  11.996 154.572 -20.821   7.833 110.126
 Approx polarizability: 239.216  21.851 242.051 -42.749  24.565 177.049

                      1                      2                      3
                      A                      A                      A
 Frequencies --     12.9849                23.3846                63.9249
 Red. masses --      4.7741                 4.0252                 1.2602
 Frc consts  --      0.0005                 0.0013                 0.0030
 IR Inten    --      1.2841                 0.2897                11.1224

                      4                      5                      6
                      A                      A                      A
 Frequencies --     65.2278                83.7862               125.2377
 Red. masses --      4.3724                 3.8423                 3.0782
 Frc consts  --      0.0110                 0.0159                 0.0284
 IR Inten    --      3.8314                 2.0887                 4.3166

                      7                      8                      9
                      A                      A                      A
 Frequencies --    134.9621               153.6751               175.2102
 Red. masses --      1.2882                 3.0049                 1.2497
 Frc consts  --      0.0138                 0.0418                 0.0226
 IR Inten    --      0.5561                 0.8426                 1.4229

                     10                     11                     12
                      A                      A                      A
 Frequencies --    188.2704               226.5703               252.8041
 Red. masses --      2.6323                 1.6158                 1.9202
 Frc consts  --      0.0550                 0.0489                 0.0723
 IR Inten    --      2.8656                 0.0832                 2.3921

                     13                     14                     15
                      A                      A                      A
 Frequencies --    259.8381               268.7983               283.5871
 Red. masses --      3.1274                 2.3753                 2.6020
 Frc consts  --      0.1244                 0.1011                 0.1233
 IR Inten    --      0.2777                 1.8551                 8.8140

                     16                     17                     18
                      A                      A                      A
 Frequencies --    309.9730               331.3320               358.0733
 Red. masses --      3.0699                 2.9531                 5.0354
 Frc consts  --      0.1738                 0.1910                 0.3804
 IR Inten    --      1.1272                 9.2862                 8.1532

                     19                     20                     21
                      A                      A                      A
 Frequencies --    400.5894               460.6940               502.2284
 Red. masses --      4.0205                 4.2401                 2.5949
 Frc consts  --      0.3801                 0.5302                 0.3856
 IR Inten    --      2.0015                 1.0555                 0.6185

                     22                     23                     24
                      A                      A                      A
 Frequencies --    520.4850               546.6599               565.4020
 Red. masses --      3.2510                 4.7672                 3.7782
 Frc consts  --      0.5189                 0.8394                 0.7116
 IR Inten    --      0.1251                 0.9920                 1.2250

                     25                     26                     27
                      A                      A                      A
 Frequencies --    599.6142               613.5131               648.6025
 Red. masses --      3.6054                 4.4150                 4.2114
 Frc consts  --      0.7637                 0.9791                 1.0438
 IR Inten    --      1.3919                 3.8110                 6.0645

                     28                     29                     30
                      A                      A                      A
 Frequencies --    686.9149               733.6195               856.7561
 Red. masses --      3.1267                 3.4444                 2.9028
 Frc consts  --      0.8693                 1.0922                 1.2554
 IR Inten    --      5.8853                 5.0902                 8.1905

                     31                     32                     33
                      A                      A                      A
 Frequencies --    890.0903               905.4841               906.8034
 Red. masses --      1.4242                 1.4176                 1.5544
 Frc consts  --      0.6648                 0.6848                 0.7531
 IR Inten    --     10.3616                 6.3891                 3.8449

                     34                     35                     36
                      A                      A                      A
 Frequencies --    927.7165               971.9274               997.5215
 Red. masses --      2.8888                 2.2952                 1.9609
 Frc consts  --      1.4649                 1.2774                 1.1496
 IR Inten    --      7.1254                 3.2814                 6.4553

                     37                     38                     39
                      A                      A                      A
 Frequencies --   1005.5742              1027.3185              1053.1240
 Red. masses --      2.2484                 2.5224                 1.7918
 Frc consts  --      1.3395                 1.5685                 1.1709
 IR Inten    --      7.7943                10.8936                 2.1990

                     40                     41                     42
                      A                      A                      A
 Frequencies --   1071.3333              1074.1893              1075.0779
 Red. masses --      1.5159                 2.2240                 1.5711
 Frc consts  --      1.0251                 1.5120                 1.0699
 IR Inten    --      6.2557                16.3528                 1.2731

                     43                     44                     45
                      A                      A                      A
 Frequencies --   1076.1040              1082.4997              1185.7604
 Red. masses --      2.8131                 4.0301                 1.3843
 Frc consts  --      1.9193                 2.7824                 1.1468
 IR Inten    --     15.0561                26.8473                67.7793

                     46                     47                     48
                      A                      A                      A
 Frequencies --   1186.0392              1216.2285              1219.8735
 Red. masses --      1.2810                 1.4647                 1.4531
 Frc consts  --      1.0617                 1.2765                 1.2740
 IR Inten    --      1.2323                 5.9242                 1.0528

                     49                     50                     51
                      A                      A                      A
 Frequencies --   1246.1053              1264.7004              1297.4826
 Red. masses --      1.3022                 2.4927                 1.4608
 Frc consts  --      1.1914                 2.3491                 1.4489
 IR Inten    --     12.2518               268.0811                 2.0081

                     52                     53                     54
                      A                      A                      A
 Frequencies --   1326.6497              1347.0812              1383.9869
 Red. masses --      3.7628                 5.3651                 1.5633
 Frc consts  --      3.9018                 5.7361                 1.7642
 IR Inten    --      0.8258                 6.7688                10.7952

                     55                     56                     57
                      A                      A                      A
 Frequencies --   1405.0294              1443.0960              1446.8238
 Red. masses --      1.7034                 1.2502                 1.2815
 Frc consts  --      1.9812                 1.5339                 1.5806
 IR Inten    --     61.4291                 0.9864                 1.2040

                     58                     59                     60
                      A                      A                      A
 Frequencies --   1469.7209              1478.6509              1491.0916
 Red. masses --      2.4957                 2.5283                 1.1612
 Frc consts  --      3.1762                 3.2570                 1.5212
 IR Inten    --     14.3002                 3.9791                 3.4527

                     61                     62                     63
                      A                      A                      A
 Frequencies --   1497.8235              1512.7804              1513.4818
 Red. masses --      1.1653                 1.0480                 1.0447
 Frc consts  --      1.5403                 1.4130                 1.4099
 IR Inten    --     17.6060                 5.3725                 8.9778

                     64                     65                     66
                      A                      A                      A
 Frequencies --   1517.0237              1520.7013              1524.2787
 Red. masses --      1.1065                 1.0443                 1.0484
 Frc consts  --      1.5003                 1.4229                 1.4352
 IR Inten    --     12.2218                 7.3024                 6.7223

                     67                     68                     69
                      A                      A                      A
 Frequencies --   1530.6927              1539.7353              1628.9408
 Red. masses --      1.1322                 1.2027                 7.4297
 Frc consts  --      1.5630                 1.6799                11.6154
 IR Inten    --     24.8153                22.7562                 6.5844

                     70                     71                     72
                      A                      A                      A
 Frequencies --   1663.9158              1817.8081              2735.1752
 Red. masses --      5.2505                10.7707                 1.0378
 Frc consts  --      8.5647                20.9697                 4.5745
 IR Inten    --      0.4945               162.0038                 7.9035

                     73                     74                     75
                      A                      A                      A
 Frequencies --   3030.8762              3039.4297              3047.7829
 Red. masses --      1.0413                 1.0385                 1.0672
 Frc consts  --      5.6357                 5.6525                 5.8405
 IR Inten    --     25.0124                19.6425                18.6869

                     76                     77                     78
                      A                      A                      A
 Frequencies --   3067.1039              3076.3577              3079.9425
 Red. masses --      1.0626                 1.0296                 1.0994
 Frc consts  --      5.8893                 5.7410                 6.1448
 IR Inten    --     38.1197                27.3614                19.4105

                     79                     80                     81
                      A                      A                      A
 Frequencies --   3089.1918              3110.8369              3127.4741
 Red. masses --      1.1000                 1.1008                 1.0966
 Frc consts  --      6.1851                 6.2763                 6.3196
 IR Inten    --     14.0817                 3.1638                16.1137

                     82                     83                     84
                      A                      A                      A
 Frequencies --   3129.9396              3133.3233              3150.8636
 Red. masses --      1.1000                 1.0975                 1.1074
 Frc consts  --      6.3491                 6.3483                 6.4778
 IR Inten    --     15.9751                13.4749                22.1459

                     85                     86                     87
                      A                      A                      A
 Frequencies --   3168.3309              3184.0810              3202.8221
 Red. masses --      1.0896                 1.1071                 1.0903
 Frc consts  --      6.4446                 6.6133                 6.5899
 IR Inten    --     21.0887                17.1554                 4.2877

 - Thermochemistry -
 -------------------
 Temperature   298.150 Kelvin.  Pressure   1.00000 Atm.
 Atom     1 has atomic number  6 and mass  12.00000

 Molecular mass:   224.08710 amu.
 Principal axes and moments of inertia in atomic units:
                           1         2         3
     Eigenvalues --  2090.278666216.142936955.74092
           X            0.99997  -0.00577   0.00418
           Y            0.00569   0.99980   0.01903
           Z           -0.00429  -0.01900   0.99981
 This molecule is an asymmetric top.
 Rotational symmetry number  1.
 Warning -- assumption of classical behavior for rotation
           may cause significant error
 Rotational temperatures (Kelvin)      0.04144     0.01393     0.01245
 Rotational constants (GHZ):           0.86340     0.29033     0.25946
 Zero-point vibrational energy     673297.3 (Joules/Mol)
                                  160.92192 (Kcal/Mol)
 Warning -- explicit consideration of  26 degrees of freedom as
           vibrations may cause significant error
 Vibrational temperatures:     18.68    33.65    91.97    93.85   120.55
          (Kelvin)            180.19   194.18   221.10   252.09   270.88
                              325.98   363.73   373.85   386.74   408.02
                              445.98   476.71   515.19   576.36   662.84
                              722.59   748.86   786.52   813.49   862.71
                              882.71   933.19   988.32  1055.51  1232.68
                             1280.64  1302.79  1304.69  1334.78  1398.39
                             1435.21  1446.80  1478.08  1515.21  1541.41
                             1545.52  1546.80  1548.27  1557.48  1706.04
                             1706.45  1749.88  1755.13  1792.87  1819.62
                             1866.79  1908.75  1938.15  1991.25  2021.52
                             2076.29  2081.66  2114.60  2127.45  2145.35
                             2155.03  2176.55  2177.56  2182.66  2187.95
                             2193.10  2202.33  2215.34  2343.68  2394.00
                             2615.42  3935.31  4360.75  4373.06  4385.08
                             4412.88  4426.19  4431.35  4444.66  4475.80
                             4499.74  4503.28  4508.15  4533.39  4558.52
                             4581.18  4608.15

 Zero-point correction=                           0.256445 (Hartree/Particle)
 Thermal correction to Energy=                    0.272987
 Thermal correction to Enthalpy=                  0.273931
 Thermal correction to Gibbs Free Energy=         0.210062
 Sum of electronic and zero-point Energies=          -1015.378144
 Sum of electronic and thermal Energies=             -1015.361603
 Sum of electronic and thermal Enthalpies=           -1015.360659
 Sum of electronic and thermal Free Energies=        -1015.424528

                     E (Thermal)             CV                S
                      KCal/Mol        Cal/Mol-Kelvin    Cal/Mol-Kelvin
 Total                  171.302             59.715            134.423
 Electronic               0.000              0.000              0.000
 Translational            0.889              2.981             42.123
 Rotational               0.889              2.981             32.869
 Vibrational            169.524             53.753             59.431
 Vibration     1          0.593              1.987              7.492
 Vibration     2          0.593              1.985              6.324
 Vibration     3          0.597              1.972              4.332
 Vibration     4          0.597              1.971              4.292
 Vibration     5          0.601              1.960              3.800
 Vibration     6          0.610              1.928              3.018
 Vibration     7          0.613              1.918              2.874
 Vibration     8          0.619              1.899              2.626
 Vibration     9          0.627              1.873              2.379
 Vibration    10          0.633              1.856              2.245
 Vibration    11          0.650              1.801              1.906
 Vibration    12          0.664              1.758              1.711
 Vibration    13          0.668              1.746              1.663
 Vibration    14          0.673              1.731              1.604
 Vibration    15          0.682              1.704              1.512
 Vibration    16          0.699              1.655              1.362
 Vibration    17          0.714              1.613              1.254
 Vibration    18          0.733              1.559              1.130
 Vibration    19          0.766              1.469              0.960
 Vibration    20          0.819              1.337              0.764
 Vibration    21          0.858              1.245              0.653
 Vibration    22          0.875              1.205              0.609
 Vibration    23          0.902              1.147              0.551
 Vibration    24          0.921              1.106              0.513
 Vibration    25          0.958              1.033              0.450
 Vibration    26          0.973              1.003              0.427

                           ! Non-Optimized Parameters !
 Normal termination of Gaussian 16 at Thu Dec 10 15:27:39 2020.

 ----------------------------------------------------------------------
 # B3LYP/6-311++G(d,p) empiricaldispersion=gd3bj scf=xqc pop=npa geom=c
 heck
 ----------------------------------------------------------------------

 ---------------------------------------
 CID_151082964_JID_5256_Energie_neutraal
 ---------------------------------------
 Structure from the checkpoint file:  "JID_5256.chk"
 Charge =  0 Multiplicity = 1

 SCF Done:  E(RB3LYP) =  -1015.83404661     A.U. after   15 cycles
 Normal termination of Gaussian 16 at Thu Dec 10 15:32:12 2020.

 ----------------------------------------------------------------------
 # B3LYP/6-311++G(d,p) empiricaldispersion=gd3bj scf=xqc pop=npa geom=c
 heck
 ----------------------------------------------------------------------

 -------------------------------------
 CID_151082964_JID_5256_Energie_kation
 -------------------------------------
 Structure from the checkpoint file:  "JID_5256.chk"
 Charge =  1 Multiplicity = 2

 SCF Done:  E(UB3LYP) =  -1015.55157714     A.U. after   24 cycles
 Normal termination of Gaussian 16 at Thu Dec 10 15:42:25 2020.
 Gaussian 16:  ES64L-G16RevA.03 25-Dec-2016

 ----------------------------------------------------------------------
 # B3LYP/6-311++G(d,p) empiricaldispersion=gd3bj scf=xqc pop=npa geom=c
 heck
 ----------------------------------------------------------------------

 ------------------------------------
 CID_151082964_JID_5256_Energie_anion
 ------------------------------------
 Structure from the checkpoint file:  "JID_5256.chk"
 Charge = -1 Multiplicity = 2

                         Standard orientation:
 ---------------------------------------------------------------------
 Center     Atomic      Atomic             Coordinates (Angstroms)
 Number     Number       Type             X           Y           Z
 ---------------------------------------------------------------------
      1          6           0       -1.441900   -2.417132   -1.038823
      2          6           0       -1.224389   -0.960804   -0.713260
      3          6           0       -0.038713   -0.342240   -1.122596
      4          6           0        0.234127    0.998127   -0.844104
      5          6           0       -0.720485    1.729250   -0.134456
      6          6           0       -1.922114    1.161163    0.290547
      7          6           0       -2.170023   -0.193522   -0.006550
      8         16           0       -3.727893   -0.859951    0.579761
      9          6           0       -2.927869    1.988320    1.049883
     10          6           0        1.548389    1.627876   -1.245093
     11          6           0        2.619133    1.493236   -0.146991
     12          6           0        3.053942    0.054006    0.039951
     13          8           0        3.178820   -0.758337   -0.853202
     14          8           0        3.314601   -0.220982    1.334339
     15          6           0        3.753455   -1.563658    1.596246
     16          1           0       -2.309247   -2.568133   -1.695989
     17          1           0       -1.608978   -3.015966   -0.134303
     18          1           0       -0.569172   -2.828773   -1.552638
     19          1           0        0.699560   -0.929311   -1.660452
     20          1           0       -0.531269    2.776473    0.093422
     21          1           0       -3.668831   -2.040660   -0.059755
     22          1           0       -3.120163    1.574375    2.048272
     23          1           0       -2.572248    3.014796    1.176252
     24          1           0       -3.893076    2.023739    0.529239
     25          1           0        1.930231    1.161256   -2.158205
     26          1           0        1.402258    2.693276   -1.455704
     27          1           0        3.514083    2.066126   -0.426214
     28          1           0        2.261712    1.891006    0.806659
     29          1           0        2.989448   -2.280479    1.284543
     30          1           0        4.680487   -1.777014    1.057675
     31          1           0        3.912804   -1.614672    2.673390
 ---------------------------------------------------------------------

 SCF Done:  E(UB3LYP) =  -1015.82116432     A.U. after   33 cycles
 SCF Done:  E(UB3LYP) =  -1015.82116432     a.u. after    1 cycles

 The electronic state is 2-A.
 Alpha  occ. eigenvalues --  -88.75981 -19.07707 -19.01700 -10.20552 -10.13080
 Alpha  occ. eigenvalues --  -10.11099 -10.09143 -10.09109 -10.08902 -10.08134
 Alpha  occ. eigenvalues --  -10.08078 -10.07808 -10.07553 -10.07322 -10.07052
 Alpha  occ. eigenvalues --   -7.84700  -5.81057  -5.80684  -5.80126  -1.01581
 Alpha  occ. eigenvalues --   -0.92699  -0.77808  -0.72055  -0.69361  -0.68190
 Alpha  occ. eigenvalues --   -0.64519  -0.62516  -0.59217  -0.58878  -0.54683
 Alpha  occ. eigenvalues --   -0.48934  -0.47966  -0.46152  -0.41703  -0.40598
 Alpha  occ. eigenvalues --   -0.39761  -0.38872  -0.38182  -0.35853  -0.34146
 Alpha  occ. eigenvalues --   -0.33741  -0.33508  -0.32494  -0.31809  -0.31258
 Alpha  occ. eigenvalues --   -0.31041  -0.29415  -0.29062  -0.28419  -0.27409
 Alpha  occ. eigenvalues --   -0.26587  -0.25914  -0.25118  -0.24333  -0.23037
 Alpha  occ. eigenvalues --   -0.21729  -0.19631  -0.18768  -0.14898  -0.12173
 Alpha  occ. eigenvalues --    0.04143
 Alpha virt. eigenvalues --    0.05881   0.06250   0.07041   0.08064   0.08360
 Alpha virt. eigenvalues --    0.08405   0.08996   0.09351   0.09465   0.09892
 Alpha virt. eigenvalues --    0.10159   0.11090   0.11158   0.11427   0.11631

  Beta  occ. eigenvalues --  -88.75969 -19.07699 -19.01686 -10.20532 -10.13046
  Beta  occ. eigenvalues --  -10.11083 -10.09146 -10.09103 -10.08881 -10.08121
  Beta  occ. eigenvalues --  -10.08071 -10.07787 -10.07515 -10.07303 -10.07047
  Beta  occ. eigenvalues --   -7.84684  -5.81041  -5.80672  -5.80113  -1.01555
  Beta  occ. eigenvalues --   -0.92673  -0.77781  -0.72017  -0.69335  -0.68144
  Beta  occ. eigenvalues --   -0.64470  -0.62468  -0.59159  -0.58837  -0.54629
  Beta  occ. eigenvalues --   -0.48895  -0.47920  -0.46113  -0.41664  -0.40545
  Beta  occ. eigenvalues --   -0.39715  -0.38840  -0.38143  -0.35809  -0.34109
  Beta  occ. eigenvalues --   -0.33703  -0.33467  -0.32460  -0.31764  -0.31225
  Beta  occ. eigenvalues --   -0.31008  -0.29380  -0.29024  -0.28368  -0.27379
  Beta  occ. eigenvalues --   -0.26553  -0.25877  -0.25073  -0.24305  -0.23009
  Beta  occ. eigenvalues --   -0.21684  -0.19582  -0.18748  -0.14851  -0.12116
  Beta virt. eigenvalues --    0.06181   0.06839   0.06967   0.07515   0.08118
  Beta virt. eigenvalues --    0.08586   0.08752   0.09269   0.09713   0.09897
  Beta virt. eigenvalues --    0.10232   0.10386   0.11250   0.11341   0.11647

 Mulliken charges and spin densities:
               1          2
     1  C    1.432729  -1.937575
     2  C    0.022388   0.445518
     3  C   -0.959605   0.327184
     4  C    1.379427  -0.632337
     5  C   -0.341097  -0.195296
     6  C   -0.935935   1.089411
     7  C   -0.215954   0.392649
     8  S    0.334282  -1.042943
     9  C    0.352313  -0.720060
    10  C   -0.521133   0.219129
    11  C    1.136843  -1.397821
    12  C   -0.541855   0.182032
    13  O   -0.272176   0.036162
    14  O   -0.112891   0.087280
    15  C    0.574998  -0.793465
    16  H   -0.174827   0.314341
    17  H   -0.353196   0.522164
    18  H    0.081282   0.076033
    19  H    0.024259   0.191689
    20  H   -0.238385   0.368024
    21  H   -0.439333   0.534881
    22  H    0.007974   0.149135
    23  H   -0.080031   0.235527
    24  H   -0.036905   0.183978
    25  H    0.151365   0.032483
    26  H   -0.397667   0.580923
    27  H   -0.459311   0.646195
    28  H    0.089684   0.109379
    29  H   -0.090390   0.264149
    30  H   -0.138135   0.305775
    31  H   -0.278720   0.425455
 Sum of Mulliken charges =  -1.00000   1.00000

 Dipole moment (field-independent basis, Debye):
    X=             -1.6061    Y=              0.6572    Z=             -0.1089  Tot=              1.7388
 Quadrupole moment (field-independent basis, Debye-Ang):
   XX=           -174.4342   YY=           -151.2790   ZZ=           -130.8137
   XY=             -7.2969   XZ=             -1.1115   YZ=              2.9592

 Summary of Natural Population Analysis:

                                       Natural Population
                Natural  -----------------------------------------------
    Atom  No    Charge         Core      Valence    Rydberg      Total
 -----------------------------------------------------------------------
      C    1   -0.29731      0.99963     2.29146    0.00623     3.29731
      C    2   -0.02491      0.99945     2.01458    0.01087     3.02491
      C    3   -0.09622      0.99946     2.08852    0.00824     3.09622
      C    4   -0.01630      0.99950     2.00611    0.01069     3.01630
      C    5   -0.09535      0.99946     2.08704    0.00885     3.09535
      C    6   -0.02491      0.99946     2.01620    0.00925     3.02491
      C    7   -0.07569      0.99931     2.06561    0.01077     3.07569
      S    8    0.00866      4.99957     2.97563    0.01614     7.99134
      C    9   -0.29643      0.99964     2.29171    0.00509     3.29643
      C   10   -0.19653      0.99960     2.18632    0.01062     3.19653
      C   11   -0.22971      0.99957     2.22157    0.00856     3.22971
      C   12    0.41320      0.99969     1.56063    0.02648     2.58680
      O   13   -0.31115      0.99987     3.30549    0.00578     4.31115
      O   14   -0.27565      0.99986     3.26707    0.00872     4.27565
      C   15   -0.10365      0.99960     2.09584    0.00821     3.10365
      H   16    0.10292      0.00000     0.39566    0.00142     0.39708
      H   17    0.10728      0.00000     0.39094    0.00178     0.39272
      H   18    0.10687      0.00000     0.39216    0.00097     0.39313
      H   19    0.10705      0.00000     0.39139    0.00156     0.39295
      H   20    0.09831      0.00000     0.40021    0.00148     0.40169
      H   21    0.06914      0.00000     0.42762    0.00323     0.43086
      H   22    0.10562      0.00000     0.39304    0.00134     0.39438
      H   23    0.10382      0.00000     0.39517    0.00100     0.39618
      H   24    0.10676      0.00000     0.39179    0.00146     0.39324
      H   25    0.10824      0.00000     0.39045    0.00132     0.39176
      H   26    0.10489      0.00000     0.39357    0.00154     0.39511
      H   27    0.11554      0.00000     0.38204    0.00242     0.38446
      H   28    0.10978      0.00000     0.38853    0.00169     0.39022
      H   29    0.09404      0.00000     0.40435    0.00162     0.40596
      H   30    0.09015      0.00000     0.40831    0.00155     0.40985
      H   31    0.09156      0.00000     0.40701    0.00143     0.40844
 =======================================================================
   * Total *    0.00000     18.99368    40.82600    0.18032    60.00000

 Normal termination of Gaussian 16 at Thu Dec 10 15:56:34 2020.
