 Gaussian 16, Revision A.03,

 -----------------------------------------------------------
 # opt freq B3LYP/6-31G(d) empiricaldispersion=gd3bj scf=xqc
 -----------------------------------------------------------

 ------------------------------
 CID_71332457_JID_1955_neutraal
 ------------------------------
 Symbolic Z-matrix:
 Charge =  0 Multiplicity = 1

 SCF Done:  E(RB3LYP) =  -823.599587829     A.U. after   16 cycles
 SCF Done:  E(RB3LYP) =  -823.603651928     A.U. after   13 cycles
 SCF Done:  E(RB3LYP) =  -823.604680076     A.U. after   13 cycles
 SCF Done:  E(RB3LYP) =  -823.604673043     A.U. after   13 cycles
 SCF Done:  E(RB3LYP) =  -823.605481610     A.U. after   13 cycles
 SCF Done:  E(RB3LYP) =  -823.605774672     A.U. after   13 cycles
 SCF Done:  E(RB3LYP) =  -823.606097610     A.U. after   12 cycles
 SCF Done:  E(RB3LYP) =  -823.606369232     A.U. after   16 cycles
 SCF Done:  E(RB3LYP) =  -823.607154912     A.U. after   14 cycles
 SCF Done:  E(RB3LYP) =  -823.552488273     A.U. after   15 cycles
 SCF Done:  E(RB3LYP) =  -823.611579161     A.U. after   13 cycles
 SCF Done:  E(RB3LYP) =  -823.611680240     A.U. after   12 cycles
 SCF Done:  E(RB3LYP) =  -823.611707085     A.U. after   11 cycles
 SCF Done:  E(RB3LYP) =  -823.611714433     A.U. after    9 cycles
 SCF Done:  E(RB3LYP) =  -823.611715017     A.U. after    8 cycles
 SCF Done:  E(RB3LYP) =  -823.611715179     A.U. after    8 cycles
 Optimization completed.
    -- Stationary point found.
 Normal termination of Gaussian 16 at Tue Dec  8 21:47:16 2020.

 --------------------------------------------------------------------
 #N Geom=AllCheck Guess=TCheck SCRF=Check GenChk RB3LYP/6-31G(d) Freq
 --------------------------------------------------------------------

 Structure from the checkpoint file:  "JID_1955.chk"
 ------------------------------
 CID_71332457_JID_1955_neutraal
 ------------------------------
 Charge =  0 Multiplicity = 1

 SCF Done:  E(RB3LYP) =  -823.611715179     A.U. after    1 cycles

  Exact polarizability: 154.908  16.490 128.920   0.001  -0.002  68.621
 Approx polarizability: 239.144  52.528 238.429   0.003  -0.003 102.096

                      1                      2                      3
                      A                      A                      A
 Frequencies --     45.1030                80.8872               152.5160
 Red. masses --      4.3037                 3.3943                 3.2805
 Frc consts  --      0.0052                 0.0131                 0.0450
 IR Inten    --      1.4962                 0.0745                 0.2292

                      4                      5                      6
                      A                      A                      A
 Frequencies --    170.7921               204.4713               245.1317
 Red. masses --      4.5815                 1.2351                 1.0501
 Frc consts  --      0.0787                 0.0304                 0.0372
 IR Inten    --      1.5307                 0.2068                 0.0553

                      7                      8                      9
                      A                      A                      A
 Frequencies --    279.9798               283.9370               285.3814
 Red. masses --      6.1375                 3.1251                 1.9005
 Frc consts  --      0.2835                 0.1484                 0.0912
 IR Inten    --      0.8850                 0.4037                 0.8763

                     10                     11                     12
                      A                      A                      A
 Frequencies --    317.2420               357.9341               390.7512
 Red. masses --      1.2590                 3.0824                 3.9248
 Frc consts  --      0.0747                 0.2327                 0.3531
 IR Inten    --      0.5934                 1.0257                 0.4320

                     13                     14                     15
                      A                      A                      A
 Frequencies --    395.8099               467.6730               559.8219
 Red. masses --      2.2306                 4.0378                 2.9160
 Frc consts  --      0.2059                 0.5203                 0.5384
 IR Inten    --      0.0021                 4.1869                 0.5568

                     16                     17                     18
                      A                      A                      A
 Frequencies --    594.2066               610.8179               713.1555
 Red. masses --      3.2480                 5.3586                 5.3710
 Frc consts  --      0.6757                 1.1779                 1.6094
 IR Inten    --      5.5920                 2.8068                 0.0814

                     19                     20                     21
                      A                      A                      A
 Frequencies --    765.9545               799.5629               845.9718
 Red. masses --      1.2811                 3.7873                 1.3077
 Frc consts  --      0.4428                 1.4266                 0.5514
 IR Inten    --     39.9927                 3.4061                 8.7202

                     22                     23                     24
                      A                      A                      A
 Frequencies --    883.7611               908.7614               912.6153
 Red. masses --      3.9132                 6.0131                 1.3665
 Frc consts  --      1.8007                 2.9258                 0.6706
 IR Inten    --     43.5303                 9.9839                 1.5695

                     25                     26                     27
                      A                      A                      A
 Frequencies --    945.9390               955.2561               976.9873
 Red. masses --      1.8364                 1.7730                 2.7862
 Frc consts  --      0.9681                 0.9532                 1.5669
 IR Inten    --      0.7380                 5.2166                10.2568

                     28                     29                     30
                      A                      A                      A
 Frequencies --    982.9153              1050.7587              1055.5009
 Red. masses --      1.1934                 1.3320                 1.3901
 Frc consts  --      0.6793                 0.8665                 0.9125
 IR Inten    --      0.0186                48.3536                 0.0220

                     31                     32                     33
                      A                      A                      A
 Frequencies --   1060.9709              1109.6659              1135.7101
 Red. masses --      1.6189                 3.4048                 2.4842
 Frc consts  --      1.0737                 2.4702                 1.8879
 IR Inten    --     17.2938               107.9400                10.2162

                     34                     35                     36
                      A                      A                      A
 Frequencies --   1202.0323              1226.7435              1228.1919
 Red. masses --      2.3092                 2.4871                 2.5220
 Frc consts  --      1.9658                 2.2052                 2.2414
 IR Inten    --      2.7918                 6.7329                 2.6946

                     37                     38                     39
                      A                      A                      A
 Frequencies --   1270.0233              1273.7912              1333.2104
 Red. masses --      2.0099                 2.9044                 5.1712
 Frc consts  --      1.9101                 2.7765                 5.4155
 IR Inten    --     15.3272                33.0839                41.0451

                     40                     41                     42
                      A                      A                      A
 Frequencies --   1421.2551              1427.1053              1440.9459
 Red. masses --      1.1935                 1.2285                 2.8266
 Frc consts  --      1.4205                 1.4741                 3.4579
 IR Inten    --      5.3101                 5.7291                28.4343

                     43                     44                     45
                      A                      A                      A
 Frequencies --   1457.8752              1492.5646              1507.8285
 Red. masses --      1.2913                 3.8164                 1.0485
 Frc consts  --      1.6170                 5.0092                 1.4045
 IR Inten    --      7.8583               110.1342                 0.6097

                     46                     47                     48
                      A                      A                      A
 Frequencies --   1514.2829              1522.2829              1534.9018
 Red. masses --      1.0470                 1.0456                 1.0665
 Frc consts  --      1.4145                 1.4276                 1.4803
 IR Inten    --      3.0533                 0.4636                 2.4835

                     49                     50                     51
                      A                      A                      A
 Frequencies --   1535.1052              1553.8187              1601.3465
 Red. masses --      1.0497                 1.0607                 5.1624
 Frc consts  --      1.4575                 1.5089                 7.7996
 IR Inten    --      4.2045                13.5376                24.9262

                     52                     53                     54
                      A                      A                      A
 Frequencies --   3055.2462              3056.3965              3063.9274
 Red. masses --      1.0389                 1.0387                 1.0392
 Frc consts  --      5.7137                 5.7167                 5.7476
 IR Inten    --      6.0883                29.3001                43.1090

                     55                     56                     57
                      A                      A                      A
 Frequencies --   3117.2520              3117.8113              3130.0985
 Red. masses --      1.1025                 1.1014                 1.0988
 Frc consts  --      6.3119                 6.3081                 6.3428
 IR Inten    --     12.9992                13.8131                45.1387

                     58                     59                     60
                      A                      A                      A
 Frequencies --   3148.8644              3170.3193              3172.8195
 Red. masses --      1.1027                 1.0981                 1.0973
 Frc consts  --      6.4422                 6.5025                 6.5085
 IR Inten    --     19.6615                 0.0359                23.6146

                     61                     62                     63
                      A                      A                      A
 Frequencies --   3274.5235              3296.9456              3302.7030
 Red. masses --      1.0905                 1.0985                 1.1041
 Frc consts  --      6.8895                 7.0353                 7.0955
 IR Inten    --      2.0449                 0.4976                 1.0302

 - Thermochemistry -
 -------------------
 Temperature   298.150 Kelvin.  Pressure   1.00000 Atm.
 Atom     1 has atomic number  6 and mass  12.00000

 Molecular mass:   168.06089 amu.
 Principal axes and moments of inertia in atomic units:
                           1         2         3
     Eigenvalues --  1208.187242291.441913094.26441
           X            0.99903  -0.04398   0.00000
           Y            0.04398   0.99903   0.00000
           Z           -0.00000  -0.00000   1.00000
 This molecule is an asymmetric top.
 Rotational symmetry number  1.
 Warning -- assumption of classical behavior for rotation
           may cause significant error
 Rotational temperatures (Kelvin)      0.07169     0.03780     0.02799
 Rotational constants (GHZ):           1.49376     0.78760     0.58325
 Zero-point vibrational energy     502408.6 (Joules/Mol)
                                  120.07853 (Kcal/Mol)
 Warning -- explicit consideration of  17 degrees of freedom as
           vibrations may cause significant error
 Vibrational temperatures:     64.89   116.38   219.44   245.73   294.19
          (Kelvin)            352.69   402.83   408.52   410.60   456.44
                              514.99   562.20   569.48   672.88   805.46
                              854.93   878.83  1026.07  1102.04  1150.39
                             1217.16  1271.54  1307.50  1313.05  1361.00
                             1374.40  1405.67  1414.20  1511.81  1518.63
                             1526.50  1596.56  1634.03  1729.46  1765.01
                             1767.09  1827.28  1832.70  1918.19  2044.87
                             2053.29  2073.20  2097.56  2147.47  2169.43
                             2178.72  2190.23  2208.38  2208.67  2235.60
                             2303.98  4395.82  4397.47  4408.31  4485.03
                             4485.84  4503.51  4530.51  4561.38  4564.98
                             4711.31  4743.57  4751.85

 Zero-point correction=                           0.191357 (Hartree/Particle)
 Thermal correction to Energy=                    0.202507
 Thermal correction to Enthalpy=                  0.203451
 Thermal correction to Gibbs Free Energy=         0.154426
 Sum of electronic and zero-point Energies=           -823.420358
 Sum of electronic and thermal Energies=              -823.409209
 Sum of electronic and thermal Enthalpies=            -823.408264
 Sum of electronic and thermal Free Energies=         -823.457289

                     E (Thermal)             CV                S
                      KCal/Mol        Cal/Mol-Kelvin    Cal/Mol-Kelvin
 Total                  127.075             42.398            103.182
 Electronic               0.000              0.000              0.000
 Translational            0.889              2.981             41.266
 Rotational               0.889              2.981             30.528
 Vibrational            125.297             36.436             31.389
 Vibration     1          0.595              1.979              5.021
 Vibration     2          0.600              1.962              3.869
 Vibration     3          0.619              1.900              2.641
 Vibration     4          0.626              1.878              2.427
 Vibration     5          0.640              1.834              2.092
 Vibration     6          0.660              1.771              1.765
 Vibration     7          0.680              1.711              1.534
 Vibration     8          0.682              1.703              1.510
 Vibration     9          0.683              1.701              1.501
 Vibration    10          0.704              1.641              1.324
 Vibration    11          0.733              1.559              1.131
 Vibration    12          0.758              1.490              0.997
 Vibration    13          0.763              1.479              0.978
 Vibration    14          0.825              1.322              0.744
 Vibration    15          0.915              1.118              0.524
 Vibration    16          0.952              1.044              0.460
 Vibration    17          0.970              1.009              0.431

 Optimization completed.
    -- Stationary point found.
 Normal termination of Gaussian 16 at Tue Dec  8 21:52:24 2020.

 ----------------------------------------------------------------------
 # B3LYP/6-311++G(d,p) empiricaldispersion=gd3bj scf=xqc pop=npa geom=c
 heck
 ----------------------------------------------------------------------

 --------------------------------------
 CID_71332457_JID_1955_Energie_neutraal
 --------------------------------------
 Structure from the checkpoint file:  "JID_1955.chk"
 Charge =  0 Multiplicity = 1

 SCF Done:  E(RB3LYP) =  -823.752282344     A.U. after   15 cycles
 Normal termination of Gaussian 16 at Tue Dec  8 21:54:32 2020.

 ----------------------------------------------------------------------
 # B3LYP/6-311++G(d,p) empiricaldispersion=gd3bj scf=xqc pop=npa geom=c
 heck
 ----------------------------------------------------------------------

 ------------------------------------
 CID_71332457_JID_1955_Energie_kation
 ------------------------------------
 Structure from the checkpoint file:  "JID_1955.chk"
 Charge =  1 Multiplicity = 2

 SCF Done:  E(UB3LYP) =  -823.460653181     A.U. after   21 cycles
 Normal termination of Gaussian 16 at Tue Dec  8 21:57:34 2020.
 Gaussian 16:  ES64L-G16RevA.03 25-Dec-2016

 ----------------------------------------------------------------------
 # B3LYP/6-311++G(d,p) empiricaldispersion=gd3bj scf=xqc pop=npa geom=c
 heck
 ----------------------------------------------------------------------

 -----------------------------------
 CID_71332457_JID_1955_Energie_anion
 -----------------------------------
 Structure from the checkpoint file:  "JID_1955.chk"
 Charge = -1 Multiplicity = 2

                         Standard orientation:
 ---------------------------------------------------------------------
 Center     Atomic      Atomic             Coordinates (Angstroms)
 Number     Number       Type             X           Y           Z
 ---------------------------------------------------------------------
      1          6           0        2.902922   -0.108467   -0.000403
      2          6           0        1.454522   -0.620023   -0.000082
      3          6           0        1.254450   -1.480225   -1.272282
      4          6           0        1.254864   -1.479347    1.272781
      5          6           0        0.438273    0.537503   -0.000173
      6         16           0        0.901825    2.130704    0.000021
      7          6           0       -0.979093    0.240335   -0.000071
      8          6           0       -2.089478    1.063508   -0.000138
      9          6           0       -3.237943    0.231353   -0.000098
     10          6           0       -2.770901   -1.055161    0.000133
     11          8           0       -1.419855   -1.073485    0.000151
     12          1           0        3.580621   -0.969747   -0.000536
     13          1           0        3.115821    0.501002    0.881639
     14          1           0        3.115481    0.500993   -0.882528
     15          1           0        2.010456   -2.273222   -1.291014
     16          1           0        0.269295   -1.946365   -1.308864
     17          1           0        1.385571   -0.868744   -2.171698
     18          1           0        1.385736   -0.867135    2.171749
     19          1           0        0.269933   -1.945951    1.309752
     20          1           0        2.011274   -2.271977    1.292134
     21          1           0       -2.053182    2.142056   -0.000282
     22          1           0       -4.273489    0.539849   -0.000140
     23          1           0       -3.253579   -2.021004    0.000233
 ---------------------------------------------------------------------

 SCF Done:  E(UB3LYP) =  -823.787815643     A.U. after   20 cycles

 The electronic state is 2-A.
 Alpha  occ. eigenvalues --  -88.61443 -19.03524 -10.07637 -10.06822 -10.04820
 Alpha  occ. eigenvalues --  -10.03387 -10.02844 -10.02483 -10.02483 -10.01838
 Alpha  occ. eigenvalues --  -10.01018  -7.70246  -5.66526  -5.66342  -5.65765
 Alpha  occ. eigenvalues --   -0.96471  -0.69098  -0.65659  -0.62249  -0.56433
 Alpha  occ. eigenvalues --   -0.55449  -0.54491  -0.46652  -0.44056  -0.42188
 Alpha  occ. eigenvalues --   -0.40199  -0.34355  -0.32333  -0.31549  -0.30360
 Alpha  occ. eigenvalues --   -0.30254  -0.27048  -0.25864  -0.25672  -0.25248
 Alpha  occ. eigenvalues --   -0.23830  -0.23199  -0.21886  -0.20311  -0.18711
 Alpha  occ. eigenvalues --   -0.16727  -0.15162  -0.13793  -0.06951  -0.03657
 Alpha  occ. eigenvalues --    0.02685
 Alpha virt. eigenvalues --    0.08749   0.09364   0.10648   0.11284   0.11781
 Alpha virt. eigenvalues --    0.12266   0.13468   0.14320   0.14572   0.14695
 Alpha virt. eigenvalues --    0.15442   0.15590   0.16984   0.17329   0.18043

  Beta  occ. eigenvalues --  -88.61291 -19.03332 -10.07406 -10.06916 -10.04860
  Beta  occ. eigenvalues --  -10.03490 -10.02446 -10.02445 -10.02185 -10.01837
  Beta  occ. eigenvalues --  -10.00746  -7.70110  -5.66463  -5.65848  -5.65681
  Beta  occ. eigenvalues --   -0.96158  -0.68712  -0.65380  -0.61787  -0.55910
  Beta  occ. eigenvalues --   -0.55360  -0.54299  -0.46254  -0.43617  -0.41927
  Beta  occ. eigenvalues --   -0.39998  -0.33994  -0.32021  -0.30773  -0.30216
  Beta  occ. eigenvalues --   -0.30156  -0.26935  -0.25693  -0.25486  -0.25128
  Beta  occ. eigenvalues --   -0.23669  -0.23166  -0.21492  -0.19994  -0.18574
  Beta  occ. eigenvalues --   -0.16186  -0.13722  -0.12207  -0.05020  -0.03305
  Beta virt. eigenvalues --    0.08715   0.09336   0.09543   0.10608   0.11325
  Beta virt. eigenvalues --    0.11749   0.12234   0.13419   0.14385   0.14637
  Beta virt. eigenvalues --    0.14724   0.15426   0.16324   0.17009   0.17330

 Mulliken charges and spin densities:
               1          2
     1  C   -0.515226  -0.004940
     2  C    1.262038  -0.069136
     3  C   -0.645900   0.008075
     4  C   -0.646079   0.008202
     5  C   -0.047220   0.391330
     6  S   -1.159927   0.357303
     7  C   -0.141945  -0.095183
     8  C   -0.190463   0.245954
     9  C   -0.201948  -0.074500
    10  C   -0.106359   0.192995
    11  O    0.010860   0.040564
    12  H    0.095487  -0.002923
    13  H    0.110107   0.002287
    14  H    0.110131   0.002271
    15  H    0.110672   0.010639
    16  H    0.117172   0.002556
    17  H    0.137484  -0.001930
    18  H    0.137555  -0.001936
    19  H    0.117140   0.002557
    20  H    0.110665   0.010651
    21  H    0.105576  -0.017246
    22  H    0.115270   0.005263
    23  H    0.114910  -0.012853
 Sum of Mulliken charges =  -1.00000   1.00000

 Dipole moment (field-independent basis, Debye):
    X=             -1.0524    Y=             -5.0295    Z=             -0.0000  Tot=              5.1385
 Quadrupole moment (field-independent basis, Debye-Ang):
   XX=            -93.7979   YY=            -98.5170   ZZ=            -85.7156
   XY=             -4.6007   XZ=              0.0001   YZ=             -0.0005

 Summary of Natural Population Analysis:

                                       Natural Population
                Natural  -----------------------------------------------
    Atom  No    Charge         Core      Valence    Rydberg      Total
 -----------------------------------------------------------------------
      C    1   -0.28356      0.99964     2.27713    0.00679     3.28356
      C    2   -0.06933      0.99955     2.05929    0.01048     3.06933
      C    3   -0.27692      0.99963     2.27170    0.00559     3.27692
      C    4   -0.27691      0.99963     2.27169    0.00559     3.27691
      C    5    0.04495      0.99949     1.93840    0.01716     2.95505
      S    6   -0.01760      4.99952     3.00314    0.01495     8.01760
      C    7    0.10023      0.99938     1.88478    0.01560     2.89977
      C    8   -0.07217      0.99951     2.06382    0.00884     3.07217
      C    9   -0.18723      0.99957     2.17942    0.00824     3.18723
      C   10    0.09935      0.99954     1.88621    0.01491     2.90065
      O   11   -0.22753      0.99986     3.21979    0.00788     4.22753
      H   12    0.08342      0.00000     0.41560    0.00098     0.41658
      H   13    0.10541      0.00000     0.39363    0.00096     0.39459
      H   14    0.10541      0.00000     0.39363    0.00096     0.39459
      H   15    0.08707      0.00000     0.41203    0.00090     0.41293
      H   16    0.10562      0.00000     0.39354    0.00085     0.39438
      H   17    0.09845      0.00000     0.40078    0.00076     0.40155
      H   18    0.09847      0.00000     0.40077    0.00076     0.40153
      H   19    0.10560      0.00000     0.39355    0.00085     0.39440
      H   20    0.08707      0.00000     0.41203    0.00090     0.41293
      H   21    0.11074      0.00000     0.38808    0.00118     0.38926
      H   22    0.09823      0.00000     0.40090    0.00087     0.40177
      H   23    0.08122      0.00000     0.41774    0.00104     0.41878
 =======================================================================
   * Total *    0.00000     14.99533    29.87765    0.12703    45.00000

 Normal termination of Gaussian 16 at Tue Dec  8 22:00:27 2020.
