 Gaussian 16, Revision A.03,

 -----------------------------------------------------------
 # opt freq B3LYP/6-31G(d) empiricaldispersion=gd3bj scf=xqc
 -----------------------------------------------------------

 -------------------------------
 CID_136669045_JID_6035_neutraal
 -------------------------------
 Symbolic Z-matrix:
 Charge =  0 Multiplicity = 1

 SCF Done:  E(RB3LYP) =  -1122.80411843     A.U. after   15 cycles
 SCF Done:  E(RB3LYP) =  -1122.78894226     A.U. after   15 cycles
 SCF Done:  E(RB3LYP) =  -1122.81483997     A.U. after   13 cycles
 SCF Done:  E(RB3LYP) =  -1122.80471596     A.U. after   15 cycles
 SCF Done:  E(RB3LYP) =  -1122.82094372     A.U. after   13 cycles
 SCF Done:  E(RB3LYP) =  -1122.82105641     A.U. after   13 cycles
 SCF Done:  E(RB3LYP) =  -1122.82317997     A.U. after   12 cycles
 SCF Done:  E(RB3LYP) =  -1122.82442210     A.U. after   13 cycles
 SCF Done:  E(RB3LYP) =  -1122.82511256     A.U. after   12 cycles
 SCF Done:  E(RB3LYP) =  -1122.82544946     A.U. after   11 cycles
 SCF Done:  E(RB3LYP) =  -1122.82580872     A.U. after    9 cycles
 SCF Done:  E(RB3LYP) =  -1122.82581014     A.U. after    9 cycles
 SCF Done:  E(RB3LYP) =  -1122.82581031     A.U. after    7 cycles
 SCF Done:  E(RB3LYP) =  -1122.82581039     A.U. after    7 cycles
 SCF Done:  E(RB3LYP) =  -1122.82581042     A.U. after    7 cycles
 Optimization completed.
    -- Stationary point found.
 Normal termination of Gaussian 16 at Thu Dec 10 21:31:22 2020.

 --------------------------------------------------------------------
 #N Geom=AllCheck Guess=TCheck SCRF=Check GenChk RB3LYP/6-31G(d) Freq
 --------------------------------------------------------------------

 Structure from the checkpoint file:  "JID_6035.chk"
 -------------------------------
 CID_136669045_JID_6035_neutraal
 -------------------------------
 Charge =  0 Multiplicity = 1

 SCF Done:  E(RB3LYP) =  -1122.82581042     A.U. after    1 cycles

  Exact polarizability: 176.113  13.892 133.775  14.455 -11.005 120.786
 Approx polarizability: 264.009  21.838 197.507  36.164 -29.367 224.599

                      1                      2                      3
                      A                      A                      A
 Frequencies --     34.1658                43.4841                48.1480
 Red. masses --      4.5235                 4.5405                 1.0876
 Frc consts  --      0.0031                 0.0051                 0.0015
 IR Inten    --      1.7152                 2.3811                 0.3433

                      4                      5                      6
                      A                      A                      A
 Frequencies --     70.2859                96.8725               114.4520
 Red. masses --      4.1423                 2.7648                 3.6087
 Frc consts  --      0.0121                 0.0153                 0.0279
 IR Inten    --      1.3754                 3.5962                 0.6827

                      7                      8                      9
                      A                      A                      A
 Frequencies --    179.8634               186.0341               199.2306
 Red. masses --      1.3766                 1.8953                 2.1983
 Frc consts  --      0.0262                 0.0386                 0.0514
 IR Inten    --      0.6088                 1.6399                 2.5887

                     10                     11                     12
                      A                      A                      A
 Frequencies --    210.0009               241.0255               253.0307
 Red. masses --      3.1746                 4.0891                 3.1791
 Frc consts  --      0.0825                 0.1400                 0.1199
 IR Inten    --      1.0340                 2.8640                 2.7140

                     13                     14                     15
                      A                      A                      A
 Frequencies --    288.7220               312.3733               319.4715
 Red. masses --      5.4069                 3.9015                 3.6988
 Frc consts  --      0.2656                 0.2243                 0.2224
 IR Inten    --      1.5284                 0.2550                 8.4334

                     16                     17                     18
                      A                      A                      A
 Frequencies --    335.9473               339.9738               395.5976
 Red. masses --      3.9357                 4.2356                 4.4465
 Frc consts  --      0.2617                 0.2884                 0.4100
 IR Inten    --      0.1702                 1.2098                 3.0098

                     19                     20                     21
                      A                      A                      A
 Frequencies --    445.1860               459.0649               471.3379
 Red. masses --      3.8726                 4.0149                 6.4356
 Frc consts  --      0.4522                 0.4985                 0.8424
 IR Inten    --      9.3450                 9.7742                22.1987

                     22                     23                     24
                      A                      A                      A
 Frequencies --    496.0434               523.3276               556.6504
 Red. masses --      4.8312                 4.1888                 5.8376
 Frc consts  --      0.7004                 0.6759                 1.0657
 IR Inten    --      7.5085                 9.2763                22.0000

                     25                     26                     27
                      A                      A                      A
 Frequencies --    590.8585               604.0272               644.3152
 Red. masses --      4.6851                 5.1736                 4.9122
 Frc consts  --      0.9637                 1.1121                 1.2015
 IR Inten    --     25.7486                52.7707                 0.7391

                     28                     29                     30
                      A                      A                      A
 Frequencies --    660.1499               682.4189               687.6420
 Red. masses --      4.3252                 1.4758                 2.3880
 Frc consts  --      1.1106                 0.4049                 0.6653
 IR Inten    --      5.8522                36.0793                24.4203

                     31                     32                     33
                      A                      A                      A
 Frequencies --    742.9746               753.9513               759.7281
 Red. masses --      4.6130                 6.2885                 4.2924
 Frc consts  --      1.5003                 2.1061                 1.4597
 IR Inten    --     31.9558                15.7486                72.5334

                     34                     35                     36
                      A                      A                      A
 Frequencies --    824.5842               889.9245               941.8058
 Red. masses --      1.3698                 1.3723                 3.4364
 Frc consts  --      0.5488                 0.6403                 1.7959
 IR Inten    --     14.5953                 7.1402                18.8374

                     37                     38                     39
                      A                      A                      A
 Frequencies --    953.7147               977.1718               991.9061
 Red. masses --      1.3032                 2.8586                 1.4872
 Frc consts  --      0.6984                 1.6082                 0.8621
 IR Inten    --      0.6912                41.7713                28.6476

                     40                     41                     42
                      A                      A                      A
 Frequencies --   1002.4453              1005.4961              1041.0656
 Red. masses --      1.3764                 1.5126                 1.5675
 Frc consts  --      0.8149                 0.9010                 1.0010
 IR Inten    --     13.0022                33.5970                11.9118

                     43                     44                     45
                      A                      A                      A
 Frequencies --   1063.2005              1072.8066              1085.7455
 Red. masses --      1.5575                 1.5248                 1.8110
 Frc consts  --      1.0373                 1.0339                 1.2579
 IR Inten    --      0.8955                 9.6016                 1.3031

                     46                     47                     48
                      A                      A                      A
 Frequencies --   1103.0561              1136.3514              1185.9358
 Red. masses --      3.5263                 7.2772                 1.5118
 Frc consts  --      2.5279                 5.5366                 1.2527
 IR Inten    --      4.4858               199.8760                13.8135

                     49                     50                     51
                      A                      A                      A
 Frequencies --   1204.4693              1269.5471              1288.1560
 Red. masses --      1.7780                 2.6489                 2.0355
 Frc consts  --      1.5197                 2.5155                 1.9900
 IR Inten    --     11.1991                51.1794                13.0475

                     52                     53                     54
                      A                      A                      A
 Frequencies --   1325.2876              1341.2102              1363.1144
 Red. masses --      3.6404                 6.6227                 3.8164
 Frc consts  --      3.7672                 7.0191                 4.1780
 IR Inten    --     47.9001               143.0886                 6.0445

                     55                     56                     57
                      A                      A                      A
 Frequencies --   1379.1393              1411.5909              1428.9284
 Red. masses --      1.2070                 1.9018                 1.2601
 Frc consts  --      1.3526                 2.2327                 1.5159
 IR Inten    --      8.7986               112.3833                23.4251

                     58                     59                     60
                      A                      A                      A
 Frequencies --   1439.2352              1441.9389              1477.6136
 Red. masses --      1.3234                 1.2512                 1.0668
 Frc consts  --      1.6151                 1.5328                 1.3723
 IR Inten    --     16.2172                 0.7261                 6.5683

                     61                     62                     63
                      A                      A                      A
 Frequencies --   1485.0741              1499.2636              1500.4173
 Red. masses --      1.0525                 1.7246                 1.0866
 Frc consts  --      1.3677                 2.2840                 1.4412
 IR Inten    --      7.7779                 1.6999                12.4663

                     64                     65                     66
                      A                      A                      A
 Frequencies --   1508.7166              1515.4018              1524.8398
 Red. masses --      1.0577                 1.0544                 1.2863
 Frc consts  --      1.4184                 1.4267                 1.7621
 IR Inten    --     11.5034                 5.6190                31.1943

                     67                     68                     69
                      A                      A                      A
 Frequencies --   1552.2250              1614.9230              1682.0172
 Red. masses --      2.4334                 4.8632                 5.6321
 Frc consts  --      3.4544                 7.4726                 9.3883
 IR Inten    --     33.5379                40.9044                75.3044

                     70                     71                     72
                      A                      A                      A
 Frequencies --   1695.5218              3046.7363              3059.0483
 Red. masses --      6.5092                 1.0388                 1.0377
 Frc consts  --     11.0251                 5.6811                 5.7214
 IR Inten    --     91.7993                27.3917                 7.8342

                     73                     74                     75
                      A                      A                      A
 Frequencies --   3096.4936              3101.9646              3116.6488
 Red. masses --      1.0305                 1.0985                 1.0993
 Frc consts  --      5.8218                 6.2275                 6.2911
 IR Inten    --      1.1513                16.5590                10.5000

                     76                     77                     78
                      A                      A                      A
 Frequencies --   3132.3617              3166.6666              3191.2033
 Red. masses --      1.1020                 1.1022                 1.0881
 Frc consts  --      6.3703                 6.5120                 6.5290
 IR Inten    --     15.6593                 9.5704                 9.2561

                     79                     80                     81
                      A                      A                      A
 Frequencies --   3192.6405              3204.3244              3214.8251
 Red. masses --      1.1058                 1.0906                 1.0933
 Frc consts  --      6.6410                 6.5975                 6.6575
 IR Inten    --      0.0551                 7.4164                 9.8584

                     82                     83                     84
                      A                      A                      A
 Frequencies --   3225.0323              3397.2107              3494.5396
 Red. masses --      1.1072                 1.0661                 1.0753
 Frc consts  --      6.7848                 7.2494                 7.7367
 IR Inten    --      2.3596               396.1607                39.0737

 - Thermochemistry -
 -------------------
 Temperature   298.150 Kelvin.  Pressure   1.00000 Atm.
 Atom     1 has atomic number  6 and mass  12.00000

 Molecular mass:   242.07251 amu.
 Principal axes and moments of inertia in atomic units:
                           1         2         3
     Eigenvalues --  2437.950974876.239465634.80009
           X            0.99949   0.02866   0.01387
           Y           -0.02818   0.99903  -0.03386
           Z           -0.01483   0.03345   0.99933
 This molecule is an asymmetric top.
 Rotational symmetry number  1.
 Warning -- assumption of classical behavior for rotation
           may cause significant error
 Rotational temperatures (Kelvin)      0.03553     0.01776     0.01537
 Rotational constants (GHZ):           0.74027     0.37011     0.32028
 Zero-point vibrational energy     625706.1 (Joules/Mol)
                                  149.54735 (Kcal/Mol)
 Warning -- explicit consideration of  26 degrees of freedom as
           vibrations may cause significant error
 Vibrational temperatures:     49.16    62.56    69.27   101.13   139.38
          (Kelvin)            164.67   258.78   267.66   286.65   302.14
                              346.78   364.05   415.41   449.44   459.65
                              483.35   489.15   569.18   640.52   660.49
                              678.15   713.70   752.95   800.90   850.11
                              869.06   927.03   949.81   981.85   989.36
                             1068.97  1084.77  1093.08  1186.39  1280.40
                             1355.05  1372.18  1405.93  1427.13  1442.30
                             1446.68  1497.86  1529.71  1543.53  1562.15
                             1587.05  1634.96  1706.30  1732.96  1826.60
                             1853.37  1906.79  1929.70  1961.22  1984.27
                             2030.96  2055.91  2070.74  2074.63  2125.96
                             2136.69  2157.11  2158.77  2170.71  2180.33
                             2193.90  2233.31  2323.51  2420.05  2439.48
                             4383.57  4401.29  4455.16  4463.04  4484.16
                             4506.77  4556.13  4591.43  4593.50  4610.31
                             4625.42  4640.10  4887.83  5027.86

 Zero-point correction=                           0.238319 (Hartree/Particle)
 Thermal correction to Energy=                    0.254706
 Thermal correction to Enthalpy=                  0.255650
 Thermal correction to Gibbs Free Energy=         0.193835
 Sum of electronic and zero-point Energies=          -1122.587492
 Sum of electronic and thermal Energies=             -1122.571105
 Sum of electronic and thermal Enthalpies=           -1122.570161
 Sum of electronic and thermal Free Energies=        -1122.631975

                     E (Thermal)             CV                S
                      KCal/Mol        Cal/Mol-Kelvin    Cal/Mol-Kelvin
 Total                  159.830             61.425            130.100
 Electronic               0.000              0.000              0.000
 Translational            0.889              2.981             42.353
 Rotational               0.889              2.981             32.571
 Vibrational            158.053             55.464             55.175
 Vibration     1          0.594              1.983              5.572
 Vibration     2          0.595              1.980              5.094
 Vibration     3          0.595              1.978              4.892
 Vibration     4          0.598              1.968              4.145
 Vibration     5          0.603              1.951              3.516
 Vibration     6          0.607              1.937              3.192
 Vibration     7          0.629              1.867              2.330
 Vibration     8          0.632              1.859              2.267
 Vibration     9          0.637              1.841              2.140
 Vibration    10          0.642              1.826              2.044
 Vibration    11          0.658              1.778              1.795
 Vibration    12          0.664              1.758              1.709
 Vibration    13          0.685              1.695              1.481
 Vibration    14          0.701              1.650              1.350
 Vibration    15          0.705              1.636              1.313
 Vibration    16          0.717              1.604              1.231
 Vibration    17          0.720              1.596              1.212
 Vibration    18          0.762              1.480              0.979
 Vibration    19          0.805              1.372              0.810
 Vibration    20          0.817              1.341              0.769
 Vibration    21          0.828              1.314              0.734
 Vibration    22          0.852              1.259              0.668
 Vibration    23          0.878              1.198              0.602
 Vibration    24          0.912              1.125              0.531
 Vibration    25          0.948              1.051              0.466
 Vibration    26          0.962              1.023              0.443

 Optimization completed.
    -- Stationary point found.
 Normal termination of Gaussian 16 at Thu Dec 10 21:42:43 2020.

 ----------------------------------------------------------------------
 # B3LYP/6-311++G(d,p) empiricaldispersion=gd3bj scf=xqc pop=npa geom=c
 heck
 ----------------------------------------------------------------------

 ---------------------------------------
 CID_136669045_JID_6035_Energie_neutraal
 ---------------------------------------
 Structure from the checkpoint file:  "JID_6035.chk"
 Charge =  0 Multiplicity = 1

 SCF Done:  E(RB3LYP) =  -1123.06481510     A.U. after   16 cycles
 Normal termination of Gaussian 16 at Thu Dec 10 21:47:58 2020.

 ----------------------------------------------------------------------
 # B3LYP/6-311++G(d,p) empiricaldispersion=gd3bj scf=xqc pop=npa geom=c
 heck
 ----------------------------------------------------------------------

 -------------------------------------
 CID_136669045_JID_6035_Energie_kation
 -------------------------------------
 Structure from the checkpoint file:  "JID_6035.chk"
 Charge =  1 Multiplicity = 2

 SCF Done:  E(UB3LYP) =  -1122.75537550     A.U. after   32 cycles
 Normal termination of Gaussian 16 at Thu Dec 10 22:03:07 2020.
 Gaussian 16:  ES64L-G16RevA.03 25-Dec-2016

 ----------------------------------------------------------------------
 # B3LYP/6-311++G(d,p) empiricaldispersion=gd3bj scf=xqc pop=npa geom=c
 heck
 ----------------------------------------------------------------------

 ------------------------------------
 CID_136669045_JID_6035_Energie_anion
 ------------------------------------
 Structure from the checkpoint file:  "JID_6035.chk"
 Charge = -1 Multiplicity = 2

                         Standard orientation:
 ---------------------------------------------------------------------
 Center     Atomic      Atomic             Coordinates (Angstroms)
 Number     Number       Type             X           Y           Z
 ---------------------------------------------------------------------
      1          6           0       -4.376206   -1.304152   -0.269050
      2          6           0       -3.077495   -0.543803   -0.172482
      3          6           0       -2.301337   -0.596490    0.981266
      4          6           0       -1.097400    0.113483    1.094737
      5          6           0       -0.660952    0.934224    0.028804
      6          6           0       -1.454135    0.972410   -1.133560
      7          6           0       -2.624142    0.239158   -1.247927
      8          6           0        0.510294    1.840647    0.137226
      9          7           0        1.691916    1.575053    0.581399
     10          7           0        1.941572    0.218538    0.930482
     11         16           0        2.134568   -0.923086   -0.422673
     12          8           0        1.850519   -0.233166   -1.677969
     13          8           0        3.428672   -1.555100   -0.148909
     14          6           0        0.854213   -2.151489   -0.125953
     15          6           0        0.310331    3.271535   -0.291148
     16          8           0       -0.413829   -0.033331    2.256015
     17          1           0       -4.466075   -1.817489   -1.232898
     18          1           0       -4.464894   -2.050175    0.526149
     19          1           0       -5.234084   -0.624910   -0.184332
     20          1           0       -2.601367   -1.206925    1.827666
     21          1           0       -1.120599    1.574894   -1.971981
     22          1           0       -3.198015    0.276533   -2.169581
     23          1           0        2.875493    0.206274    1.342869
     24          1           0       -0.112811   -1.738351   -0.405592
     25          1           0        1.115120   -3.005806   -0.754708
     26          1           0        0.874610   -2.429343    0.928346
     27          1           0        0.156527    3.328808   -1.375183
     28          1           0       -0.576766    3.699170    0.187776
     29          1           0        1.195516    3.858122   -0.038831
     30          1           0        0.547916    0.063087    2.055322
 ---------------------------------------------------------------------

 SCF Done:  E(UB3LYP) =  -1123.06890456     A.U. after   33 cycles
 SCF Done:  E(UB3LYP) =  -1123.06890456     a.u. after    1 cycles

 The electronic state is 2-A.
 Alpha  occ. eigenvalues --  -88.92924 -19.00284 -19.00157 -18.99829 -14.23723
 Alpha  occ. eigenvalues --  -14.17292 -10.09373 -10.09130 -10.05629 -10.05424
 Alpha  occ. eigenvalues --  -10.04075 -10.03589 -10.03467 -10.03380 -10.03321
 Alpha  occ. eigenvalues --  -10.02928  -7.99407  -5.95640  -5.95630  -5.95471
 Alpha  occ. eigenvalues --   -0.99864  -0.92037  -0.89350  -0.84743  -0.72537
 Alpha  occ. eigenvalues --   -0.70298  -0.65910  -0.63970  -0.60627  -0.58722
 Alpha  occ. eigenvalues --   -0.56349  -0.50576  -0.48095  -0.47077  -0.42924
 Alpha  occ. eigenvalues --   -0.40547  -0.39314  -0.38113  -0.36720  -0.35304
 Alpha  occ. eigenvalues --   -0.34917  -0.32876  -0.32100  -0.31442  -0.30806
 Alpha  occ. eigenvalues --   -0.30623  -0.29337  -0.28952  -0.27420  -0.26624
 Alpha  occ. eigenvalues --   -0.26316  -0.25702  -0.24290  -0.23427  -0.22124
 Alpha  occ. eigenvalues --   -0.21231  -0.20358  -0.19851  -0.19556  -0.18960
 Alpha  occ. eigenvalues --   -0.15214  -0.11966  -0.10749  -0.09502   0.05048
 Alpha virt. eigenvalues --    0.07599   0.08616   0.09358   0.10150   0.10817
 Alpha virt. eigenvalues --    0.11090   0.11172   0.11757   0.12287   0.12983
 Alpha virt. eigenvalues --    0.13414   0.13795   0.14117   0.14329   0.14867

  Beta  occ. eigenvalues --  -88.92850 -19.00251 -19.00124 -18.99770 -14.23627
  Beta  occ. eigenvalues --  -14.16921 -10.09267 -10.09104 -10.05651 -10.05036
  Beta  occ. eigenvalues --  -10.03771 -10.03609 -10.03547 -10.03281 -10.03177
  Beta  occ. eigenvalues --  -10.02925  -7.99325  -5.95581  -5.95482  -5.95410
  Beta  occ. eigenvalues --   -0.99709  -0.91943  -0.89237  -0.84255  -0.72175
  Beta  occ. eigenvalues --   -0.69844  -0.65712  -0.63688  -0.60404  -0.58443
  Beta  occ. eigenvalues --   -0.56229  -0.50268  -0.47747  -0.46881  -0.42553
  Beta  occ. eigenvalues --   -0.40288  -0.39114  -0.37884  -0.36582  -0.35181
  Beta  occ. eigenvalues --   -0.34777  -0.32717  -0.31903  -0.31325  -0.30519
  Beta  occ. eigenvalues --   -0.30442  -0.28948  -0.28660  -0.27285  -0.26308
  Beta  occ. eigenvalues --   -0.26147  -0.25457  -0.24068  -0.23183  -0.21875
  Beta  occ. eigenvalues --   -0.21027  -0.20061  -0.19538  -0.19218  -0.18621
  Beta  occ. eigenvalues --   -0.14194  -0.11181  -0.09748  -0.08704
  Beta virt. eigenvalues --    0.07508   0.08701   0.09276   0.10007   0.10235
  Beta virt. eigenvalues --    0.10897   0.11068   0.11592   0.12159   0.12299
  Beta virt. eigenvalues --    0.13122   0.13310   0.14038   0.14243   0.14893

 Mulliken charges and spin densities:
               1          2
     1  C   -0.432821  -0.175961
     2  C    0.368582   0.285998
     3  C   -0.239066  -0.112120
     4  C   -0.279363   0.067824
     5  C    1.764598   0.088098
     6  C   -0.798720   0.164536
     7  C   -0.504384   0.003832
     8  C   -1.141644   0.194858
     9  N    0.056991   0.159196
    10  N   -0.567720   0.009906
    11  S    0.433432   0.095281
    12  O   -0.208282   0.011083
    13  O   -0.206514   0.014516
    14  C   -0.687920  -0.060200
    15  C   -0.555635  -0.026970
    16  O   -0.298833   0.009460
    17  H    0.123770   0.005975
    18  H    0.113618   0.015691
    19  H    0.049389   0.106612
    20  H    0.125392   0.019229
    21  H    0.115443  -0.009597
    22  H    0.127519   0.003209
    23  H    0.324714   0.014570
    24  H    0.256793  -0.018111
    25  H    0.119600   0.088255
    26  H    0.215802  -0.001959
    27  H    0.119305   0.037376
    28  H    0.128149   0.012308
    29  H    0.121328  -0.004077
    30  H    0.356479   0.001182
 Sum of Mulliken charges =  -1.00000   1.00000

 Dipole moment (field-independent basis, Debye):
    X=             -1.7966    Y=             -2.1679    Z=              0.1337  Tot=              2.8187
 Quadrupole moment (field-independent basis, Debye-Ang):
   XX=           -147.9724   YY=           -119.5107   ZZ=           -120.4021
   XY=              1.9758   XZ=              7.5530   YZ=             -2.2664

 Summary of Natural Population Analysis:

                                       Natural Population
                Natural  -----------------------------------------------
    Atom  No    Charge         Core      Valence    Rydberg      Total
 -----------------------------------------------------------------------
      C    1   -0.29243      0.99965     2.28779    0.00499     3.29243
      C    2    0.03533      0.99952     1.95700    0.00815     2.96467
      C    3   -0.14050      0.99948     2.13158    0.00944     3.14050
      C    4    0.18639      0.99936     1.80055    0.01370     2.81361
      C    5   -0.08816      0.99943     2.07679    0.01195     3.08816
      C    6   -0.04209      0.99955     2.03457    0.00797     3.04209
      C    7   -0.14571      0.99952     2.13757    0.00861     3.14571
      C    8    0.19229      0.99958     1.78929    0.01884     2.80771
      N    9   -0.13457      0.99963     2.61940    0.01553     3.63457
      N   10   -0.36238      0.99976     2.84543    0.01719     3.86238
      S   11    1.08384      4.99939     1.82056    0.09621     6.91616
      O   12   -0.44511      0.99990     3.43824    0.00696     4.44511
      O   13   -0.47389      0.99991     3.46855    0.00544     4.47389
      C   14   -0.38897      0.99960     2.38187    0.00750     3.38897
      C   15   -0.29546      0.99963     2.29159    0.00423     3.29546
      O   16   -0.36368      0.99987     3.35613    0.00768     4.36368
      H   17    0.09743      0.00000     0.40153    0.00103     0.40257
      H   18    0.09656      0.00000     0.40248    0.00096     0.40344
      H   19    0.10071      0.00000     0.39776    0.00154     0.39929
      H   20    0.09586      0.00000     0.40271    0.00143     0.40414
      H   21    0.09411      0.00000     0.40458    0.00131     0.40589
      H   22    0.09114      0.00000     0.40759    0.00127     0.40886
      H   23    0.19262      0.00000     0.30516    0.00221     0.30738
      H   24    0.12826      0.00000     0.37002    0.00173     0.37174
      H   25    0.10992      0.00000     0.38822    0.00186     0.39008
      H   26    0.11455      0.00000     0.38405    0.00140     0.38545
      H   27    0.10233      0.00000     0.39675    0.00093     0.39767
      H   28    0.09910      0.00000     0.40006    0.00084     0.40090
      H   29    0.10376      0.00000     0.39529    0.00095     0.39624
      H   30    0.24875      0.00000     0.24755    0.00370     0.25125
 =======================================================================
   * Total *   -0.00000     19.99379    43.74065    0.26556    64.00000

 Normal termination of Gaussian 16 at Thu Dec 10 22:18:32 2020.
