 Gaussian 16, Revision A.03,

 -----------------------------------------------------------
 # opt freq B3LYP/6-31G(d) empiricaldispersion=gd3bj scf=xqc
 -----------------------------------------------------------

 -------------------------------
 CID_130130102_JID_1638_neutraal
 -------------------------------
 Symbolic Z-matrix:
 Charge =  0 Multiplicity = 1

 SCF Done:  E(RB3LYP) =  -467.143661957     A.U. after   14 cycles
 SCF Done:  E(RB3LYP) =  -467.147382400     A.U. after   11 cycles
 SCF Done:  E(RB3LYP) =  -467.147772723     A.U. after   11 cycles
 SCF Done:  E(RB3LYP) =  -467.147947546     A.U. after   11 cycles
 SCF Done:  E(RB3LYP) =  -467.147995118     A.U. after    9 cycles
 SCF Done:  E(RB3LYP) =  -467.148015171     A.U. after   10 cycles
 SCF Done:  E(RB3LYP) =  -467.148018197     A.U. after    9 cycles
 SCF Done:  E(RB3LYP) =  -467.148021802     A.U. after    9 cycles
 SCF Done:  E(RB3LYP) =  -467.148023148     A.U. after    8 cycles
 SCF Done:  E(RB3LYP) =  -467.148023702     A.U. after    7 cycles
 SCF Done:  E(RB3LYP) =  -467.148027917     A.U. after    9 cycles
 SCF Done:  E(RB3LYP) =  -467.148030706     A.U. after    9 cycles
 SCF Done:  E(RB3LYP) =  -467.148031942     A.U. after    9 cycles
 SCF Done:  E(RB3LYP) =  -467.148034057     A.U. after    9 cycles
 SCF Done:  E(RB3LYP) =  -467.148034314     A.U. after    7 cycles
 SCF Done:  E(RB3LYP) =  -467.148034409     A.U. after    7 cycles
 Optimization completed.
    -- Stationary point found.
 Normal termination of Gaussian 16 at Tue Dec  8 20:40:09 2020.

 --------------------------------------------------------------------
 #N Geom=AllCheck Guess=TCheck SCRF=Check GenChk RB3LYP/6-31G(d) Freq
 --------------------------------------------------------------------

 Structure from the checkpoint file:  "JID_1638.chk"
 -------------------------------
 CID_130130102_JID_1638_neutraal
 -------------------------------
 Charge =  0 Multiplicity = 1

 SCF Done:  E(RB3LYP) =  -467.148034409     A.U. after    1 cycles

  Exact polarizability: 126.804   3.518  97.455   8.644   1.857  96.264
 Approx polarizability: 159.603  10.993 141.004  18.498   4.883 143.439

                      1                      2                      3
                      A                      A                      A
 Frequencies --     29.8945                47.3753                67.6133
 Red. masses --      2.6142                 2.4055                 3.2923
 Frc consts  --      0.0014                 0.0032                 0.0089
 IR Inten    --      0.3427                 0.6106                 0.3630

                      4                      5                      6
                      A                      A                      A
 Frequencies --     77.0706                88.1229               168.4518
 Red. masses --      2.5571                 2.7840                 1.4003
 Frc consts  --      0.0089                 0.0127                 0.0234
 IR Inten    --      1.4363                 0.3211                 0.3983

                      7                      8                      9
                      A                      A                      A
 Frequencies --    187.6243               232.6702               255.7462
 Red. masses --      1.5775                 2.8103                 3.1656
 Frc consts  --      0.0327                 0.0896                 0.1220
 IR Inten    --      0.0820                 1.6989                 0.1894

                     10                     11                     12
                      A                      A                      A
 Frequencies --    313.1039               348.7023               355.3956
 Red. masses --      2.7810                 1.4361                 1.8452
 Frc consts  --      0.1606                 0.1029                 0.1373
 IR Inten    --      1.7120                64.5006                15.6297

                     13                     14                     15
                      A                      A                      A
 Frequencies --    421.5560               472.5332               532.8065
 Red. masses --      1.7960                 2.1744                 2.4143
 Frc consts  --      0.1880                 0.2861                 0.4038
 IR Inten    --     39.4177                 3.6501                 2.2613

                     16                     17                     18
                      A                      A                      A
 Frequencies --    578.7295               621.6195               627.1239
 Red. masses --      3.6876                 2.6684                 2.7955
 Frc consts  --      0.7277                 0.6075                 0.6478
 IR Inten    --      3.8108                 0.8348                 0.3855

                     19                     20                     21
                      A                      A                      A
 Frequencies --    771.0168               800.5163               823.4756
 Red. masses --      1.3317                 2.3990                 1.7891
 Frc consts  --      0.4664                 0.9058                 0.7148
 IR Inten    --      1.6317                 2.8669                 0.0933

                     22                     23                     24
                      A                      A                      A
 Frequencies --    869.7927               894.9932               900.0200
 Red. masses --      3.1527                 1.4660                 2.5006
 Frc consts  --      1.4053                 0.6918                 1.1935
 IR Inten    --      0.2656                 2.6674                 0.1790

                     25                     26                     27
                      A                      A                      A
 Frequencies --    909.3336               955.2441               961.9872
 Red. masses --      1.9013                 1.7147                 1.4972
 Frc consts  --      0.9263                 0.9219                 0.8164
 IR Inten    --      2.8984                 9.9671                23.4703

                     28                     29                     30
                      A                      A                      A
 Frequencies --    991.4232               996.0289              1013.8568
 Red. masses --      1.3990                 1.6399                 1.7491
 Frc consts  --      0.8102                 0.9586                 1.0593
 IR Inten    --      0.5277                 2.7164                 3.9636

                     31                     32                     33
                      A                      A                      A
 Frequencies --   1042.6788              1050.1014              1075.2706
 Red. masses --      2.8142                 3.4860                 1.7115
 Frc consts  --      1.8027                 2.2648                 1.1659
 IR Inten    --     76.6127                48.3325                 0.5729

                     34                     35                     36
                      A                      A                      A
 Frequencies --   1082.2825              1109.0103              1126.7839
 Red. masses --      1.5246                 1.9985                 2.3406
 Frc consts  --      1.0522                 1.4482                 1.7509
 IR Inten    --      0.6907                 0.4435                13.0449

                     37                     38                     39
                      A                      A                      A
 Frequencies --   1191.6324              1205.1942              1222.0936
 Red. masses --      1.4216                 1.4530                 1.3751
 Frc consts  --      1.1894                 1.2434                 1.2101
 IR Inten    --      6.3462                 3.0281                 0.5001

                     40                     41                     42
                      A                      A                      A
 Frequencies --   1231.0297              1245.3463              1278.5931
 Red. masses --      1.3509                 1.5184                 1.5010
 Frc consts  --      1.2062                 1.3875                 1.4458
 IR Inten    --      3.6315                 0.5640                 0.9871

                     43                     44                     45
                      A                      A                      A
 Frequencies --   1295.9187              1313.3342              1319.7563
 Red. masses --      1.2173                 1.3788                 1.3188
 Frc consts  --      1.2045                 1.4012                 1.3533
 IR Inten    --      0.1571                 1.8489                 0.4667

                     46                     47                     48
                      A                      A                      A
 Frequencies --   1345.0150              1358.9274              1360.3571
 Red. masses --      1.3085                 1.3304                 1.3617
 Frc consts  --      1.3947                 1.4475                 1.4847
 IR Inten    --      2.6136                 0.9515                 0.5495

                     49                     50                     51
                      A                      A                      A
 Frequencies --   1377.5914              1384.7089              1403.0622
 Red. masses --      1.2362                 1.3984                 1.3422
 Frc consts  --      1.3823                 1.5798                 1.5567
 IR Inten    --      2.0721                 1.9116                30.9024

                     52                     53                     54
                      A                      A                      A
 Frequencies --   1422.6004              1432.4364              1443.2016
 Red. masses --      1.3717                 1.4172                 1.2530
 Frc consts  --      1.6355                 1.7133                 1.5377
 IR Inten    --      4.6944                25.6344                26.5305

                     55                     56                     57
                      A                      A                      A
 Frequencies --   1503.5314              1513.4418              1516.7465
 Red. masses --      1.0496                 1.0935                 1.0805
 Frc consts  --      1.3979                 1.4757                 1.4646
 IR Inten    --      4.7388                 5.1634                 0.8588

                     58                     59                     60
                      A                      A                      A
 Frequencies --   1524.8575              1527.6221              1528.7565
 Red. masses --      1.0910                 1.0850                 1.0631
 Frc consts  --      1.4946                 1.4919                 1.4639
 IR Inten    --      0.8548                 1.8954                 8.6492

                     61                     62                     63
                      A                      A                      A
 Frequencies --   1543.6406              1550.4168              1746.1967
 Red. masses --      1.0942                 1.1045                 6.7201
 Frc consts  --      1.5361                 1.5642                12.0729
 IR Inten    --      1.2942                 0.8183                 0.9077

                     64                     65                     66
                      A                      A                      A
 Frequencies --   3007.3245              3034.8876              3035.3932
 Red. masses --      1.0817                 1.0658                 1.0428
 Frc consts  --      5.7639                 5.7836                 5.6606
 IR Inten    --     22.2211                54.1611                30.3302

                     67                     68                     69
                      A                      A                      A
 Frequencies --   3045.2159              3047.1822              3051.9649
 Red. masses --      1.0628                 1.0620                 1.0649
 Frc consts  --      5.8067                 5.8101                 5.8443
 IR Inten    --     11.2202                56.5508                19.6903

                     70                     71                     72
                      A                      A                      A
 Frequencies --   3055.8466              3069.6533              3077.7144
 Red. masses --      1.0603                 1.0641                 1.0950
 Frc consts  --      5.8335                 5.9075                 6.1113
 IR Inten    --     32.3141                44.9258                27.7702

                     73                     74                     75
                      A                      A                      A
 Frequencies --   3085.6723              3088.9766              3093.7660
 Red. masses --      1.1007                 1.1028                 1.1005
 Frc consts  --      6.1749                 6.1999                 6.2060
 IR Inten    --     31.1601                34.3008                28.0745

                     76                     77                     78
                      A                      A                      A
 Frequencies --   3094.4432              3100.3578              3115.9380
 Red. masses --      1.0929                 1.1039                 1.1057
 Frc consts  --      6.1659                 6.2518                 6.3249
 IR Inten    --     23.3564                12.1964                88.1363

                     79                     80                     81
                      A                      A                      A
 Frequencies --   3129.9903              3141.1435              3732.3988
 Red. masses --      1.1025                 1.0885                 1.0661
 Frc consts  --      6.3636                 6.3277                 8.7506
 IR Inten    --     11.0127                38.2462                 9.6844

 - Thermochemistry -
 -------------------
 Temperature   298.150 Kelvin.  Pressure   1.00000 Atm.
 Atom     1 has atomic number  6 and mass  12.00000

 Molecular mass:   154.13577 amu.
 Principal axes and moments of inertia in atomic units:
                           1         2         3
     Eigenvalues --   884.804133452.246243602.15114
           X            0.99995  -0.00982   0.00346
           Y            0.00992   0.99950  -0.02991
           Z           -0.00317   0.02994   0.99955
 This molecule is an asymmetric top.
 Rotational symmetry number  1.
 Warning -- assumption of classical behavior for rotation
           may cause significant error
 Rotational temperatures (Kelvin)      0.09789     0.02509     0.02405
 Rotational constants (GHZ):           2.03971     0.52277     0.50102
 Zero-point vibrational energy     697386.0 (Joules/Mol)
                                  166.67925 (Kcal/Mol)
 Warning -- explicit consideration of  16 degrees of freedom as
           vibrations may cause significant error
 Vibrational temperatures:     43.01    68.16    97.28   110.89   126.79
          (Kelvin)            242.36   269.95   334.76   367.96   450.49
                              501.70   511.33   606.53   679.87   766.59
                              832.66   894.37   902.29  1109.32  1151.76
                             1184.80  1251.44  1287.70  1294.93  1308.33
                             1374.38  1384.09  1426.44  1433.06  1458.71
                             1500.18  1510.86  1547.07  1557.16  1595.62
                             1621.19  1714.49  1734.01  1758.32  1771.18
                             1791.78  1839.61  1864.54  1889.60  1898.83
                             1935.18  1955.19  1957.25  1982.05  1992.29
                             2018.69  2046.80  2060.96  2076.45  2163.25
                             2177.51  2182.26  2193.93  2197.91  2199.54
                             2220.95  2230.70  2512.39  4326.87  4366.53
                             4367.25  4381.39  4384.22  4391.10  4396.68
                             4416.55  4428.14  4439.59  4444.35  4451.24
                             4452.21  4460.72  4483.14  4503.36  4519.40
                             5370.09

 Zero-point correction=                           0.265620 (Hartree/Particle)
 Thermal correction to Energy=                    0.278059
 Thermal correction to Enthalpy=                  0.279003
 Thermal correction to Gibbs Free Energy=         0.225543
 Sum of electronic and zero-point Energies=           -466.882414
 Sum of electronic and thermal Energies=              -466.869975
 Sum of electronic and thermal Enthalpies=            -466.869031
 Sum of electronic and thermal Free Energies=         -466.922492

                     E (Thermal)             CV                S
                      KCal/Mol        Cal/Mol-Kelvin    Cal/Mol-Kelvin
 Total                  174.485             45.724            112.518
 Electronic               0.000              0.000              0.000
 Translational            0.889              2.981             41.008
 Rotational               0.889              2.981             30.776
 Vibrational            172.707             39.762             40.734
 Vibration     1          0.594              1.984              5.836
 Vibration     2          0.595              1.979              4.924
 Vibration     3          0.598              1.970              4.222
 Vibration     4          0.599              1.964              3.964
 Vibration     5          0.601              1.958              3.701
 Vibration     6          0.625              1.881              2.453
 Vibration     7          0.632              1.857              2.251
 Vibration     8          0.653              1.791              1.858
 Vibration     9          0.666              1.753              1.691
 Vibration    10          0.701              1.649              1.346
 Vibration    11          0.726              1.578              1.172
 Vibration    12          0.731              1.564              1.142
 Vibration    13          0.784              1.423              0.887
 Vibration    14          0.829              1.311              0.730
 Vibration    15          0.888              1.177              0.581
 Vibration    16          0.935              1.077              0.488

 Optimization completed.
    -- Stationary point found.
 Normal termination of Gaussian 16 at Tue Dec  8 20:47:23 2020.

 ----------------------------------------------------------------------
 # B3LYP/6-311++G(d,p) empiricaldispersion=gd3bj scf=xqc pop=npa geom=c
 heck
 ----------------------------------------------------------------------

 ---------------------------------------
 CID_130130102_JID_1638_Energie_neutraal
 ---------------------------------------
 Structure from the checkpoint file:  "JID_1638.chk"
 Charge =  0 Multiplicity = 1

 SCF Done:  E(RB3LYP) =  -467.288344605     A.U. after   13 cycles
 Normal termination of Gaussian 16 at Tue Dec  8 20:51:17 2020.

 ----------------------------------------------------------------------
 # B3LYP/6-311++G(d,p) empiricaldispersion=gd3bj scf=xqc pop=npa geom=c
 heck
 ----------------------------------------------------------------------

 -------------------------------------
 CID_130130102_JID_1638_Energie_kation
 -------------------------------------
 Structure from the checkpoint file:  "JID_1638.chk"
 Charge =  1 Multiplicity = 2

 SCF Done:  E(UB3LYP) =  -466.965773071     A.U. after   19 cycles
 Normal termination of Gaussian 16 at Tue Dec  8 20:58:26 2020.
 Gaussian 16:  ES64L-G16RevA.03 25-Dec-2016

 ----------------------------------------------------------------------
 # B3LYP/6-311++G(d,p) empiricaldispersion=gd3bj scf=xqc pop=npa geom=c
 heck
 ----------------------------------------------------------------------

 ------------------------------------
 CID_130130102_JID_1638_Energie_anion
 ------------------------------------
 Structure from the checkpoint file:  "JID_1638.chk"
 Charge = -1 Multiplicity = 2

                         Standard orientation:
 ---------------------------------------------------------------------
 Center     Atomic      Atomic             Coordinates (Angstroms)
 Number     Number       Type             X           Y           Z
 ---------------------------------------------------------------------
      1          6           0       -2.639100    1.283707   -1.222244
      2          6           0       -1.825510    0.468664   -0.248488
      3          6           0       -0.824512    1.011305    0.462696
      4          6           0        0.081467    0.338024    1.459977
      5          6           0        1.459307   -0.068733    0.894749
      6          6           0        1.418976   -1.137529   -0.212924
      7          6           0        2.794974   -1.044637   -0.924103
      8          6           0        3.419963    0.304367   -0.463488
      9          6           0        2.276180    1.056383    0.238576
     10          6           0       -2.258261   -0.973018   -0.123444
     11          8           0       -3.618410   -1.088384    0.309123
     12          1           0       -2.341614    2.336689   -1.219079
     13          1           0       -3.706348    1.216707   -0.983442
     14          1           0       -2.524286    0.897856   -2.244773
     15          1           0       -0.610327    2.066179    0.287632
     16          1           0        0.245177    1.027485    2.299586
     17          1           0       -0.393803   -0.552958    1.886048
     18          1           0        2.050046   -0.464771    1.734749
     19          1           0        1.208061   -2.138743    0.178744
     20          1           0        0.614994   -0.888679   -0.915555
     21          1           0        2.676049   -1.080796   -2.011919
     22          1           0        3.442292   -1.884925   -0.652431
     23          1           0        3.853113    0.873662   -1.292221
     24          1           0        4.229784    0.117552    0.251976
     25          1           0        1.654413    1.572843   -0.504244
     26          1           0        2.628150    1.807989    0.954587
     27          1           0       -2.234935   -1.457178   -1.106773
     28          1           0       -1.588773   -1.541989    0.533209
     29          1           0       -3.675625   -0.631052    1.163076
 ---------------------------------------------------------------------

 SCF Done:  E(UB3LYP) =  -467.274113135     A.U. after   30 cycles

 The electronic state is 2-A.
 Alpha  occ. eigenvalues --  -19.01530 -10.10820 -10.06742 -10.06186 -10.05923
 Alpha  occ. eigenvalues --  -10.05835 -10.05817 -10.05810 -10.05758 -10.05232
 Alpha  occ. eigenvalues --  -10.05211  -0.91440  -0.73483  -0.70165  -0.64495
 Alpha  occ. eigenvalues --   -0.60040  -0.58460  -0.57580  -0.52801  -0.46212
 Alpha  occ. eigenvalues --   -0.45132  -0.42719  -0.38568  -0.37687  -0.36025
 Alpha  occ. eigenvalues --   -0.35440  -0.33364  -0.33214  -0.31039  -0.30617
 Alpha  occ. eigenvalues --   -0.29775  -0.27516  -0.27018  -0.24968  -0.23357
 Alpha  occ. eigenvalues --   -0.23164  -0.23140  -0.22618  -0.21298  -0.20683
 Alpha  occ. eigenvalues --   -0.20527  -0.17085  -0.13897   0.04640
 Alpha virt. eigenvalues --    0.07096   0.07333   0.07886   0.08917   0.09287
 Alpha virt. eigenvalues --    0.09625   0.10387   0.10514   0.11114   0.12007
 Alpha virt. eigenvalues --    0.12157   0.12501   0.12790   0.13730   0.14465

  Beta  occ. eigenvalues --  -19.01489 -10.10801 -10.06729 -10.06171 -10.05904
  Beta  occ. eigenvalues --  -10.05796 -10.05795 -10.05792 -10.05740 -10.05206
  Beta  occ. eigenvalues --  -10.05199  -0.91347  -0.73446  -0.70103  -0.64443
  Beta  occ. eigenvalues --   -0.59998  -0.58403  -0.57500  -0.52745  -0.46146
  Beta  occ. eigenvalues --   -0.45075  -0.42642  -0.38501  -0.37634  -0.35977
  Beta  occ. eigenvalues --   -0.35381  -0.33300  -0.33160  -0.31009  -0.30575
  Beta  occ. eigenvalues --   -0.29741  -0.27483  -0.26985  -0.24923  -0.23319
  Beta  occ. eigenvalues --   -0.23128  -0.23081  -0.22574  -0.21260  -0.20639
  Beta  occ. eigenvalues --   -0.20492  -0.17040  -0.13737
  Beta virt. eigenvalues --    0.06851   0.07784   0.08111   0.08441   0.09469
  Beta virt. eigenvalues --    0.09609   0.09888   0.10852   0.10941   0.11441
  Beta virt. eigenvalues --    0.12242   0.12471   0.12836   0.13126   0.14061

 Mulliken charges and spin densities:
               1          2
     1  C   -0.012746  -0.496081
     2  C   -1.114806   1.632137
     3  C    1.066608  -1.398384
     4  C    0.741189  -1.118077
     5  C   -0.775551   1.293979
     6  C    0.338691  -0.828447
     7  C    0.035156  -0.506576
     8  C    0.444356  -0.912155
     9  C    0.136815  -0.500847
    10  C    0.229195  -0.852849
    11  O   -0.254811   0.042968
    12  H   -0.249368   0.388501
    13  H    0.027086   0.116153
    14  H   -0.053457   0.194072
    15  H   -0.002995   0.174686
    16  H   -0.372458   0.539786
    17  H   -0.271485   0.400485
    18  H   -0.324698   0.537215
    19  H   -0.028506   0.188370
    20  H    0.382372  -0.273871
    21  H   -0.123132   0.254021
    22  H   -0.160338   0.295666
    23  H   -0.122488   0.265869
    24  H   -0.001840   0.132090
    25  H   -0.047481   0.178237
    26  H   -0.288258   0.450836
    27  H    0.037586   0.129274
    28  H   -0.132788   0.329185
    29  H   -0.101848   0.343760
 Sum of Mulliken charges =  -1.00000   1.00000

 Dipole moment (field-independent basis, Debye):
    X=              0.3683    Y=              0.2574    Z=             -2.4453  Tot=              2.4863
 Quadrupole moment (field-independent basis, Debye-Ang):
   XX=           -137.3079   YY=           -105.8240   ZZ=           -107.3939
   XY=             -3.8484   XZ=             -1.1251   YZ=              1.2568

 Summary of Natural Population Analysis:

                                       Natural Population
                Natural  -----------------------------------------------
    Atom  No    Charge         Core      Valence    Rydberg      Total
 -----------------------------------------------------------------------
      C    1   -0.29453      0.99962     2.28952    0.00539     3.29453
      C    2   -0.02848      0.99948     2.01875    0.01026     3.02848
      C    3   -0.08038      0.99945     2.06956    0.01137     3.08038
      C    4   -0.20561      0.99959     2.19438    0.01164     3.20561
      C    5   -0.10431      0.99959     2.09363    0.01110     3.10431
      C    6   -0.19209      0.99961     2.18516    0.00732     3.19209
      C    7   -0.19055      0.99965     2.18413    0.00678     3.19055
      C    8   -0.18919      0.99965     2.18272    0.00683     3.18919
      C    9   -0.19154      0.99962     2.18305    0.00887     3.19154
      C   10   -0.02242      0.99953     2.01092    0.01197     3.02242
      O   11   -0.36980      0.99990     3.36323    0.00666     4.36980
      H   12    0.09954      0.00000     0.39935    0.00111     0.40046
      H   13    0.10533      0.00000     0.39301    0.00167     0.39467
      H   14    0.09921      0.00000     0.39930    0.00149     0.40079
      H   15    0.09166      0.00000     0.40709    0.00125     0.40834
      H   16    0.10370      0.00000     0.39459    0.00171     0.39630
      H   17    0.10190      0.00000     0.39621    0.00189     0.39810
      H   18    0.09533      0.00000     0.40208    0.00260     0.40467
      H   19    0.09921      0.00000     0.39945    0.00134     0.40079
      H   20    0.09759      0.00000     0.40030    0.00211     0.40241
      H   21    0.09450      0.00000     0.40426    0.00125     0.40550
      H   22    0.09557      0.00000     0.40309    0.00134     0.40443
      H   23    0.09572      0.00000     0.40312    0.00116     0.40428
      H   24    0.09395      0.00000     0.40447    0.00158     0.40605
      H   25    0.09551      0.00000     0.40290    0.00158     0.40449
      H   26    0.10043      0.00000     0.39824    0.00133     0.39957
      H   27    0.08656      0.00000     0.41180    0.00165     0.41344
      H   28    0.08444      0.00000     0.41369    0.00187     0.41556
      H   29    0.22876      0.00000     0.26674    0.00449     0.27124
 =======================================================================
   * Total *   -0.00000     10.99569    31.87472    0.12960    43.00000

 Normal termination of Gaussian 16 at Tue Dec  8 21:09:30 2020.
