 Gaussian 16, Revision A.03,

 -----------------------------------------------------------
 # opt freq B3LYP/6-31G(d) empiricaldispersion=gd3bj scf=xqc
 -----------------------------------------------------------

 ------------------------------
 CID_22766794_JID_9201_neutraal
 ------------------------------
 Symbolic Z-matrix:
 Charge =  0 Multiplicity = 1

 SCF Done:  E(RB3LYP) =  -1224.81107238     A.U. after   14 cycles
 SCF Done:  E(RB3LYP) =  -1224.77067745     A.U. after   15 cycles
 SCF Done:  E(RB3LYP) =  -1224.81774645     A.U. after   13 cycles
 SCF Done:  E(RB3LYP) =  -1224.81737892     A.U. after   14 cycles
 SCF Done:  E(RB3LYP) =  -1224.82016144     A.U. after   12 cycles
 SCF Done:  E(RB3LYP) =  -1224.82069392     A.U. after   14 cycles
 SCF Done:  E(RB3LYP) =  -1224.82089728     A.U. after   13 cycles
 SCF Done:  E(RB3LYP) =  -1224.82091133     A.U. after   13 cycles
 SCF Done:  E(RB3LYP) =  -1224.82239148     A.U. after   12 cycles
 SCF Done:  E(RB3LYP) =  -1224.82366059     A.U. after   13 cycles
 SCF Done:  E(RB3LYP) =  -1224.82632850     A.U. after   10 cycles
 SCF Done:  E(RB3LYP) =  -1224.82632872     A.U. after    7 cycles
 SCF Done:  E(RB3LYP) =  -1224.82632877     A.U. after    8 cycles
 SCF Done:  E(RB3LYP) =  -1224.82632899     A.U. after    9 cycles
 SCF Done:  E(RB3LYP) =  -1224.82632901     A.U. after    6 cycles
 Optimization completed.
    -- Stationary point found.
 Normal termination of Gaussian 16 at Sat Dec 12 10:02:10 2020.

 --------------------------------------------------------------------
 #N Geom=AllCheck Guess=TCheck SCRF=Check GenChk RB3LYP/6-31G(d) Freq
 --------------------------------------------------------------------

 Structure from the checkpoint file:  "JID_9201.chk"
 ------------------------------
 CID_22766794_JID_9201_neutraal
 ------------------------------
 Charge =  0 Multiplicity = 1

 SCF Done:  E(RB3LYP) =  -1224.82632901     A.U. after    1 cycles

  Exact polarizability: 185.783 -21.226 176.808  -9.059  -9.574 160.056
 Approx polarizability: 254.200 -41.676 261.968 -19.537 -26.551 279.840

                      1                      2                      3
                      A                      A                      A
 Frequencies --     22.0082                26.5815                43.0219
 Red. masses --      4.8478                 5.7128                 5.2478
 Frc consts  --      0.0014                 0.0024                 0.0057
 IR Inten    --      0.4589                 0.5949                 1.4188

                      4                      5                      6
                      A                      A                      A
 Frequencies --     48.8312                55.2489                70.2768
 Red. masses --      1.1537                 3.0775                 2.6889
 Frc consts  --      0.0016                 0.0055                 0.0078
 IR Inten    --      0.0121                 1.1320                 0.4274

                      7                      8                      9
                      A                      A                      A
 Frequencies --     88.8437               102.2033               111.8591
 Red. masses --      8.0311                 5.1979                 5.5302
 Frc consts  --      0.0373                 0.0320                 0.0408
 IR Inten    --      5.0191                 3.2055                 4.4345

                     10                     11                     12
                      A                      A                      A
 Frequencies --    124.2239               156.7745               163.9177
 Red. masses --      4.7227                 2.9472                 2.2612
 Frc consts  --      0.0429                 0.0427                 0.0358
 IR Inten    --      1.2388                 6.7139                 0.7452

                     13                     14                     15
                      A                      A                      A
 Frequencies --    207.7143               221.1880               240.5210
 Red. masses --      2.5944                 3.0983                 2.4299
 Frc consts  --      0.0660                 0.0893                 0.0828
 IR Inten    --      5.7296                 0.8393                 7.4426

                     16                     17                     18
                      A                      A                      A
 Frequencies --    241.0220               251.2506               268.0435
 Red. masses --      2.6179                 3.1741                 2.5527
 Frc consts  --      0.0896                 0.1181                 0.1081
 IR Inten    --      2.6685                15.1768                15.4188

                     19                     20                     21
                      A                      A                      A
 Frequencies --    287.7634               327.5772               358.0086
 Red. masses --      2.9888                 1.8325                 2.3451
 Frc consts  --      0.1458                 0.1159                 0.1771
 IR Inten    --     13.9570                54.1489                 7.0910

                     22                     23                     24
                      A                      A                      A
 Frequencies --    378.4138               407.8812               423.3189
 Red. masses --      2.1069                 2.1456                11.6627
 Frc consts  --      0.1778                 0.2103                 1.2314
 IR Inten    --     14.2840                14.0864                 1.9939

                     25                     26                     27
                      A                      A                      A
 Frequencies --    446.5880               477.9228               485.8329
 Red. masses --      2.9062                 2.6701                 3.6811
 Frc consts  --      0.3415                 0.3593                 0.5119
 IR Inten    --      1.6078                 2.5841                13.6232

                     28                     29                     30
                      A                      A                      A
 Frequencies --    527.6579               532.0964               563.7231
 Red. masses --      2.7313                 3.2342                 3.8608
 Frc consts  --      0.4480                 0.5395                 0.7229
 IR Inten    --      8.7801                 7.0865                 1.3938

                     31                     32                     33
                      A                      A                      A
 Frequencies --    588.8263               604.2268               617.9822
 Red. masses --      3.9261                 3.7565                 4.0004
 Frc consts  --      0.8020                 0.8080                 0.9001
 IR Inten    --      0.6509                36.7012                 2.6122

                     34                     35                     36
                      A                      A                      A
 Frequencies --    704.3294               713.8199               724.6434
 Red. masses --      4.7983                 2.2423                 1.4283
 Frc consts  --      1.4024                 0.6732                 0.4419
 IR Inten    --      9.3053                 3.6585               149.0107

                     37                     38                     39
                      A                      A                      A
 Frequencies --    733.9520               770.2804               795.8318
 Red. masses --      3.7436                 5.3628                 1.2440
 Frc consts  --      1.1882                 1.8747                 0.4642
 IR Inten    --     13.3381                 9.1691                39.1730

                     40                     41                     42
                      A                      A                      A
 Frequencies --    810.0746               844.1278               861.7815
 Red. masses --      1.3878                 2.0942                 2.4555
 Frc consts  --      0.5366                 0.8792                 1.0744
 IR Inten    --     17.8634                 2.6636                 7.7865

                     43                     44                     45
                      A                      A                      A
 Frequencies --    872.8461               883.8787               886.8572
 Red. masses --      2.5623                 3.1982                 1.3587
 Frc consts  --      1.1501                 1.4721                 0.6296
 IR Inten    --      1.2081                 0.3916                 1.2146

                     46                     47                     48
                      A                      A                      A
 Frequencies --    902.9052               930.5509               947.3571
 Red. masses --      1.5005                 2.1733                 2.3608
 Frc consts  --      0.7207                 1.1088                 1.2483
 IR Inten    --      3.7950                20.9553                 3.3115

                     49                     50                     51
                      A                      A                      A
 Frequencies --    962.0312              1009.3917              1018.9042
 Red. masses --      1.2647                 2.1774                 4.9431
 Frc consts  --      0.6896                 1.3071                 3.0235
 IR Inten    --      0.0314                 9.6355                 0.4956

                     52                     53                     54
                      A                      A                      A
 Frequencies --   1026.9245              1045.4013              1074.5201
 Red. masses --      2.0587                 1.9607                 1.5148
 Frc consts  --      1.2792                 1.2625                 1.0304
 IR Inten    --     24.6577                50.5213                 8.3235

                     55                     56                     57
                      A                      A                      A
 Frequencies --   1080.6780              1105.4672              1129.3671
 Red. masses --      1.8862                 1.8985                 1.6441
 Frc consts  --      1.2979                 1.3670                 1.2355
 IR Inten    --      3.9681                22.1639                 3.8097

                     58                     59                     60
                      A                      A                      A
 Frequencies --   1131.4526              1147.5669              1188.3707
 Red. masses --      5.4867                 1.7818                 1.4665
 Frc consts  --      4.1385                 1.3825                 1.2203
 IR Inten    --     37.1883                27.0439                40.5276

                     61                     62                     63
                      A                      A                      A
 Frequencies --   1202.8689              1208.4556              1221.4105
 Red. masses --      1.6772                 1.1587                 1.4310
 Frc consts  --      1.4298                 0.9970                 1.2578
 IR Inten    --    102.5248                35.0136                71.9531

                     64                     65                     66
                      A                      A                      A
 Frequencies --   1238.1629              1239.3859              1268.2506
 Red. masses --      1.3509                 2.5365                 1.3793
 Frc consts  --      1.2202                 2.2956                 1.3071
 IR Inten    --     21.9155                 9.2709                 2.9090

                     67                     68                     69
                      A                      A                      A
 Frequencies --   1296.3209              1311.3213              1325.3643
 Red. masses --      1.3196                 1.6749                 1.3821
 Frc consts  --      1.3065                 1.6969                 1.4305
 IR Inten    --     22.8156                20.8931                 0.8065

                     70                     71                     72
                      A                      A                      A
 Frequencies --   1335.5288              1343.8432              1353.0715
 Red. masses --      1.1733                 1.4521                 1.2731
 Frc consts  --      1.2330                 1.5450                 1.3733
 IR Inten    --     33.3018                 8.0070                10.3941

                     73                     74                     75
                      A                      A                      A
 Frequencies --   1364.8639              1398.1598              1399.6345
 Red. masses --      2.5433                 2.2982                 1.3286
 Frc consts  --      2.7914                 2.6469                 1.5335
 IR Inten    --      1.3927                77.3835                35.1686

                     76                     77                     78
                      A                      A                      A
 Frequencies --   1413.8489              1422.0787              1435.8726
 Red. masses --      1.5674                 1.5357                 1.2567
 Frc consts  --      1.8460                 1.8298                 1.5265
 IR Inten    --     22.4536                 9.2270                20.7987

                     79                     80                     81
                      A                      A                      A
 Frequencies --   1442.8977              1454.6374              1473.9163
 Red. masses --      1.2514                 1.4673                 1.0866
 Frc consts  --      1.5350                 1.8293                 1.3908
 IR Inten    --      0.4960                21.5010                12.4764

                     82                     83                     84
                      A                      A                      A
 Frequencies --   1483.0159              1510.0740              1513.9188
 Red. masses --      2.3011                 1.0837                 1.0823
 Frc consts  --      2.9817                 1.4560                 1.4616
 IR Inten    --     21.2772                11.8475                 5.5336

                     85                     86                     87
                      A                      A                      A
 Frequencies --   1517.2137              1521.2906              1524.9942
 Red. masses --      1.0548                 1.0512                 1.3567
 Frc consts  --      1.4305                 1.4333                 1.8589
 IR Inten    --      5.5430                 8.9424                 7.2106

                     88                     89                     90
                      A                      A                      A
 Frequencies --   1527.6737              1534.4708              1545.3762
 Red. masses --      1.0892                 1.1183                 1.8443
 Frc consts  --      1.4976                 1.5515                 2.5951
 IR Inten    --      3.7286                 4.6030                63.4612

                     91                     92                     93
                      A                      A                      A
 Frequencies --   1637.4563              1662.5970              1829.2254
 Red. masses --      5.2994                 5.6789                10.1523
 Frc consts  --      8.3718                 9.2489                20.0147
 IR Inten    --     30.1195                89.1768               196.1022

                     94                     95                     96
                      A                      A                      A
 Frequencies --   2987.0125              3035.8860              3043.8104
 Red. masses --      1.0837                 1.0707                 1.0396
 Frc consts  --      5.6966                 5.8144                 5.6749
 IR Inten    --     54.4192                34.1765                31.2829

                     97                     98                     99
                      A                      A                      A
 Frequencies --   3051.7597              3064.1373              3084.7412
 Red. masses --      1.0360                 1.0605                 1.0631
 Frc consts  --      5.6845                 5.8665                 5.9601
 IR Inten    --     27.2111                31.7557                 0.2940

                    100                    101                    102
                      A                      A                      A
 Frequencies --   3086.1647              3098.2509              3100.1760
 Red. masses --      1.0655                 1.1043                 1.0971
 Frc consts  --      5.9792                 6.2457                 6.2124
 IR Inten    --     18.0330                 9.5558                19.0206

                    103                    104                    105
                      A                      A                      A
 Frequencies --   3119.7687              3127.8913              3130.4901
 Red. masses --      1.1018                 1.1023                 1.1039
 Frc consts  --      6.3184                 6.3543                 6.3740
 IR Inten    --     39.9610                15.7983                41.6077

                    106                    107                    108
                      A                      A                      A
 Frequencies --   3138.7828              3156.9501              3159.3798
 Red. masses --      1.1017                 1.0928                 1.0964
 Frc consts  --      6.3951                 6.4169                 6.4477
 IR Inten    --      0.6235                10.8150                 4.4861

                    109                    110                    111
                      A                      A                      A
 Frequencies --   3184.4704              3187.9332              3205.2428
 Red. masses --      1.0877                 1.0897                 1.0922
 Frc consts  --      6.4986                 6.5249                 6.6111
 IR Inten    --      8.2513                12.4671                16.4548

                    112                    113                    114
                      A                      A                      A
 Frequencies --   3229.3253              3618.4816              3653.6067
 Red. masses --      1.0928                 1.0643                 1.0660
 Frc consts  --      6.7146                 8.2106                 8.3844
 IR Inten    --      5.1796               149.1415                71.7926

 - Thermochemistry -
 -------------------
 Temperature   298.150 Kelvin.  Pressure   1.00000 Atm.
 Atom     1 has atomic number  6 and mass  12.00000

 Molecular mass:   283.12422 amu.
 Principal axes and moments of inertia in atomic units:
                           1         2         3
     Eigenvalues --  4187.937356433.784028290.28555
           X            0.99984  -0.00994  -0.01514
           Y            0.01013   0.99987   0.01250
           Z            0.01501  -0.01265   0.99981
 This molecule is an asymmetric top.
 Rotational symmetry number  1.
 Warning -- assumption of classical behavior for rotation
           may cause significant error
 Rotational temperatures (Kelvin)      0.02068     0.01346     0.01045
 Rotational constants (GHZ):           0.43094     0.28051     0.21769
 Zero-point vibrational energy     886409.7 (Joules/Mol)
                                  211.85699 (Kcal/Mol)
 Warning -- explicit consideration of  33 degrees of freedom as
           vibrations may cause significant error
 Vibrational temperatures:     31.66    38.24    61.90    70.26    79.49
          (Kelvin)            101.11   127.83   147.05   160.94   178.73
                              225.56   235.84   298.85   318.24   346.06
                              346.78   361.49   385.65   414.03   471.31
                              515.09   544.45   586.85   609.06   642.54
                              687.62   699.01   759.18   765.57   811.07
                              847.19   869.35   889.14  1013.37  1027.03
                             1042.60  1055.99  1108.26  1145.02  1165.52
                             1214.51  1239.91  1255.83  1271.70  1275.99
                             1299.08  1338.86  1363.04  1384.15  1452.29
                             1465.98  1477.52  1504.10  1545.99  1554.85
                             1590.52  1624.91  1627.91  1651.09  1709.80
                             1730.66  1738.70  1757.34  1781.44  1783.20
                             1824.73  1865.12  1886.70  1906.90  1921.53
                             1933.49  1946.77  1963.73  2011.64  2013.76
                             2034.21  2046.05  2065.90  2076.01  2092.90
                             2120.64  2133.73  2172.66  2178.19  2182.93
                             2188.80  2194.13  2197.98  2207.76  2223.45
                             2355.93  2392.11  2631.85  4297.64  4367.96
                             4379.36  4390.80  4408.61  4438.25  4440.30
                             4457.69  4460.46  4488.65  4500.34  4504.08
                             4516.01  4542.15  4545.64  4581.74  4586.72
                             4611.63  4646.28  5206.19  5256.73

 Zero-point correction=                           0.337616 (Hartree/Particle)
 Thermal correction to Energy=                    0.358302
 Thermal correction to Enthalpy=                  0.359246
 Thermal correction to Gibbs Free Energy=         0.286238
 Sum of electronic and zero-point Energies=          -1224.488713
 Sum of electronic and thermal Energies=             -1224.468027
 Sum of electronic and thermal Enthalpies=           -1224.467083
 Sum of electronic and thermal Free Energies=        -1224.540091

                     E (Thermal)             CV                S
                      KCal/Mol        Cal/Mol-Kelvin    Cal/Mol-Kelvin
 Total                  224.838             76.333            153.657
 Electronic               0.000              0.000              0.000
 Translational            0.889              2.981             42.820
 Rotational               0.889              2.981             33.768
 Vibrational            223.060             70.372             77.069
 Vibration     1          0.593              1.985              6.444
 Vibration     2          0.593              1.984              6.069
 Vibration     3          0.595              1.980              5.115
 Vibration     4          0.595              1.978              4.864
 Vibration     5          0.596              1.975              4.620
 Vibration     6          0.598              1.968              4.146
 Vibration     7          0.602              1.957              3.685
 Vibration     8          0.604              1.947              3.412
 Vibration     9          0.607              1.940              3.236
 Vibration    10          0.610              1.929              3.034
 Vibration    11          0.620              1.895              2.588
 Vibration    12          0.623              1.887              2.504
 Vibration    13          0.641              1.829              2.064
 Vibration    14          0.648              1.809              1.949
 Vibration    15          0.658              1.778              1.799
 Vibration    16          0.658              1.778              1.795
 Vibration    17          0.663              1.761              1.722
 Vibration    18          0.673              1.732              1.609
 Vibration    19          0.685              1.696              1.487
 Vibration    20          0.711              1.620              1.272
 Vibration    21          0.733              1.559              1.131
 Vibration    22          0.749              1.516              1.045
 Vibration    23          0.772              1.453              0.934
 Vibration    24          0.785              1.420              0.881
 Vibration    25          0.806              1.368              0.806
 Vibration    26          0.834              1.299              0.716
 Vibration    27          0.842              1.281              0.695
 Vibration    28          0.883              1.189              0.592
 Vibration    29          0.887              1.179              0.583
 Vibration    30          0.920              1.110              0.516
 Vibration    31          0.946              1.056              0.469
 Vibration    32          0.963              1.023              0.442
 Vibration    33          0.978              0.994              0.420

 Optimization completed.
    -- Stationary point found.
 Normal termination of Gaussian 16 at Sat Dec 12 10:23:25 2020.

 ----------------------------------------------------------------------
 # B3LYP/6-311++G(d,p) empiricaldispersion=gd3bj scf=xqc pop=npa geom=c
 heck
 ----------------------------------------------------------------------

 --------------------------------------
 CID_22766794_JID_9201_Energie_neutraal
 --------------------------------------
 Structure from the checkpoint file:  "JID_9201.chk"
 Charge =  0 Multiplicity = 1

 SCF Done:  E(RB3LYP) =  -1225.09977863     A.U. after   15 cycles
 Normal termination of Gaussian 16 at Sat Dec 12 10:31:55 2020.

 ----------------------------------------------------------------------
 # B3LYP/6-311++G(d,p) empiricaldispersion=gd3bj scf=xqc pop=npa geom=c
 heck
 ----------------------------------------------------------------------

 ------------------------------------
 CID_22766794_JID_9201_Energie_kation
 ------------------------------------
 Structure from the checkpoint file:  "JID_9201.chk"
 Charge =  1 Multiplicity = 2

 SCF Done:  E(UB3LYP) =  -1224.83036969     A.U. after   24 cycles
 Normal termination of Gaussian 16 at Sat Dec 12 10:50:10 2020.
 Gaussian 16:  ES64L-G16RevA.03 25-Dec-2016

 ----------------------------------------------------------------------
 # B3LYP/6-311++G(d,p) empiricaldispersion=gd3bj scf=xqc pop=npa geom=c
 heck
 ----------------------------------------------------------------------

 -----------------------------------
 CID_22766794_JID_9201_Energie_anion
 -----------------------------------
 Structure from the checkpoint file:  "JID_9201.chk"
 Charge = -1 Multiplicity = 2

                         Standard orientation:
 ---------------------------------------------------------------------
 Center     Atomic      Atomic             Coordinates (Angstroms)
 Number     Number       Type             X           Y           Z
 ---------------------------------------------------------------------
      1          6           0        1.598852    3.603824    0.964966
      2          6           0        0.939210    2.951967   -0.255084
      3          7           0        0.426997    1.605176    0.004653
      4          6           0       -0.876580    1.525181    0.648150
      5          6           0       -2.004402    1.582795   -0.399260
      6          6           0       -1.909349    0.420106   -1.420956
      7         16           0       -3.058266   -0.987030   -1.172076
      8          6           0       -2.648824   -1.587431    0.503201
      9          6           0       -1.223363   -2.012141    0.819160
     10          8           0       -0.857027   -2.198764    1.959496
     11          8           0       -0.424465   -2.139526   -0.253219
     12          8           0       -3.236982    1.643542    0.302597
     13          6           0        1.374198    0.575226    0.196426
     14          6           0        1.466805   -0.157800    1.387133
     15          6           0        2.338774   -1.244937    1.475001
     16          6           0        3.159835   -1.587784    0.402034
     17          6           0        3.123527   -0.831831   -0.781174
     18          6           0        2.226485    0.231854   -0.868887
     19          6           0        4.029988   -1.173525   -1.938847
     20          1           0        0.892834    3.689142    1.798414
     21          1           0        1.958617    4.610216    0.721826
     22          1           0        2.451338    3.005468    1.303213
     23          1           0        0.103881    3.566513   -0.608252
     24          1           0        1.656870    2.902976   -1.080650
     25          1           0       -0.959455    0.593169    1.207414
     26          1           0       -1.037381    2.337528    1.370272
     27          1           0       -1.874409    2.513326   -0.974450
     28          1           0       -2.186296    0.769330   -2.420861
     29          1           0       -0.883706    0.052421   -1.474998
     30          1           0       -2.929601   -0.839176    1.248095
     31          1           0       -3.295443   -2.457167    0.663452
     32          1           0        0.481394   -2.294173    0.086662
     33          1           0       -3.867139    1.066072   -0.164550
     34          1           0        0.836202    0.088665    2.233028
     35          1           0        2.369216   -1.825490    2.392255
     36          1           0        3.835936   -2.435257    0.480042
     37          1           0        2.143949    0.784453   -1.800835
     38          1           0        4.123591   -2.257414   -2.067265
     39          1           0        3.658320   -0.750848   -2.877453
     40          1           0        5.041396   -0.778547   -1.776893
 ---------------------------------------------------------------------

 SCF Done:  E(UB3LYP) =  -1225.08850406     A.U. after   33 cycles
 SCF Done:  E(UB3LYP) =  -1225.08850406     a.u. after    1 cycles

 The electronic state is 2-A.
 Alpha  occ. eigenvalues --  -88.76584 -19.08735 -19.03609 -19.03231 -14.22644
 Alpha  occ. eigenvalues --  -10.22735 -10.13906 -10.13139 -10.12075 -10.11132
 Alpha  occ. eigenvalues --  -10.11009 -10.10962 -10.09604 -10.08800 -10.08039
 Alpha  occ. eigenvalues --  -10.07952 -10.07792 -10.07659 -10.07034  -7.85178
 Alpha  occ. eigenvalues --   -5.81583  -5.81186  -5.80548  -1.02944  -0.94166
 Alpha  occ. eigenvalues --   -0.94024  -0.85305  -0.76515  -0.73234  -0.68641
 Alpha  occ. eigenvalues --   -0.68545  -0.66688  -0.65165  -0.61286  -0.59864
 Alpha  occ. eigenvalues --   -0.56714  -0.54557  -0.52979  -0.50589  -0.50416
 Alpha  occ. eigenvalues --   -0.46862  -0.43740  -0.42161  -0.41059  -0.40784
 Alpha  occ. eigenvalues --   -0.39903  -0.39091  -0.38643  -0.38267  -0.37089
 Alpha  occ. eigenvalues --   -0.36059  -0.35259  -0.33862  -0.33185  -0.33092
 Alpha  occ. eigenvalues --   -0.32167  -0.31906  -0.31519  -0.30403  -0.29727
 Alpha  occ. eigenvalues --   -0.29641  -0.28738  -0.27517  -0.27024  -0.26572
 Alpha  occ. eigenvalues --   -0.25818  -0.25527  -0.25306  -0.24330  -0.24010
 Alpha  occ. eigenvalues --   -0.20233  -0.19309  -0.18338  -0.16003  -0.15354
 Alpha  occ. eigenvalues --   -0.11408   0.03981
 Alpha virt. eigenvalues --    0.05823   0.06017   0.06660   0.06932   0.07303
 Alpha virt. eigenvalues --    0.07497   0.07733   0.08428   0.08765   0.09181
 Alpha virt. eigenvalues --    0.09433   0.10121   0.10605   0.10742   0.11044

  Beta  occ. eigenvalues --  -88.76580 -19.08719 -19.03602 -19.03220 -14.22644
  Beta  occ. eigenvalues --  -10.22703 -10.13895 -10.13127 -10.12061 -10.11117
  Beta  occ. eigenvalues --  -10.10999 -10.10940 -10.09601 -10.08796 -10.08022
  Beta  occ. eigenvalues --  -10.07951 -10.07781 -10.07625 -10.07013  -7.85172
  Beta  occ. eigenvalues --   -5.81579  -5.81183  -5.80543  -1.02906  -0.94147
  Beta  occ. eigenvalues --   -0.93997  -0.85289  -0.76497  -0.73203  -0.68609
  Beta  occ. eigenvalues --   -0.68514  -0.66659  -0.65127  -0.61254  -0.59819
  Beta  occ. eigenvalues --   -0.56669  -0.54510  -0.52938  -0.50558  -0.50382
  Beta  occ. eigenvalues --   -0.46817  -0.43707  -0.42130  -0.41002  -0.40749
  Beta  occ. eigenvalues --   -0.39859  -0.39052  -0.38614  -0.38236  -0.37043
  Beta  occ. eigenvalues --   -0.36031  -0.35230  -0.33829  -0.33161  -0.33055
  Beta  occ. eigenvalues --   -0.32135  -0.31879  -0.31482  -0.30376  -0.29691
  Beta  occ. eigenvalues --   -0.29603  -0.28702  -0.27488  -0.26993  -0.26540
  Beta  occ. eigenvalues --   -0.25792  -0.25501  -0.25280  -0.24276  -0.23990
  Beta  occ. eigenvalues --   -0.20214  -0.19288  -0.18299  -0.15980  -0.15336
  Beta  occ. eigenvalues --   -0.11389
  Beta virt. eigenvalues --    0.05944   0.06430   0.06800   0.06943   0.07208
  Beta virt. eigenvalues --    0.07429   0.07675   0.08142   0.08780   0.09169
  Beta virt. eigenvalues --    0.09383   0.09676   0.10481   0.10818   0.10950

 Mulliken charges and spin densities:
               1          2
     1  C    0.479075  -1.015494
     2  C   -0.036379   0.082424
     3  N    0.587145  -0.034353
     4  C   -0.355239   0.016168
     5  C    0.495945  -1.047627
     6  C   -0.397409   0.328017
     7  S    0.251568  -0.336177
     8  C   -0.152430  -0.233969
     9  C   -0.132762  -0.148612
    10  O   -0.178928   0.026792
    11  O    0.038913  -0.013009
    12  O   -0.223007   0.008262
    13  C   -0.849159   0.251422
    14  C   -0.102884  -0.026281
    15  C   -0.374905   0.116903
    16  C   -0.682933   0.219246
    17  C    0.075933   0.433129
    18  C   -0.345525  -0.164805
    19  C    1.873028  -2.433709
    20  H    0.050809   0.084108
    21  H   -0.267418   0.419203
    22  H    0.050166   0.096191
    23  H   -0.233547   0.370138
    24  H   -0.355095   0.498607
    25  H    0.211868  -0.075984
    26  H    0.090678   0.086261
    27  H    0.069738   0.131117
    28  H   -0.397171   0.664529
    29  H    0.312499  -0.124744
    30  H    0.257886   0.008472
    31  H   -0.159372   0.418437
    32  H    0.243764   0.100361
    33  H    0.138489   0.129040
    34  H    0.113973   0.064366
    35  H    0.024111   0.156053
    36  H   -0.354483   0.525128
    37  H   -0.239329   0.416168
    38  H   -0.221705   0.365219
    39  H   -0.321080   0.479904
    40  H    0.015169   0.159101
 Sum of Mulliken charges =  -1.00000   1.00000

 Dipole moment (field-independent basis, Debye):
    X=             -2.6234    Y=             -1.6632    Z=              3.2861  Tot=              4.5218
 Quadrupole moment (field-independent basis, Debye-Ang):
   XX=           -192.6891   YY=           -186.9007   ZZ=           -167.6480
   XY=              1.3618   XZ=              6.7484   YZ=              3.9639

 Summary of Natural Population Analysis:

                                       Natural Population
                Natural  -----------------------------------------------
    Atom  No    Charge         Core      Valence    Rydberg      Total
 -----------------------------------------------------------------------
      C    1   -0.29518      0.99966     2.29051    0.00501     3.29518
      C    2   -0.07758      0.99961     2.06724    0.01073     3.07758
      N    3   -0.28256      0.99967     2.76686    0.01603     3.78256
      C    4   -0.08817      0.99957     2.07687    0.01173     3.08817
      C    5    0.05568      0.99955     1.92999    0.01478     2.94432
      C    6   -0.26732      0.99957     2.25685    0.01090     3.26732
      S    7    0.09602      4.99963     2.88628    0.01807     7.90398
      C    8   -0.31012      0.99953     2.29969    0.01090     3.31012
      C    9    0.40123      0.99970     1.57356    0.02551     2.59877
      O   10   -0.30451      0.99987     3.29867    0.00598     4.30451
      O   11   -0.33965      0.99987     3.33296    0.00682     4.33965
      O   12   -0.37938      0.99989     3.37288    0.00661     4.37938
      C   13    0.09671      0.99946     1.89082    0.01301     2.90329
      C   14   -0.12946      0.99951     2.12089    0.00907     3.12946
      C   15   -0.10243      0.99957     2.09204    0.01083     3.10243
      C   16   -0.12213      0.99951     2.11244    0.01018     3.12213
      C   17   -0.01082      0.99951     2.00078    0.01052     3.01082
      C   18   -0.11036      0.99946     2.10129    0.00962     3.11036
      C   19   -0.29062      0.99963     2.28584    0.00514     3.29062
      H   20    0.09549      0.00000     0.40368    0.00084     0.40451
      H   21    0.10086      0.00000     0.39805    0.00109     0.39914
      H   22    0.10110      0.00000     0.39797    0.00093     0.39890
      H   23    0.09462      0.00000     0.40369    0.00169     0.40538
      H   24    0.09831      0.00000     0.39990    0.00179     0.40169
      H   25    0.09928      0.00000     0.39853    0.00219     0.40072
      H   26    0.09559      0.00000     0.40322    0.00119     0.40441
      H   27    0.08319      0.00000     0.41470    0.00211     0.41681
      H   28    0.11131      0.00000     0.38714    0.00155     0.38869
      H   29    0.11962      0.00000     0.37801    0.00236     0.38038
      H   30    0.12118      0.00000     0.37731    0.00151     0.37882
      H   31    0.12385      0.00000     0.37477    0.00138     0.37615
      H   32    0.25169      0.00000     0.24475    0.00356     0.24831
      H   33    0.23367      0.00000     0.26256    0.00378     0.26633
      H   34    0.10708      0.00000     0.39160    0.00133     0.39292
      H   35    0.10425      0.00000     0.39496    0.00079     0.39575
      H   36    0.10184      0.00000     0.39718    0.00098     0.39816
      H   37    0.10416      0.00000     0.39370    0.00214     0.39584
      H   38    0.10390      0.00000     0.39463    0.00147     0.39610
      H   39    0.10469      0.00000     0.39391    0.00139     0.39531
      H   40    0.10498      0.00000     0.39385    0.00116     0.39502
 =======================================================================
   * Total *    0.00000     22.99274    52.76058    0.24668    76.00000

 Normal termination of Gaussian 16 at Sat Dec 12 11:15:24 2020.
