 Gaussian 16, Revision A.03,

 -----------------------------------------------------------
 # opt freq B3LYP/6-31G(d) empiricaldispersion=gd3bj scf=xqc
 -----------------------------------------------------------

 -------------------------------
 CID_129799822_JID_8802_neutraal
 -------------------------------
 Symbolic Z-matrix:
 Charge =  0 Multiplicity = 1

 SCF Done:  E(RB3LYP) =  -879.984216702     A.U. after   15 cycles
 SCF Done:  E(RB3LYP) =  -879.993741471     A.U. after   12 cycles
 SCF Done:  E(RB3LYP) =  -879.995115411     A.U. after   12 cycles
 SCF Done:  E(RB3LYP) =  -879.995306078     A.U. after   11 cycles
 SCF Done:  E(RB3LYP) =  -879.995273020     A.U. after   12 cycles
 SCF Done:  E(RB3LYP) =  -879.995400651     A.U. after   11 cycles
 SCF Done:  E(RB3LYP) =  -879.995416348     A.U. after    9 cycles
 SCF Done:  E(RB3LYP) =  -879.995418013     A.U. after    8 cycles
 SCF Done:  E(RB3LYP) =  -879.995418781     A.U. after    7 cycles
 SCF Done:  E(RB3LYP) =  -879.995419784     A.U. after    8 cycles
 SCF Done:  E(RB3LYP) =  -879.995428084     A.U. after    8 cycles
 SCF Done:  E(RB3LYP) =  -879.995431638     A.U. after    9 cycles
 SCF Done:  E(RB3LYP) =  -879.995432467     A.U. after    9 cycles
 SCF Done:  E(RB3LYP) =  -879.995432799     A.U. after    9 cycles
 SCF Done:  E(RB3LYP) =  -879.995432844     A.U. after    7 cycles
 Optimization completed.
    -- Stationary point found.
 Normal termination of Gaussian 16 at Fri Dec 11 22:19:31 2020.

 --------------------------------------------------------------------
 #N Geom=AllCheck Guess=TCheck SCRF=Check GenChk RB3LYP/6-31G(d) Freq
 --------------------------------------------------------------------

 Structure from the checkpoint file:  "JID_8802.chk"
 -------------------------------
 CID_129799822_JID_8802_neutraal
 -------------------------------
 Charge =  0 Multiplicity = 1

 SCF Done:  E(RB3LYP) =  -879.995432844     A.U. after    1 cycles

  Exact polarizability: 213.789  -1.990 142.610   8.649   4.172  89.400
 Approx polarizability: 280.234 -10.025 256.105  18.299   7.388 141.026

                      1                      2                      3
                      A                      A                      A
 Frequencies --     26.9042                50.6317                65.1174
 Red. masses --      3.2538                 2.5758                 3.1046
 Frc consts  --      0.0014                 0.0039                 0.0078
 IR Inten    --      0.4094                 2.2422                 4.0990

                      4                      5                      6
                      A                      A                      A
 Frequencies --     86.0543                99.6008               113.6023
 Red. masses --      3.5485                 6.3278                 8.6385
 Frc consts  --      0.0155                 0.0370                 0.0657
 IR Inten    --      0.1547                 1.9416                 2.2249

                      7                      8                      9
                      A                      A                      A
 Frequencies --    158.8924               179.0483               226.6092
 Red. masses --      2.6831                 4.7278                 2.4801
 Frc consts  --      0.0399                 0.0893                 0.0750
 IR Inten    --      0.4418                 0.8152                 5.6287

                     10                     11                     12
                      A                      A                      A
 Frequencies --    261.1022               261.7244               285.9602
 Red. masses --      5.9331                 3.3810                 1.9363
 Frc consts  --      0.2383                 0.1365                 0.0933
 IR Inten    --      0.4750                 0.2862                 0.8649

                     13                     14                     15
                      A                      A                      A
 Frequencies --    304.4824               348.6119               359.9189
 Red. masses --      2.5523                 6.0818                 7.0345
 Frc consts  --      0.1394                 0.4355                 0.5369
 IR Inten    --      1.3355                 4.3960                 1.6902

                     16                     17                     18
                      A                      A                      A
 Frequencies --    394.6047               406.2168               420.8461
 Red. masses --      1.7332                 2.7863                 1.9090
 Frc consts  --      0.1590                 0.2709                 0.1992
 IR Inten    --     15.3991                 1.9317                18.4700

                     19                     20                     21
                      A                      A                      A
 Frequencies --    429.9186               448.5605               527.2228
 Red. masses --      3.1838                 2.5334                 5.8683
 Frc consts  --      0.3467                 0.3003                 0.9611
 IR Inten    --      4.8422                22.6689                 9.7931

                     22                     23                     24
                      A                      A                      A
 Frequencies --    550.8797               569.4041               600.7025
 Red. masses --      6.7101                 4.9191                 4.7376
 Frc consts  --      1.1998                 0.9397                 1.0072
 IR Inten    --      5.8949                 8.1904                24.8292

                     25                     26                     27
                      A                      A                      A
 Frequencies --    609.3581               675.6318               704.1177
 Red. masses --      4.7042                 4.3256                 6.7053
 Frc consts  --      1.0291                 1.1634                 1.9587
 IR Inten    --      6.8003                 1.2805                 0.8356

                     28                     29                     30
                      A                      A                      A
 Frequencies --    737.6075               743.2858               771.4793
 Red. masses --      4.6904                 6.6886                 5.6468
 Frc consts  --      1.5035                 2.1772                 1.9801
 IR Inten    --      4.5906                 5.3581                22.7447

                     31                     32                     33
                      A                      A                      A
 Frequencies --    781.5285               811.5844               844.5450
 Red. masses --      3.1642                 2.1807                 4.9501
 Frc consts  --      1.1387                 0.8463                 2.0802
 IR Inten    --      2.6676                 9.4719                30.1613

                     34                     35                     36
                      A                      A                      A
 Frequencies --    863.9815               874.3753               883.6530
 Red. masses --      1.4782                 2.1983                 2.8061
 Frc consts  --      0.6501                 0.9902                 1.2910
 IR Inten    --     18.6824                10.5616                 7.9150

                     37                     38                     39
                      A                      A                      A
 Frequencies --    908.8354               916.6028               938.4060
 Red. masses --      1.3921                 1.8913                 2.9015
 Frc consts  --      0.6775                 0.9362                 1.5054
 IR Inten    --     11.9445                 8.7373                28.2480

                     40                     41                     42
                      A                      A                      A
 Frequencies --    973.4863              1018.6979              1044.5747
 Red. masses --      8.2878                 2.0530                 4.6377
 Frc consts  --      4.6275                 1.2553                 2.9815
 IR Inten    --     71.3177                34.5262                51.1704

                     43                     44                     45
                      A                      A                      A
 Frequencies --   1048.9974              1074.6505              1086.5368
 Red. masses --      2.1895                 4.5270                 1.6473
 Frc consts  --      1.4195                 3.0803                 1.1458
 IR Inten    --     49.4954               149.7209                13.1990

                     46                     47                     48
                      A                      A                      A
 Frequencies --   1116.2662              1130.2186              1150.1992
 Red. masses --      2.4381                 2.1427                 1.4897
 Frc consts  --      1.7900                 1.6126                 1.1612
 IR Inten    --     43.9445                78.0959                 9.1927

                     49                     50                     51
                      A                      A                      A
 Frequencies --   1162.6566              1198.2347              1207.1181
 Red. masses --      2.1856                 1.8906                 1.3549
 Frc consts  --      1.7407                 1.5993                 1.1632
 IR Inten    --     39.1540                10.5040                39.1855

                     52                     53                     54
                      A                      A                      A
 Frequencies --   1212.1833              1231.8181              1255.7324
 Red. masses --      1.5877                 2.2720                 1.5116
 Frc consts  --      1.3745                 2.0312                 1.4044
 IR Inten    --     22.2831                49.8731                22.9276

                     55                     56                     57
                      A                      A                      A
 Frequencies --   1260.7795              1305.7967              1317.8869
 Red. masses --      2.1989                 2.6195                 1.4008
 Frc consts  --      2.0594                 2.6316                 1.4334
 IR Inten    --    130.5052               158.3244                51.1448

                     58                     59                     60
                      A                      A                      A
 Frequencies --   1325.4524              1352.8661              1392.9493
 Red. masses --      1.5903                 1.7736                 1.4697
 Frc consts  --      1.6462                 1.9126                 1.6801
 IR Inten    --    138.7552               306.1645                16.3688

                     61                     62                     63
                      A                      A                      A
 Frequencies --   1408.5990              1432.2262              1442.7551
 Red. masses --      1.4161                 4.7287                 1.5501
 Frc consts  --      1.6555                 5.7150                 1.9011
 IR Inten    --      3.0194                49.3769                11.9688

                     64                     65                     66
                      A                      A                      A
 Frequencies --   1445.7812              1458.5482              1491.4831
 Red. masses --      1.4582                 1.6722                 3.4611
 Frc consts  --      1.7958                 2.0960                 4.5363
 IR Inten    --     29.8620                51.8458                44.6193

                     67                     68                     69
                      A                      A                      A
 Frequencies --   1497.2967              1504.5466              1519.0847
 Red. masses --      1.2073                 1.1076                 1.0711
 Frc consts  --      1.5947                 1.4772                 1.4563
 IR Inten    --      2.3867                 4.0726                 3.2115

                     70                     71                     72
                      A                      A                      A
 Frequencies --   1529.4715              1535.1566              1536.7480
 Red. masses --      1.0462                 3.6371                 1.0655
 Frc consts  --      1.4420                 5.0502                 1.4825
 IR Inten    --      6.0570               314.1706                 9.0150

                     73                     74                     75
                      A                      A                      A
 Frequencies --   1575.7911              1665.9744              1670.4180
 Red. masses --      1.1567                 8.9046                 7.6004
 Frc consts  --      1.6922                14.5613                12.4951
 IR Inten    --      0.5847                 3.7232                39.8537

                     76                     77                     78
                      A                      A                      A
 Frequencies --   1820.1315              3040.3003              3048.2247
 Red. masses --     12.9302                 1.0669                 1.0640
 Frc consts  --     25.2383                 5.8102                 5.8247
 IR Inten    --    322.5458                30.9421                 8.0197

                     79                     80                     81
                      A                      A                      A
 Frequencies --   3051.8890              3052.6442              3056.5296
 Red. masses --      1.0439                 1.0603                 1.0599
 Frc consts  --      5.7288                 5.8212                 5.8344
 IR Inten    --     38.1859               132.3621                34.8453

                     82                     83                     84
                      A                      A                      A
 Frequencies --   3088.0578              3099.9450              3109.8475
 Red. masses --      1.0995                 1.0999                 1.0984
 Frc consts  --      6.1775                 6.2275                 6.2587
 IR Inten    --      7.5142                12.0663                12.4223

                     85                     86                     87
                      A                      A                      A
 Frequencies --   3114.1262              3120.5854              3157.5295
 Red. masses --      1.0996                 1.1124                 1.0983
 Frc consts  --      6.2826                 6.3823                 6.4519
 IR Inten    --     64.9435                45.5997                24.4956

                     88                     89                     90
                      A                      A                      A
 Frequencies --   3222.8455              3252.0807              3706.7509
 Red. masses --      1.0920                 1.0923                 1.0652
 Frc consts  --      6.6829                 6.8063                 8.6231
 IR Inten    --      2.9235                 3.1248                25.3245

 - Thermochemistry -
 -------------------
 Temperature   298.150 Kelvin.  Pressure   1.00000 Atm.
 Atom     1 has atomic number  6 and mass  12.00000

 Molecular mass:   250.08412 amu.
 Principal axes and moments of inertia in atomic units:
                           1         2         3
     Eigenvalues --  1548.666787999.798579038.51867
           X            0.99999   0.00380  -0.00072
           Y           -0.00378   0.99980   0.01983
           Z            0.00079  -0.01983   0.99980
 This molecule is an asymmetric top.
 Rotational symmetry number  1.
 Warning -- assumption of classical behavior for rotation
           may cause significant error
 Rotational temperatures (Kelvin)      0.05593     0.01083     0.00958
 Rotational constants (GHZ):           1.16535     0.22560     0.19967
 Zero-point vibrational energy     674479.0 (Joules/Mol)
                                  161.20434 (Kcal/Mol)
 Warning -- explicit consideration of  25 degrees of freedom as
           vibrations may cause significant error
 Vibrational temperatures:     38.71    72.85    93.69   123.81   143.30
          (Kelvin)            163.45   228.61   257.61   326.04   375.67
                              376.56   411.43   438.08   501.57   517.84
                              567.75   584.46   605.50   618.56   645.38
                              758.56   792.59   819.25   864.28   876.73
                              972.08  1013.07  1061.25  1069.42  1109.99
                             1124.45  1167.69  1215.11  1243.08  1258.03
                             1271.38  1307.61  1318.79  1350.16  1400.63
                             1465.68  1502.91  1509.27  1546.18  1563.28
                             1606.06  1626.13  1654.88  1672.80  1723.99
                             1736.77  1744.06  1772.31  1806.72  1813.98
                             1878.75  1896.15  1907.03  1946.47  2004.14
                             2026.66  2060.65  2075.80  2080.16  2098.53
                             2145.91  2154.28  2164.71  2185.62  2200.57
                             2208.75  2211.04  2267.21  2396.97  2403.36
                             2618.76  4374.31  4385.72  4390.99  4392.07
                             4397.66  4443.03  4460.13  4474.38  4480.53
                             4489.83  4542.98  4636.96  4679.02  5333.19

 Zero-point correction=                           0.256895 (Hartree/Particle)
 Thermal correction to Energy=                    0.272603
 Thermal correction to Enthalpy=                  0.273547
 Thermal correction to Gibbs Free Energy=         0.213006
 Sum of electronic and zero-point Energies=           -879.738537
 Sum of electronic and thermal Energies=              -879.722830
 Sum of electronic and thermal Enthalpies=            -879.721886
 Sum of electronic and thermal Free Energies=         -879.782427

                     E (Thermal)             CV                S
                      KCal/Mol        Cal/Mol-Kelvin    Cal/Mol-Kelvin
 Total                  171.061             60.626            127.420
 Electronic               0.000              0.000              0.000
 Translational            0.889              2.981             42.450
 Rotational               0.889              2.981             33.082
 Vibrational            169.283             54.664             51.888
 Vibration     1          0.593              1.984              6.046
 Vibration     2          0.595              1.977              4.793
 Vibration     3          0.597              1.971              4.296
 Vibration     4          0.601              1.959              3.748
 Vibration     5          0.604              1.949              3.462
 Vibration     6          0.607              1.938              3.206
 Vibration     7          0.621              1.893              2.563
 Vibration     8          0.629              1.868              2.338
 Vibration     9          0.650              1.800              1.906
 Vibration    10          0.669              1.744              1.654
 Vibration    11          0.669              1.743              1.650
 Vibration    12          0.684              1.700              1.498
 Vibration    13          0.695              1.665              1.392
 Vibration    14          0.726              1.578              1.172
 Vibration    15          0.734              1.555              1.122
 Vibration    16          0.762              1.482              0.983
 Vibration    17          0.771              1.457              0.940
 Vibration    18          0.783              1.425              0.889
 Vibration    19          0.791              1.405              0.859
 Vibration    20          0.808              1.364              0.800
 Vibration    21          0.882              1.190              0.593
 Vibration    22          0.906              1.138              0.542
 Vibration    23          0.925              1.097              0.505
 Vibration    24          0.959              1.030              0.448
 Vibration    25          0.968              1.012              0.434

 Optimization completed.
    -- Stationary point found.
 Normal termination of Gaussian 16 at Fri Dec 11 22:31:25 2020.

 ----------------------------------------------------------------------
 # B3LYP/6-311++G(d,p) empiricaldispersion=gd3bj scf=xqc pop=npa geom=c
 heck
 ----------------------------------------------------------------------

 ---------------------------------------
 CID_129799822_JID_8802_Energie_neutraal
 ---------------------------------------
 Structure from the checkpoint file:  "JID_8802.chk"
 Charge =  0 Multiplicity = 1

 SCF Done:  E(RB3LYP) =  -880.245173239     A.U. after   15 cycles
 Normal termination of Gaussian 16 at Fri Dec 11 22:36:24 2020.

 ----------------------------------------------------------------------
 # B3LYP/6-311++G(d,p) empiricaldispersion=gd3bj scf=xqc pop=npa geom=c
 heck
 ----------------------------------------------------------------------

 -------------------------------------
 CID_129799822_JID_8802_Energie_kation
 -------------------------------------
 Structure from the checkpoint file:  "JID_8802.chk"
 Charge =  1 Multiplicity = 2

 SCF Done:  E(UB3LYP) =  -879.939476823     A.U. after   26 cycles
 Normal termination of Gaussian 16 at Fri Dec 11 22:47:27 2020.
 Gaussian 16:  ES64L-G16RevA.03 25-Dec-2016

 ----------------------------------------------------------------------
 # B3LYP/6-311++G(d,p) empiricaldispersion=gd3bj scf=xqc pop=npa geom=c
 heck
 ----------------------------------------------------------------------

 ------------------------------------
 CID_129799822_JID_8802_Energie_anion
 ------------------------------------
 Structure from the checkpoint file:  "JID_8802.chk"
 Charge = -1 Multiplicity = 2

                         Standard orientation:
 ---------------------------------------------------------------------
 Center     Atomic      Atomic             Coordinates (Angstroms)
 Number     Number       Type             X           Y           Z
 ---------------------------------------------------------------------
      1          6           0       -4.860546    0.813897    0.331712
      2          6           0       -4.545998   -0.682231    0.421089
      3          6           0       -3.365837   -1.159255   -0.438561
      4          6           0       -1.987483   -0.649176   -0.024918
      5          6           0       -0.849936   -1.382990   -0.742228
      6          6           0        0.471572   -0.731842   -0.422996
      7          6           0        1.662780   -1.475172   -0.338801
      8          6           0        2.822511   -0.777128   -0.067732
      9          6           0        2.831102    0.607937    0.125729
     10          6           0        1.681593    1.355920    0.054303
     11          6           0        0.485433    0.656958   -0.222874
     12          6           0       -0.768460    1.448152   -0.344415
     13          8           0       -0.787801    2.657778   -0.406519
     14          8           0       -1.938628    0.757497   -0.411296
     15          8           0        4.110009    1.023823    0.401596
     16          6           0        4.941837   -0.131480    0.264227
     17          8           0        4.086599   -1.272031    0.076375
     18          8           0       -1.878064   -0.769423    1.365811
     19          1           0       -4.043996    1.419358    0.730097
     20          1           0       -5.771300    1.045622    0.895847
     21          1           0       -5.020127    1.123800   -0.707934
     22          1           0       -4.353975   -0.959638    1.462977
     23          1           0       -5.426520   -1.256093    0.103178
     24          1           0       -3.320455   -2.254799   -0.399526
     25          1           0       -3.517061   -0.879040   -1.487529
     26          1           0       -0.855562   -2.432951   -0.434173
     27          1           0       -1.039087   -1.355798   -1.823350
     28          1           0        1.671987   -2.549987   -0.483276
     29          1           0        1.663492    2.429653    0.193640
     30          1           0        5.589725   -0.018930   -0.613799
     31          1           0        5.530919   -0.269696    1.175205
     32          1           0       -0.956372   -0.584206    1.613707
 ---------------------------------------------------------------------

 SCF Done:  E(UB3LYP) =  -880.249815280     A.U. after   33 cycles
 SCF Done:  E(UB3LYP) =  -880.249815280     a.u. after    1 cycles

 The electronic state is 2-A.
 Alpha  occ. eigenvalues --  -19.04969 -19.04541 -19.01718 -19.00575 -18.93092
 Alpha  occ. eigenvalues --  -10.18358 -10.16477 -10.12080 -10.09807 -10.08565
 Alpha  occ. eigenvalues --  -10.06386 -10.06272 -10.05944 -10.04830 -10.04700
 Alpha  occ. eigenvalues --  -10.04566 -10.02930 -10.02531  -1.01085  -0.96294
 Alpha  occ. eigenvalues --   -0.92030  -0.91203  -0.85176  -0.73255  -0.69173
 Alpha  occ. eigenvalues --   -0.66669  -0.63294  -0.61995  -0.58752  -0.55356
 Alpha  occ. eigenvalues --   -0.51905  -0.50393  -0.48263  -0.47223  -0.45201
 Alpha  occ. eigenvalues --   -0.42244  -0.41068  -0.40436  -0.37731  -0.37112
 Alpha  occ. eigenvalues --   -0.34445  -0.33347  -0.32979  -0.32434  -0.31553
 Alpha  occ. eigenvalues --   -0.31112  -0.29574  -0.28290  -0.28050  -0.27601
 Alpha  occ. eigenvalues --   -0.27150  -0.26690  -0.25931  -0.25466  -0.25049
 Alpha  occ. eigenvalues --   -0.23933  -0.23340  -0.22854  -0.21732  -0.21012
 Alpha  occ. eigenvalues --   -0.18830  -0.17056  -0.15799  -0.12170  -0.11457
 Alpha  occ. eigenvalues --   -0.08877   0.05069
 Alpha virt. eigenvalues --    0.07142   0.07194   0.08751   0.09666   0.09780
 Alpha virt. eigenvalues --    0.09915   0.10980   0.11347   0.11410   0.12007
 Alpha virt. eigenvalues --    0.12778   0.13151   0.13688   0.14415   0.14590

  Beta  occ. eigenvalues --  -19.04994 -19.04436 -19.01717 -19.00503 -18.92769
  Beta  occ. eigenvalues --  -10.18353 -10.16464 -10.11829 -10.09923 -10.08141
  Beta  occ. eigenvalues --  -10.06385 -10.06268 -10.05951 -10.04698 -10.04698
  Beta  occ. eigenvalues --  -10.04633 -10.02669 -10.02346  -1.00986  -0.96145
  Beta  occ. eigenvalues --   -0.91917  -0.90989  -0.84744  -0.72915  -0.69140
  Beta  occ. eigenvalues --   -0.66475  -0.62990  -0.61729  -0.58707  -0.55090
  Beta  occ. eigenvalues --   -0.51816  -0.49898  -0.48041  -0.47172  -0.45049
  Beta  occ. eigenvalues --   -0.42025  -0.40917  -0.40314  -0.37610  -0.36969
  Beta  occ. eigenvalues --   -0.34366  -0.33175  -0.32800  -0.32325  -0.31357
  Beta  occ. eigenvalues --   -0.30910  -0.29230  -0.28088  -0.27570  -0.27345
  Beta  occ. eigenvalues --   -0.26726  -0.26512  -0.25568  -0.25236  -0.24771
  Beta  occ. eigenvalues --   -0.23870  -0.23269  -0.22806  -0.21477  -0.20830
  Beta  occ. eigenvalues --   -0.18223  -0.16912  -0.14764  -0.11401  -0.10754
  Beta  occ. eigenvalues --   -0.07626
  Beta virt. eigenvalues --    0.07102   0.07212   0.08661   0.09668   0.09702
  Beta virt. eigenvalues --    0.09865   0.10747   0.11201   0.11364   0.11502
  Beta virt. eigenvalues --    0.11882   0.12932   0.13065   0.13603   0.14340

 Mulliken charges and spin densities:
               1          2
     1  C   -0.462412  -0.101222
     2  C   -0.266212   0.060251
     3  C    0.242635  -0.061971
     4  C   -1.194301  -0.070678
     5  C    0.159471  -0.284667
     6  C    0.516167   0.150305
     7  C   -0.771293   0.045051
     8  C    0.041653   0.163881
     9  C   -0.075330  -0.110508
    10  C   -0.548285   0.336682
    11  C    0.451760   0.118975
    12  C   -0.134788   0.202028
    13  O   -0.378721   0.114947
    14  O    0.000571   0.015191
    15  O   -0.173303   0.003116
    16  C    0.217917  -0.197343
    17  O   -0.185625   0.027725
    18  O   -0.150376   0.007902
    19  H    0.198504   0.012758
    20  H    0.077750   0.032141
    21  H    0.116237  -0.002392
    22  H    0.145407  -0.002293
    23  H    0.027950   0.112258
    24  H    0.082357   0.051891
    25  H    0.138861   0.050581
    26  H    0.152776   0.028258
    27  H    0.121154   0.053478
    28  H    0.079253   0.052992
    29  H    0.176448  -0.003303
    30  H    0.068202   0.082607
    31  H    0.062802   0.086772
    32  H    0.262773   0.024587
 Sum of Mulliken charges =  -1.00000   1.00000

 Dipole moment (field-independent basis, Debye):
    X=              0.8111    Y=             -4.7845    Z=              0.1382  Tot=              4.8547
 Quadrupole moment (field-independent basis, Debye-Ang):
   XX=           -147.3109   YY=           -135.4928   ZZ=           -115.7987
   XY=              5.0647   XZ=              1.6185   YZ=              3.5564

 Summary of Natural Population Analysis:

                                       Natural Population
                Natural  -----------------------------------------------
    Atom  No    Charge         Core      Valence    Rydberg      Total
 -----------------------------------------------------------------------
      C    1   -0.28724      0.99967     2.28265    0.00492     3.28724
      C    2   -0.18924      0.99964     2.18162    0.00798     3.18924
      C    3   -0.19578      0.99956     2.18699    0.00924     3.19578
      C    4    0.29026      0.99953     1.68620    0.02401     2.70974
      C    5   -0.21498      0.99954     2.20711    0.00833     3.21498
      C    6    0.01155      0.99951     1.98001    0.00893     2.98845
      C    7   -0.15538      0.99949     2.14720    0.00868     3.15538
      C    8    0.20408      0.99934     1.78444    0.01214     2.79592
      C    9    0.10054      0.99934     1.88767    0.01246     2.89946
      C   10   -0.04929      0.99950     2.04006    0.00973     3.04929
      C   11   -0.06699      0.99944     2.05770    0.00985     3.06699
      C   12    0.42927      0.99960     1.54586    0.02527     2.57073
      O   13   -0.28381      0.99987     3.27822    0.00573     4.28381
      O   14   -0.30041      0.99985     3.29078    0.00978     4.30041
      O   15   -0.28168      0.99987     3.27413    0.00768     4.28168
      C   16    0.15671      0.99964     1.82990    0.01375     2.84329
      O   17   -0.26900      0.99987     3.26185    0.00728     4.26900
      O   18   -0.37822      0.99987     3.37224    0.00611     4.37822
      H   19    0.11289      0.00000     0.38557    0.00154     0.38711
      H   20    0.08822      0.00000     0.41083    0.00095     0.41178
      H   21    0.09368      0.00000     0.40508    0.00123     0.40632
      H   22    0.10133      0.00000     0.39732    0.00135     0.39867
      H   23    0.08786      0.00000     0.41063    0.00151     0.41214
      H   24    0.09817      0.00000     0.40062    0.00121     0.40183
      H   25    0.10207      0.00000     0.39663    0.00130     0.39793
      H   26    0.10202      0.00000     0.39645    0.00154     0.39798
      H   27    0.10718      0.00000     0.39130    0.00152     0.39282
      H   28    0.09786      0.00000     0.40029    0.00185     0.40214
      H   29    0.11134      0.00000     0.38736    0.00130     0.38866
      H   30    0.06654      0.00000     0.43082    0.00264     0.43346
      H   31    0.07098      0.00000     0.42664    0.00238     0.42902
      H   32    0.23947      0.00000     0.25794    0.00259     0.26053
 =======================================================================
   * Total *   -0.00000     17.99313    47.79209    0.21478    66.00000

 Normal termination of Gaussian 16 at Fri Dec 11 23:01:55 2020.
