 Gaussian 16, Revision A.03,

 -----------------------------------------------------------
 # opt freq B3LYP/6-31G(d) empiricaldispersion=gd3bj scf=xqc
 -----------------------------------------------------------

 -----------------------------
 CID_87993598_JID_334_neutraal
 -----------------------------
 Symbolic Z-matrix:
 Charge =  0 Multiplicity = 1

 SCF Done:  E(RB3LYP) =  -475.919232728     A.U. after   14 cycles
 SCF Done:  E(RB3LYP) =  -475.921983198     A.U. after   12 cycles
 SCF Done:  E(RB3LYP) =  -475.922398974     A.U. after   12 cycles
 SCF Done:  E(RB3LYP) =  -475.922538607     A.U. after   12 cycles
 SCF Done:  E(RB3LYP) =  -475.922563119     A.U. after   10 cycles
 SCF Done:  E(RB3LYP) =  -475.922568991     A.U. after    8 cycles
 SCF Done:  E(RB3LYP) =  -475.922570408     A.U. after    8 cycles
 SCF Done:  E(RB3LYP) =  -475.922570993     A.U. after    8 cycles
 Optimization completed.
    -- Stationary point found.
 Normal termination of Gaussian 16 at Tue Dec  8 10:22:09 2020.

 --------------------------------------------------------------------
 #N Geom=AllCheck Guess=TCheck SCRF=Check GenChk RB3LYP/6-31G(d) Freq
 --------------------------------------------------------------------

 Structure from the checkpoint file:  "JID_334.chk"
 -----------------------------
 CID_87993598_JID_334_neutraal
 -----------------------------
 Charge =  0 Multiplicity = 1

 SCF Done:  E(RB3LYP) =  -475.922570993     A.U. after    1 cycles

  Exact polarizability: 108.769   0.572  71.454  -5.441  -0.505  77.659
 Approx polarizability: 136.868   1.017  97.986 -13.720  -2.581 128.614

                      1                      2                      3
                      A                      A                      A
 Frequencies --     52.0654               102.6348               145.2839
 Red. masses --      4.0748                 3.5348                 4.3623
 Frc consts  --      0.0065                 0.0219                 0.0543
 IR Inten    --      1.1340                 1.1772                 1.3717

                      4                      5                      6
                      A                      A                      A
 Frequencies --    249.2244               257.9143               283.5045
 Red. masses --      1.8000                 3.2670                 1.3308
 Frc consts  --      0.0659                 0.1280                 0.0630
 IR Inten    --      0.0218                 0.2862               104.7262

                      7                      8                      9
                      A                      A                      A
 Frequencies --    295.1703               355.0666               362.2028
 Red. masses --      4.5382                 3.6419                 2.4670
 Frc consts  --      0.2330                 0.2705                 0.1907
 IR Inten    --      2.7975                13.2024                43.4652

                     10                     11                     12
                      A                      A                      A
 Frequencies --    386.4082               432.5683               466.1171
 Red. masses --      1.9171                 1.2861                 2.8879
 Frc consts  --      0.1687                 0.1418                 0.3697
 IR Inten    --      5.9756                47.7761                 3.3215

                     13                     14                     15
                      A                      A                      A
 Frequencies --    492.4301               539.1452               552.1680
 Red. masses --      3.0864                 1.7054                 1.2577
 Frc consts  --      0.4409                 0.2921                 0.2259
 IR Inten    --     16.2086                28.1539               180.8950

                     16                     17                     18
                      A                      A                      A
 Frequencies --    705.6438               707.9663               799.4060
 Red. masses --      2.9264                 6.2243                 2.1201
 Frc consts  --      0.8585                 1.8381                 0.7982
 IR Inten    --     29.5145                22.0582                78.0690

                     19                     20                     21
                      A                      A                      A
 Frequencies --    831.4029               851.0485               897.9964
 Red. masses --      1.4779                 2.0321                 2.5388
 Frc consts  --      0.6019                 0.8672                 1.2062
 IR Inten    --      0.5538                14.9717                 4.8263

                     22                     23                     24
                      A                      A                      A
 Frequencies --    930.9455               935.1106               959.5155
 Red. masses --      2.1019                 4.8434                 3.4450
 Frc consts  --      1.0733                 2.4953                 1.8687
 IR Inten    --      0.0860                39.3547                84.8793

                     25                     26                     27
                      A                      A                      A
 Frequencies --   1009.3819              1056.0081              1073.4734
 Red. masses --      1.4322                 2.0468                 1.6589
 Frc consts  --      0.8597                 1.3448                 1.1263
 IR Inten    --      1.5559                 0.2962                 1.5382

                     28                     29                     30
                      A                      A                      A
 Frequencies --   1106.6259              1128.0563              1160.5429
 Red. masses --      2.7465                 1.7530                 1.9296
 Frc consts  --      1.9817                 1.3143                 1.5312
 IR Inten    --      1.1353                22.5464                26.7585

                     31                     32                     33
                      A                      A                      A
 Frequencies --   1174.0813              1186.7614              1240.0642
 Red. masses --      3.3971                 1.1644                 1.1869
 Frc consts  --      2.7590                 0.9662                 1.0754
 IR Inten    --     21.2321                 3.4999                 0.1229

                     34                     35                     36
                      A                      A                      A
 Frequencies --   1285.0937              1310.6037              1340.7191
 Red. masses --      1.3598                 1.2495                 1.2276
 Frc consts  --      1.3231                 1.2646                 1.3001
 IR Inten    --      4.7799                16.7695                 4.8844

                     37                     38                     39
                      A                      A                      A
 Frequencies --   1343.7901              1360.3206              1366.8869
 Red. masses --      1.2546                 1.5877                 1.3345
 Frc consts  --      1.3348                 1.7310                 1.4690
 IR Inten    --      2.6778                62.1452                32.7049

                     40                     41                     42
                      A                      A                      A
 Frequencies --   1394.0092              1408.1036              1446.7775
 Red. masses --      1.3202                 1.5489                 1.5815
 Frc consts  --      1.5116                 1.8094                 1.9504
 IR Inten    --      0.5966                 1.3704                 6.6861

                     43                     44                     45
                      A                      A                      A
 Frequencies --   1452.5230              1496.7695              1505.5111
 Red. masses --      2.1633                 1.1965                 1.1561
 Frc consts  --      2.6892                 1.5794                 1.5439
 IR Inten    --     16.0017                 3.3332                 0.0148

                     46                     47                     48
                      A                      A                      A
 Frequencies --   1515.4803              1527.2198              1538.1612
 Red. masses --      1.0974                 1.1214                 1.1055
 Frc consts  --      1.4849                 1.5410                 1.5411
 IR Inten    --      7.5684                 0.7728                 2.3710

                     49                     50                     51
                      A                      A                      A
 Frequencies --   1653.8326              1744.3530              2918.4453
 Red. masses --      1.2055                 5.8013                 1.0743
 Frc consts  --      1.9426                10.4003                 5.3913
 IR Inten    --     82.5550               114.2967                27.1064

                     52                     53                     54
                      A                      A                      A
 Frequencies --   2924.5217              3040.8197              3058.1828
 Red. masses --      1.0725                 1.0633                 1.0670
 Frc consts  --      5.4048                 5.7926                 5.8794
 IR Inten    --    135.7587                22.9890                 7.8039

                     55                     56                     57
                      A                      A                      A
 Frequencies --   3065.0083              3082.1481              3084.4144
 Red. masses --      1.0772                 1.0876                 1.0871
 Frc consts  --      5.9623                 6.0874                 6.0936
 IR Inten    --     16.8220                67.5403                37.1129

                     58                     59                     60
                      A                      A                      A
 Frequencies --   3095.0107              3106.5751              3502.7672
 Red. masses --      1.1016                 1.1046                 1.0746
 Frc consts  --      6.2170                 6.2810                 7.7682
 IR Inten    --     33.2774                38.1470                 1.9509

                     61                     62                     63
                      A                      A                      A
 Frequencies --   3573.2798              3682.8937              3787.6263
 Red. masses --      1.0458                 1.1004                 1.0679
 Frc consts  --      7.8678                 8.7941                 9.0264
 IR Inten    --     21.9140                27.4874                66.9570

 - Thermochemistry -
 -------------------
 Temperature   298.150 Kelvin.  Pressure   1.00000 Atm.
 Atom     1 has atomic number  6 and mass  12.00000

 Molecular mass:   143.10586 amu.
 Principal axes and moments of inertia in atomic units:
                           1         2         3
     Eigenvalues --   574.052042600.648802731.73538
           X            0.99996   0.00105   0.00939
           Y           -0.00125   0.99976   0.02208
           Z           -0.00936  -0.02209   0.99971
 This molecule is an asymmetric top.
 Rotational symmetry number  1.
 Warning -- assumption of classical behavior for rotation
           may cause significant error
 Rotational temperatures (Kelvin)      0.15088     0.03330     0.03171
 Rotational constants (GHZ):           3.14386     0.69396     0.66066
 Zero-point vibrational energy     534358.6 (Joules/Mol)
                                  127.71477 (Kcal/Mol)
 Warning -- explicit consideration of  15 degrees of freedom as
           vibrations may cause significant error
 Vibrational temperatures:     74.91   147.67   209.03   358.58   371.08
          (Kelvin)            407.90   424.68   510.86   521.13   555.96
                              622.37   670.64   708.50   775.71   794.45
                             1015.26  1018.61  1150.17  1196.20  1224.47
                             1292.02  1339.42  1345.42  1380.53  1452.28
                             1519.36  1544.49  1592.19  1623.02  1669.76
                             1689.24  1707.48  1784.18  1848.96  1885.67
                             1929.00  1933.41  1957.20  1966.65  2005.67
                             2025.95  2081.59  2089.86  2153.52  2166.09
                             2180.44  2197.33  2213.07  2379.50  2509.73
                             4198.99  4207.73  4375.06  4400.04  4409.86
                             4434.52  4437.78  4453.03  4469.67  5039.70
                             5141.15  5298.86  5449.55

 Zero-point correction=                           0.203526 (Hartree/Particle)
 Thermal correction to Energy=                    0.213520
 Thermal correction to Enthalpy=                  0.214465
 Thermal correction to Gibbs Free Energy=         0.168414
 Sum of electronic and zero-point Energies=           -475.719045
 Sum of electronic and thermal Energies=              -475.709051
 Sum of electronic and thermal Enthalpies=            -475.708106
 Sum of electronic and thermal Free Energies=         -475.754157

                     E (Thermal)             CV                S
                      KCal/Mol        Cal/Mol-Kelvin    Cal/Mol-Kelvin
 Total                  133.986             38.876             96.922
 Electronic               0.000              0.000              0.000
 Translational            0.889              2.981             40.786
 Rotational               0.889              2.981             29.790
 Vibrational            132.209             32.915             26.345
 Vibration     1          0.596              1.977              4.737
 Vibration     2          0.605              1.947              3.404
 Vibration     3          0.617              1.908              2.733
 Vibration     4          0.662              1.764              1.736
 Vibration     5          0.667              1.749              1.676
 Vibration     6          0.682              1.704              1.512
 Vibration     7          0.689              1.683              1.444
 Vibration     8          0.731              1.565              1.144
 Vibration     9          0.736              1.550              1.113
 Vibration    10          0.755              1.499              1.014
 Vibration    11          0.793              1.399              0.850
 Vibration    12          0.823              1.325              0.749
 Vibration    13          0.848              1.267              0.677
 Vibration    14          0.894              1.163              0.567
 Vibration    15          0.908              1.135              0.540

                           ! Non-Optimized Parameters !
 Normal termination of Gaussian 16 at Tue Dec  8 10:26:25 2020.

 ----------------------------------------------------------------------
 # B3LYP/6-311++G(d,p) empiricaldispersion=gd3bj scf=xqc pop=npa geom=c
 heck
 ----------------------------------------------------------------------

 -------------------------------------
 CID_87993598_JID_334_Energie_neutraal
 -------------------------------------
 Structure from the checkpoint file:  "JID_334.chk"
 Charge =  0 Multiplicity = 1

 SCF Done:  E(RB3LYP) =  -476.079137401     A.U. after   13 cycles
 Normal termination of Gaussian 16 at Tue Dec  8 10:28:07 2020.

 ----------------------------------------------------------------------
 # B3LYP/6-311++G(d,p) empiricaldispersion=gd3bj scf=xqc pop=npa geom=c
 heck
 ----------------------------------------------------------------------

 -----------------------------------
 CID_87993598_JID_334_Energie_kation
 -----------------------------------
 Structure from the checkpoint file:  "JID_334.chk"
 Charge =  1 Multiplicity = 2

 SCF Done:  E(UB3LYP) =  -475.782487998     A.U. after   24 cycles
 Normal termination of Gaussian 16 at Tue Dec  8 10:33:34 2020.
 Gaussian 16:  ES64L-G16RevA.03 25-Dec-2016

 ----------------------------------------------------------------------
 # B3LYP/6-311++G(d,p) empiricaldispersion=gd3bj scf=xqc pop=npa geom=c
 heck
 ----------------------------------------------------------------------

 ----------------------------------
 CID_87993598_JID_334_Energie_anion
 ----------------------------------
 Structure from the checkpoint file:  "JID_334.chk"
 Charge = -1 Multiplicity = 2

                         Standard orientation:
 ---------------------------------------------------------------------
 Center     Atomic      Atomic             Coordinates (Angstroms)
 Number     Number       Type             X           Y           Z
 ---------------------------------------------------------------------
      1          6           0       -0.792360   -1.268727    0.099087
      2          6           0       -2.265036   -1.194104   -0.308347
      3          7           0       -2.874049    0.003732    0.271499
      4          6           0       -2.250900    1.225225   -0.236394
      5          6           0       -0.778558    1.256621    0.179265
      6          6           0       -0.044464    0.004693   -0.344194
      7          6           0        1.408369   -0.015994    0.055419
      8          7           0        2.279265    0.046945   -0.894342
      9          8           0        3.597499    0.025647   -0.327195
     10          7           0        1.723933   -0.154916    1.389861
     11          1           0       -0.318155   -2.150098   -0.346928
     12          1           0       -0.731438   -1.377600    1.188051
     13          1           0       -2.330599   -1.208819   -1.414959
     14          1           0       -2.803634   -2.073389    0.062118
     15          1           0       -3.870223    0.016154    0.065225
     16          1           0       -2.779980    2.088680    0.182065
     17          1           0       -2.308779    1.305734   -1.340602
     18          1           0       -0.734620    1.294376    1.275720
     19          1           0       -0.293152    2.160963   -0.205142
     20          1           0       -0.049083    0.045240   -1.440003
     21          1           0        4.148399    0.126480   -1.116237
     22          1           0        1.040558    0.181041    2.053500
     23          1           0        2.684360    0.069443    1.616616
 ---------------------------------------------------------------------

 SCF Done:  E(UB3LYP) =  -476.063110275     A.U. after   31 cycles

 The electronic state is 2-A.
 Alpha  occ. eigenvalues --  -19.04719 -14.22944 -14.21789 -14.18918 -10.12780
 Alpha  occ. eigenvalues --  -10.08570 -10.08459 -10.07848 -10.06327 -10.06254
 Alpha  occ. eigenvalues --   -0.96081  -0.82729  -0.80473  -0.72502  -0.68481
 Alpha  occ. eigenvalues --   -0.64914  -0.55369  -0.51923  -0.46795  -0.45486
 Alpha  occ. eigenvalues --   -0.43153  -0.41134  -0.39953  -0.34990  -0.34859
 Alpha  occ. eigenvalues --   -0.33563  -0.32254  -0.31606  -0.30316  -0.28990
 Alpha  occ. eigenvalues --   -0.27957  -0.24843  -0.23445  -0.22429  -0.21847
 Alpha  occ. eigenvalues --   -0.20314  -0.17767  -0.12396  -0.11907   0.04745
 Alpha virt. eigenvalues --    0.06421   0.07678   0.08099   0.09340   0.09839
 Alpha virt. eigenvalues --    0.11197   0.11424   0.11553   0.12648   0.13165
 Alpha virt. eigenvalues --    0.13702   0.14372   0.15050   0.17221   0.17446

  Beta  occ. eigenvalues --  -19.04691 -14.22933 -14.21738 -14.18885 -10.12773
  Beta  occ. eigenvalues --  -10.08549 -10.08434 -10.07848 -10.06305 -10.06242
  Beta  occ. eigenvalues --   -0.96034  -0.82664  -0.80422  -0.72436  -0.68446
  Beta  occ. eigenvalues --   -0.64872  -0.55320  -0.51862  -0.46718  -0.45426
  Beta  occ. eigenvalues --   -0.43094  -0.41066  -0.39877  -0.34947  -0.34825
  Beta  occ. eigenvalues --   -0.33531  -0.32228  -0.31573  -0.30270  -0.28947
  Beta  occ. eigenvalues --   -0.27919  -0.24795  -0.23407  -0.22390  -0.21806
  Beta  occ. eigenvalues --   -0.20269  -0.17728  -0.12327  -0.11874
  Beta virt. eigenvalues --    0.07131   0.07641   0.08618   0.08816   0.09943
  Beta virt. eigenvalues --    0.10600   0.11778   0.11816   0.11886   0.13107
  Beta virt. eigenvalues --    0.13285   0.13889   0.14644   0.15458   0.17561

 Mulliken charges and spin densities:
               1          2
     1  C   -0.696815   0.434073
     2  C    1.333157  -1.810125
     3  N   -0.394262   0.282271
     4  C    1.575313  -2.053839
     5  C   -0.568724   0.276588
     6  C    1.884463  -2.036623
     7  C   -1.984964   2.122944
     8  N   -0.190612  -0.162763
     9  O   -0.189981   0.070598
    10  N   -0.115639  -0.212265
    11  H    0.041448   0.110410
    12  H   -0.050163   0.207330
    13  H   -0.163405   0.264270
    14  H   -0.281602   0.460357
    15  H   -0.343560   0.604769
    16  H   -0.493429   0.678235
    17  H   -0.129379   0.230802
    18  H   -0.232831   0.377026
    19  H   -0.032150   0.191959
    20  H    0.247905  -0.056483
    21  H    0.019852   0.248511
    22  H   -0.050985   0.293038
    23  H   -0.183635   0.478916
 Sum of Mulliken charges =  -1.00000   1.00000

 Dipole moment (field-independent basis, Debye):
    X=              2.7784    Y=             -0.9637    Z=             -1.8440  Tot=              3.4711
 Quadrupole moment (field-independent basis, Debye-Ang):
   XX=           -135.5394   YY=            -92.8773   ZZ=            -91.7111
   XY=              1.9980   XZ=             -0.2198   YZ=             -1.0220

 Summary of Natural Population Analysis:

                                       Natural Population
                Natural  -----------------------------------------------
    Atom  No    Charge         Core      Valence    Rydberg      Total
 -----------------------------------------------------------------------
      C    1   -0.18909      0.99961     2.18048    0.00900     3.18909
      C    2   -0.08570      0.99962     2.07404    0.01204     3.08570
      N    3   -0.34033      0.99974     2.82770    0.01289     3.84033
      C    4   -0.08510      0.99962     2.07339    0.01209     3.08510
      C    5   -0.18959      0.99961     2.18051    0.00947     3.18959
      C    6   -0.13060      0.99954     2.11960    0.01146     3.13060
      C    7    0.20486      0.99959     1.77527    0.02027     2.79514
      N    8   -0.13170      0.99961     2.61942    0.01266     3.63170
      O    9   -0.30980      0.99990     3.30285    0.00705     4.30980
      N   10   -0.40371      0.99970     2.89421    0.00981     3.90371
      H   11    0.10103      0.00000     0.39804    0.00093     0.39897
      H   12    0.09995      0.00000     0.39831    0.00174     0.40005
      H   13    0.07478      0.00000     0.42352    0.00171     0.42522
      H   14    0.09685      0.00000     0.40183    0.00132     0.40315
      H   15    0.17936      0.00000     0.31404    0.00660     0.32064
      H   16    0.09868      0.00000     0.39941    0.00192     0.40132
      H   17    0.07482      0.00000     0.42342    0.00176     0.42518
      H   18    0.09617      0.00000     0.40169    0.00214     0.40383
      H   19    0.10218      0.00000     0.39661    0.00121     0.39782
      H   20    0.10820      0.00000     0.38922    0.00259     0.39180
      H   21    0.23483      0.00000     0.26059    0.00458     0.26517
      H   22    0.19288      0.00000     0.30431    0.00281     0.30712
      H   23    0.20103      0.00000     0.29616    0.00281     0.29897
 =======================================================================
   * Total *    0.00000      9.99654    28.85460    0.14885    39.00000

 Normal termination of Gaussian 16 at Tue Dec  8 10:44:27 2020.
