 Gaussian 16, Revision A.03,

 -----------------------------------------------------------
 # opt freq B3LYP/6-31G(d) empiricaldispersion=gd3bj scf=xqc
 -----------------------------------------------------------

 -------------------------------
 CID_116635205_JID_6892_neutraal
 -------------------------------
 Symbolic Z-matrix:
 Charge =  0 Multiplicity = 1

 SCF Done:  E(RB3LYP) =  -750.354195234     A.U. after   14 cycles
 SCF Done:  E(RB3LYP) =  -750.358162400     A.U. after   12 cycles
 SCF Done:  E(RB3LYP) =  -750.358016786     A.U. after   12 cycles
 SCF Done:  E(RB3LYP) =  -750.358684578     A.U. after   12 cycles
 SCF Done:  E(RB3LYP) =  -750.359255946     A.U. after   11 cycles
 SCF Done:  E(RB3LYP) =  -750.359298936     A.U. after   12 cycles
 SCF Done:  E(RB3LYP) =  -750.359468095     A.U. after   12 cycles
 SCF Done:  E(RB3LYP) =  -750.359265058     A.U. after   12 cycles
 SCF Done:  E(RB3LYP) =  -750.359491383     A.U. after   12 cycles
 SCF Done:  E(RB3LYP) =  -750.359574446     A.U. after   11 cycles
 SCF Done:  E(RB3LYP) =  -750.359589651     A.U. after   10 cycles
 SCF Done:  E(RB3LYP) =  -750.359589972     A.U. after    8 cycles
 SCF Done:  E(RB3LYP) =  -750.359590085     A.U. after    7 cycles
 SCF Done:  E(RB3LYP) =  -750.359590112     A.U. after    8 cycles
 SCF Done:  E(RB3LYP) =  -750.359590117     A.U. after    7 cycles
 Optimization completed.
    -- Stationary point found.
 Normal termination of Gaussian 16 at Fri Dec 11 01:08:11 2020.

 --------------------------------------------------------------------
 #N Geom=AllCheck Guess=TCheck SCRF=Check GenChk RB3LYP/6-31G(d) Freq
 --------------------------------------------------------------------

 Structure from the checkpoint file:  "JID_6892.chk"
 -------------------------------
 CID_116635205_JID_6892_neutraal
 -------------------------------
 Charge =  0 Multiplicity = 1

 SCF Done:  E(RB3LYP) =  -750.359590117     A.U. after    1 cycles

  Exact polarizability: 147.204  -5.911 127.948   0.603  -0.645 127.398
 Approx polarizability: 189.257  -7.093 196.272   5.034  -2.585 189.341

                      1                      2                      3
                      A                      A                      A
 Frequencies --     32.8362                62.3724                70.8314
 Red. masses --      7.1214                 4.2919                 4.8424
 Frc consts  --      0.0045                 0.0098                 0.0143
 IR Inten    --      1.9762                 0.2295                 2.3699

                      4                      5                      6
                      A                      A                      A
 Frequencies --     92.8299               107.9427               144.6319
 Red. masses --      4.1550                 3.3677                 3.2114
 Frc consts  --      0.0211                 0.0231                 0.0396
 IR Inten    --      1.4509                 0.3076                 1.3336

                      7                      8                      9
                      A                      A                      A
 Frequencies --    146.7107               153.0943               198.8372
 Red. masses --      3.1345                 3.8176                 3.1119
 Frc consts  --      0.0398                 0.0527                 0.0725
 IR Inten    --      0.4215                 0.6575                 1.6570

                     10                     11                     12
                      A                      A                      A
 Frequencies --    234.6972               257.8921               276.9298
 Red. masses --      3.2419                 2.6195                 2.4494
 Frc consts  --      0.1052                 0.1026                 0.1107
 IR Inten    --      0.7325                 2.9138                13.3455

                     13                     14                     15
                      A                      A                      A
 Frequencies --    290.1510               308.3068               325.0419
 Red. masses --      2.5881                 1.9736                 1.7307
 Frc consts  --      0.1284                 0.1105                 0.1077
 IR Inten    --     17.8328                29.4611                42.3038

                     16                     17                     18
                      A                      A                      A
 Frequencies --    346.1697               372.9943               392.1467
 Red. masses --      3.2454                 1.9708                 4.3025
 Frc consts  --      0.2291                 0.1615                 0.3898
 IR Inten    --      1.9326                 8.2259                 3.6240

                     19                     20                     21
                      A                      A                      A
 Frequencies --    407.5817               438.2492               472.9186
 Red. masses --      3.4880                 3.7245                 3.5833
 Frc consts  --      0.3414                 0.4215                 0.4722
 IR Inten    --      6.0215                 1.3705                 9.8754

                     22                     23                     24
                      A                      A                      A
 Frequencies --    505.7008               567.5485               607.6087
 Red. masses --      1.6461                 2.3357                 2.1570
 Frc consts  --      0.2480                 0.4433                 0.4692
 IR Inten    --      1.4057                 4.0028                48.4265

                     25                     26                     27
                      A                      A                      A
 Frequencies --    629.0324               685.6192               722.2813
 Red. masses --      2.4941                 1.6504                 2.5617
 Frc consts  --      0.5815                 0.4571                 0.7874
 IR Inten    --     30.4988                62.0461                 2.2367

                     28                     29                     30
                      A                      A                      A
 Frequencies --    772.4125               789.4887               800.3850
 Red. masses --      3.3493                 1.7964                 1.3242
 Frc consts  --      1.1773                 0.6597                 0.4998
 IR Inten    --     43.9390                 1.0493                 3.8181

                     31                     32                     33
                      A                      A                      A
 Frequencies --    835.4640               842.3068               857.0368
 Red. masses --      1.6608                 1.9589                 2.3113
 Frc consts  --      0.6830                 0.8189                 1.0002
 IR Inten    --      8.9360                 0.8995                 3.8997

                     34                     35                     36
                      A                      A                      A
 Frequencies --    860.6128               899.2398               913.5845
 Red. masses --      1.5498                 2.3027                 3.5980
 Frc consts  --      0.6763                 1.0971                 1.7693
 IR Inten    --      1.2475                 1.8756                 5.5140

                     37                     38                     39
                      A                      A                      A
 Frequencies --    926.0197               959.5462               985.1254
 Red. masses --      1.8201                 3.4595                 2.0701
 Frc consts  --      0.9196                 1.8767                 1.1836
 IR Inten    --      5.0022                 9.3416                16.0138

                     40                     41                     42
                      A                      A                      A
 Frequencies --    998.9751              1016.8217              1047.8849
 Red. masses --      2.1087                 2.0967                 1.7611
 Frc consts  --      1.2399                 1.2772                 1.1394
 IR Inten    --     19.0463                 8.1834                12.9284

                     43                     44                     45
                      A                      A                      A
 Frequencies --   1058.2817              1070.6310              1074.5895
 Red. masses --      2.1032                 2.0901                 2.1757
 Frc consts  --      1.3878                 1.4116                 1.4802
 IR Inten    --      5.6478                81.4227                28.5797

                     46                     47                     48
                      A                      A                      A
 Frequencies --   1088.1187              1092.8966              1099.3971
 Red. masses --      1.5853                 1.8742                 2.1670
 Frc consts  --      1.1059                 1.3189                 1.5432
 IR Inten    --     13.8853                12.3027                10.8840

                     49                     50                     51
                      A                      A                      A
 Frequencies --   1137.5623              1148.5512              1153.1729
 Red. masses --      1.6895                 1.2208                 2.0057
 Frc consts  --      1.2881                 0.9488                 1.5714
 IR Inten    --      3.1177                 8.7492                62.8564

                     52                     53                     54
                      A                      A                      A
 Frequencies --   1156.1269              1182.7402              1200.2131
 Red. masses --      2.1440                 1.5529                 2.1599
 Frc consts  --      1.6885                 1.2799                 1.8332
 IR Inten    --      0.3422                66.6542               123.2888

                     55                     56                     57
                      A                      A                      A
 Frequencies --   1207.2564              1215.3036              1243.1039
 Red. masses --      2.0017                 1.4188                 1.6302
 Frc consts  --      1.7189                 1.2347                 1.4842
 IR Inten    --      1.6202                 6.0537                37.0718

                     58                     59                     60
                      A                      A                      A
 Frequencies --   1253.5368              1262.1783              1297.9169
 Red. masses --      1.3721                 1.7094                 1.2688
 Frc consts  --      1.2704                 1.6045                 1.2593
 IR Inten    --      3.8646                10.9500                 9.8564

                     61                     62                     63
                      A                      A                      A
 Frequencies --   1319.7882              1333.6609              1345.8548
 Red. masses --      1.2050                 1.2833                 1.1682
 Frc consts  --      1.2367                 1.3449                 1.2467
 IR Inten    --      3.9801                 5.5887                 5.4138

                     64                     65                     66
                      A                      A                      A
 Frequencies --   1362.7770              1371.9765              1385.8052
 Red. masses --      1.4941                 1.8943                 1.2380
 Frc consts  --      1.6348                 2.1009                 1.4008
 IR Inten    --     11.5270                17.7847                 7.3369

                     67                     68                     69
                      A                      A                      A
 Frequencies --   1390.9865              1403.7174              1407.8611
 Red. masses --      1.3581                 1.2557                 1.4240
 Frc consts  --      1.5482                 1.4578                 1.6629
 IR Inten    --      7.8295                47.2110                 0.3395

                     70                     71                     72
                      A                      A                      A
 Frequencies --   1411.5296              1421.1191              1431.3591
 Red. masses --      1.3539                 1.4069                 1.4906
 Frc consts  --      1.5894                 1.6740                 1.7994
 IR Inten    --      6.4552                 2.6370                 2.7230

                     73                     74                     75
                      A                      A                      A
 Frequencies --   1433.3182              1451.6669              1465.2503
 Red. masses --      1.3994                 1.2880                 1.3647
 Frc consts  --      1.6939                 1.5992                 1.7263
 IR Inten    --      2.2254                10.7332                 7.6703

                     76                     77                     78
                      A                      A                      A
 Frequencies --   1491.4781              1514.4722              1515.0484
 Red. masses --      1.1069                 1.0883                 1.0886
 Frc consts  --      1.4508                 1.4707                 1.4722
 IR Inten    --      3.2661                 2.3672                 1.3344

                     79                     80                     81
                      A                      A                      A
 Frequencies --   1519.7820              1528.2558              1538.5550
 Red. masses --      1.0903                 1.1093                 1.3271
 Frc consts  --      1.4838                 1.5264                 1.8509
 IR Inten    --      8.6219                 5.0176                 6.2497

                     82                     83                     84
                      A                      A                      A
 Frequencies --   1551.8960              1553.4015              1817.7631
 Red. masses --      1.0837                 1.1158                 9.4534
 Frc consts  --      1.5377                 1.5863                18.4040
 IR Inten    --      2.1215                11.9246               215.1611

                     85                     86                     87
                      A                      A                      A
 Frequencies --   2994.8175              3022.2292              3027.4690
 Red. masses --      1.0682                 1.0682                 1.0627
 Frc consts  --      5.6447                 5.7487                 5.7390
 IR Inten    --     21.4760                25.1024                21.7074

                     88                     89                     90
                      A                      A                      A
 Frequencies --   3042.0050              3045.0201              3050.3937
 Red. masses --      1.0712                 1.0685                 1.0760
 Frc consts  --      5.8403                 5.8370                 5.8987
 IR Inten    --      1.1854                32.1230                30.4924

                     91                     92                     93
                      A                      A                      A
 Frequencies --   3058.4819              3065.7937              3071.1927
 Red. masses --      1.0858                 1.0900                 1.0984
 Frc consts  --      5.9842                 6.0362                 6.1039
 IR Inten    --     65.1329                44.8192                48.9090

                     94                     95                     96
                      A                      A                      A
 Frequencies --   3073.2495              3091.0499              3094.8829
 Red. masses --      1.0846                 1.0975                 1.0976
 Frc consts  --      6.0353                 6.1784                 6.1939
 IR Inten    --     30.5655                19.9493                56.0335

                     97                     98                     99
                      A                      A                      A
 Frequencies --   3105.6584              3140.4799              3143.6502
 Red. masses --      1.0842                 1.0950                 1.0840
 Frc consts  --      6.1612                 6.3631                 6.3116
 IR Inten    --     11.9808                32.6715                17.0207

                    100                    101                    102
                      A                      A                      A
 Frequencies --   3150.9589              3168.4430              3233.4053
 Red. masses --      1.0568                 1.0627                 1.1174
 Frc consts  --      6.1819                 6.2856                 6.8828
 IR Inten    --     17.1238                17.1100                 8.4576

                    103                    104                    105
                      A                      A                      A
 Frequencies --   3260.6043              3665.3261              3751.8105
 Red. masses --      1.1098                 1.0638                 1.0659
 Frc consts  --      6.9520                 8.4206                 8.8401
 IR Inten    --     11.3158                41.4523                 9.4185

 - Thermochemistry -
 -------------------
 Temperature   298.150 Kelvin.  Pressure   1.00000 Atm.
 Atom     1 has atomic number  6 and mass  12.00000

 Molecular mass:   227.15214 amu.
 Principal axes and moments of inertia in atomic units:
                           1         2         3
     Eigenvalues --  2718.755834077.638214806.12031
           X            0.99922  -0.03904  -0.00639
           Y            0.03898   0.99920  -0.00939
           Z            0.00675   0.00913   0.99994
 This molecule is an asymmetric top.
 Rotational symmetry number  1.
 Warning -- assumption of classical behavior for rotation
           may cause significant error
 Rotational temperatures (Kelvin)      0.03186     0.02124     0.01802
 Rotational constants (GHZ):           0.66381     0.44259     0.37551
 Zero-point vibrational energy     864431.6 (Joules/Mol)
                                  206.60412 (Kcal/Mol)
 Warning -- explicit consideration of  24 degrees of freedom as
           vibrations may cause significant error
 Vibrational temperatures:     47.24    89.74   101.91   133.56   155.31
          (Kelvin)            208.09   211.08   220.27   286.08   337.68
                              371.05   398.44   417.46   443.58   467.66
                              498.06   536.66   564.21   586.42   630.54
                              680.42   727.59   816.58   874.21   905.04
                              986.45  1039.20  1111.33  1135.90  1151.58
                             1202.05  1211.89  1233.08  1238.23  1293.81
                             1314.44  1332.34  1380.57  1417.38  1437.30
                             1462.98  1507.67  1522.63  1540.40  1546.09
                             1565.56  1572.43  1581.79  1636.70  1652.51
                             1659.16  1663.41  1701.70  1726.84  1736.97
                             1748.55  1788.55  1803.56  1815.99  1867.41
                             1898.88  1918.84  1936.38  1960.73  1973.97
                             1993.86  2001.32  2019.64  2025.60  2030.88
                             2044.67  2059.41  2062.23  2088.62  2108.17
                             2145.90  2178.99  2179.82  2186.63  2198.82
                             2213.64  2232.83  2235.00  2615.36  4308.87
                             4348.31  4355.85  4376.77  4381.10  4388.84
                             4400.47  4410.99  4418.76  4421.72  4447.33
                             4452.85  4468.35  4518.45  4523.01  4533.53
                             4558.68  4652.15  4691.28  5273.59  5398.02

 Zero-point correction=                           0.329245 (Hartree/Particle)
 Thermal correction to Energy=                    0.345309
 Thermal correction to Enthalpy=                  0.346253
 Thermal correction to Gibbs Free Energy=         0.285999
 Sum of electronic and zero-point Energies=           -750.030345
 Sum of electronic and thermal Energies=              -750.014281
 Sum of electronic and thermal Enthalpies=            -750.013337
 Sum of electronic and thermal Free Energies=         -750.073591

                     E (Thermal)             CV                S
                      KCal/Mol        Cal/Mol-Kelvin    Cal/Mol-Kelvin
 Total                  216.685             62.354            126.816
 Electronic               0.000              0.000              0.000
 Translational            0.889              2.981             42.164
 Rotational               0.889              2.981             32.344
 Vibrational            214.907             56.392             52.308
 Vibration     1          0.594              1.983              5.650
 Vibration     2          0.597              1.972              4.381
 Vibration     3          0.598              1.968              4.130
 Vibration     4          0.602              1.954              3.600
 Vibration     5          0.606              1.943              3.306
 Vibration     6          0.616              1.908              2.742
 Vibration     7          0.617              1.906              2.714
 Vibration     8          0.619              1.899              2.633
 Vibration     9          0.637              1.842              2.144
 Vibration    10          0.655              1.788              1.843
 Vibration    11          0.667              1.749              1.676
 Vibration    12          0.678              1.716              1.553
 Vibration    13          0.686              1.692              1.473
 Vibration    14          0.698              1.658              1.371
 Vibration    15          0.709              1.625              1.285
 Vibration    16          0.724              1.583              1.184
 Vibration    17          0.744              1.528              1.067
 Vibration    18          0.760              1.487              0.992
 Vibration    19          0.772              1.454              0.935
 Vibration    20          0.798              1.387              0.832
 Vibration    21          0.830              1.310              0.729
 Vibration    22          0.861              1.237              0.644
 Vibration    23          0.924              1.101              0.509
 Vibration    24          0.966              1.016              0.437

 Optimization completed.
    -- Stationary point found.
 Normal termination of Gaussian 16 at Fri Dec 11 01:22:54 2020.

 ----------------------------------------------------------------------
 # B3LYP/6-311++G(d,p) empiricaldispersion=gd3bj scf=xqc pop=npa geom=c
 heck
 ----------------------------------------------------------------------

 ---------------------------------------
 CID_116635205_JID_6892_Energie_neutraal
 ---------------------------------------
 Structure from the checkpoint file:  "JID_6892.chk"
 Charge =  0 Multiplicity = 1

 SCF Done:  E(RB3LYP) =  -750.588721677     A.U. after   14 cycles
 Normal termination of Gaussian 16 at Fri Dec 11 01:28:55 2020.

 ----------------------------------------------------------------------
 # B3LYP/6-311++G(d,p) empiricaldispersion=gd3bj scf=xqc pop=npa geom=c
 heck
 ----------------------------------------------------------------------

 -------------------------------------
 CID_116635205_JID_6892_Energie_kation
 -------------------------------------
 Structure from the checkpoint file:  "JID_6892.chk"
 Charge =  1 Multiplicity = 2

 SCF Done:  E(UB3LYP) =  -750.302402479     A.U. after   20 cycles
 Normal termination of Gaussian 16 at Fri Dec 11 01:40:02 2020.
 Gaussian 16:  ES64L-G16RevA.03 25-Dec-2016

 ----------------------------------------------------------------------
 # B3LYP/6-311++G(d,p) empiricaldispersion=gd3bj scf=xqc pop=npa geom=c
 heck
 ----------------------------------------------------------------------

 ------------------------------------
 CID_116635205_JID_6892_Energie_anion
 ------------------------------------
 Structure from the checkpoint file:  "JID_6892.chk"
 Charge = -1 Multiplicity = 2

                         Standard orientation:
 ---------------------------------------------------------------------
 Center     Atomic      Atomic             Coordinates (Angstroms)
 Number     Number       Type             X           Y           Z
 ---------------------------------------------------------------------
      1          6           0        3.206549   -0.801408    0.608621
      2          6           0        2.967773   -0.044775   -0.700993
      3          6           0        1.542362   -0.158661   -1.261617
      4          6           0        0.426310    0.572819   -0.477091
      5          7           0       -0.103338   -0.114746    0.721736
      6          6           0        0.792008   -1.003899    1.483151
      7          6           0        2.214107   -0.493969    1.737074
      8          6           0       -1.422864   -0.748697    0.554004
      9          6           0       -2.628789    0.177342    0.625367
     10          6           0       -2.624492    1.372970    1.540364
     11          6           0       -2.725580    1.563613    0.045800
     12          6           0       -1.421405   -1.665265   -0.675052
     13          8           0       -0.855923   -2.739336   -0.726841
     14          8           0       -2.057993   -1.138866   -1.749765
     15          6           0        0.810222    2.020330   -0.117660
     16          8           0        1.101361    2.800211   -1.272894
     17          1           0        3.162556   -1.880677    0.405145
     18          1           0        4.226702   -0.595305    0.957528
     19          1           0        3.669055   -0.423017   -1.455711
     20          1           0        3.230810    1.013236   -0.558388
     21          1           0        1.537761    0.260088   -2.275979
     22          1           0        1.270789   -1.214884   -1.371182
     23          1           0       -0.408743    0.662505   -1.175779
     24          1           0        0.861991   -1.998240    1.013031
     25          1           0        0.301621   -1.154117    2.452756
     26          1           0        2.571579   -1.001423    2.641900
     27          1           0        2.198939    0.575311    1.979040
     28          1           0       -1.524271   -1.440486    1.396723
     29          1           0       -3.557222   -0.390613    0.590082
     30          1           0       -3.498938    1.565514    2.155459
     31          1           0       -1.672797    1.612505    2.005389
     32          1           0       -1.882618    1.992698   -0.480645
     33          1           0       -3.687016    1.850809   -0.370292
     34          1           0       -1.939447   -1.786945   -2.470955
     35          1           0       -0.040345    2.502738    0.367132
     36          1           0        1.640350    2.045382    0.599637
     37          1           0        1.945850    2.489678   -1.632851
 ---------------------------------------------------------------------

 SCF Done:  E(UB3LYP) =  -750.576503159     A.U. after   33 cycles
 SCF Done:  E(UB3LYP) =  -750.576503159     a.u. after    1 cycles

 The electronic state is 2-A.
 Alpha  occ. eigenvalues --  -19.07764 -19.02907 -19.02273 -14.21918 -10.21151
 Alpha  occ. eigenvalues --  -10.12633 -10.11551 -10.10318 -10.09732 -10.08886
 Alpha  occ. eigenvalues --  -10.07831 -10.07770 -10.07312 -10.06934 -10.06880
 Alpha  occ. eigenvalues --  -10.06783  -1.01771  -0.92958  -0.92709  -0.83791
 Alpha  occ. eigenvalues --   -0.76648  -0.71185  -0.68445  -0.65503  -0.60562
 Alpha  occ. eigenvalues --   -0.57687  -0.55020  -0.52857  -0.50823  -0.48755
 Alpha  occ. eigenvalues --   -0.47450  -0.45102  -0.43338  -0.41671  -0.40259
 Alpha  occ. eigenvalues --   -0.39723  -0.39321  -0.38087  -0.36642  -0.35555
 Alpha  occ. eigenvalues --   -0.34208  -0.33570  -0.33135  -0.32143  -0.31408
 Alpha  occ. eigenvalues --   -0.30743  -0.29639  -0.28768  -0.27519  -0.27062
 Alpha  occ. eigenvalues --   -0.26340  -0.24942  -0.23741  -0.23428  -0.22936
 Alpha  occ. eigenvalues --   -0.22444  -0.21698  -0.21380  -0.20208  -0.19226
 Alpha  occ. eigenvalues --   -0.18046  -0.12184   0.04153
 Alpha virt. eigenvalues --    0.05799   0.06306   0.07076   0.08121   0.08334
 Alpha virt. eigenvalues --    0.08406   0.08808   0.09214   0.10352   0.10663
 Alpha virt. eigenvalues --    0.11093   0.11581   0.12217   0.12748   0.13661

  Beta  occ. eigenvalues --  -19.07723 -19.02886 -19.02262 -14.21919 -10.21149
  Beta  occ. eigenvalues --  -10.12622 -10.11544 -10.10314 -10.09722 -10.08876
  Beta  occ. eigenvalues --  -10.07823 -10.07761 -10.07300 -10.06905 -10.06862
  Beta  occ. eigenvalues --  -10.06764  -1.01718  -0.92915  -0.92667  -0.83781
  Beta  occ. eigenvalues --   -0.76631  -0.71149  -0.68418  -0.65466  -0.60523
  Beta  occ. eigenvalues --   -0.57644  -0.54978  -0.52792  -0.50789  -0.48716
  Beta  occ. eigenvalues --   -0.47399  -0.45060  -0.43301  -0.41636  -0.40234
  Beta  occ. eigenvalues --   -0.39691  -0.39295  -0.38049  -0.36605  -0.35530
  Beta  occ. eigenvalues --   -0.34175  -0.33541  -0.33112  -0.32105  -0.31374
  Beta  occ. eigenvalues --   -0.30713  -0.29609  -0.28745  -0.27504  -0.27034
  Beta  occ. eigenvalues --   -0.26313  -0.24917  -0.23714  -0.23397  -0.22906
  Beta  occ. eigenvalues --   -0.22401  -0.21673  -0.21347  -0.20189  -0.19202
  Beta  occ. eigenvalues --   -0.18019  -0.12171
  Beta virt. eigenvalues --    0.06265   0.06755   0.07188   0.07666   0.08336
  Beta virt. eigenvalues --    0.08692   0.08867   0.09224   0.09565   0.10555
  Beta virt. eigenvalues --    0.10954   0.11439   0.11965   0.12548   0.12903

 Mulliken charges and spin densities:
               1          2
     1  C    0.550767  -1.100952
     2  C    0.255429  -0.269741
     3  C   -0.028081  -0.577913
     4  C   -1.348266   0.862542
     5  N    0.321657   0.089613
     6  C    0.466671  -0.837638
     7  C   -0.981777   0.905138
     8  C    0.803490  -0.803828
     9  C   -0.029577  -0.143200
    10  C   -0.052186  -0.409816
    11  C   -0.027974  -0.303277
    12  C   -0.206235  -0.095198
    13  O   -0.237976   0.027235
    14  O   -0.117423   0.066831
    15  C    0.481658  -0.936053
    16  O   -0.186577   0.026060
    17  H    0.090935   0.040754
    18  H   -0.438663   0.616225
    19  H   -0.473043   0.667959
    20  H   -0.068377   0.166261
    21  H   -0.241945   0.457397
    22  H    0.151002   0.024539
    23  H    0.613384  -0.411107
    24  H    0.189482   0.004158
    25  H   -0.008293   0.146278
    26  H   -0.169978   0.352951
    27  H   -0.021511   0.140667
    28  H    0.009150   0.211819
    29  H   -0.351057   0.593880
    30  H   -0.145863   0.305044
    31  H    0.061208   0.077151
    32  H   -0.145148   0.326964
    33  H    0.038545   0.126541
    34  H   -0.289321   0.581754
    35  H    0.380299  -0.211369
    36  H    0.166757   0.017041
    37  H   -0.011164   0.265291
 Sum of Mulliken charges =  -1.00000   1.00000

 Dipole moment (field-independent basis, Debye):
    X=             -1.6735    Y=              1.1269    Z=              2.8548  Tot=              3.4958
 Quadrupole moment (field-independent basis, Debye-Ang):
   XX=           -170.8318   YY=           -144.0136   ZZ=           -143.6952
   XY=             -2.3122   XZ=              0.0215   YZ=              1.0577

 Summary of Natural Population Analysis:

                                       Natural Population
                Natural  -----------------------------------------------
    Atom  No    Charge         Core      Valence    Rydberg      Total
 -----------------------------------------------------------------------
      C    1   -0.18752      0.99962     2.17934    0.00857     3.18752
      C    2   -0.19145      0.99962     2.18220    0.00964     3.19145
      C    3   -0.20774      0.99960     2.19759    0.01055     3.20774
      C    4   -0.02684      0.99956     2.01286    0.01442     3.02684
      N    5   -0.28181      0.99970     2.76858    0.01353     3.78181
      C    6   -0.08386      0.99959     2.07367    0.01060     3.08386
      C    7   -0.19789      0.99962     2.19010    0.00818     3.19789
      C    8   -0.04319      0.99949     2.02871    0.01499     3.04319
      C    9   -0.11850      0.99958     2.10609    0.01284     3.11850
      C   10   -0.19915      0.99962     2.19208    0.00745     3.19915
      C   11   -0.19472      0.99961     2.18629    0.00883     3.19472
      C   12    0.40374      0.99968     1.57073    0.02585     2.59626
      O   13   -0.30924      0.99987     3.30319    0.00618     4.30924
      O   14   -0.34079      0.99987     3.33403    0.00688     4.34079
      C   15   -0.01199      0.99955     1.99954    0.01290     3.01199
      O   16   -0.37037      0.99990     3.36430    0.00617     4.37037
      H   17    0.09330      0.00000     0.40533    0.00137     0.40670
      H   18    0.09963      0.00000     0.39901    0.00136     0.40037
      H   19    0.10296      0.00000     0.39556    0.00147     0.39704
      H   20    0.08849      0.00000     0.40976    0.00175     0.41151
      H   21    0.10517      0.00000     0.39343    0.00140     0.39483
      H   22    0.10737      0.00000     0.39111    0.00152     0.39263
      H   23    0.10618      0.00000     0.39079    0.00304     0.39382
      H   24    0.09256      0.00000     0.40590    0.00154     0.40744
      H   25    0.09468      0.00000     0.40418    0.00114     0.40532
      H   26    0.10267      0.00000     0.39632    0.00101     0.39733
      H   27    0.09570      0.00000     0.40280    0.00150     0.40430
      H   28    0.11179      0.00000     0.38639    0.00182     0.38821
      H   29    0.10717      0.00000     0.39131    0.00152     0.39283
      H   30    0.10008      0.00000     0.39905    0.00087     0.39992
      H   31    0.10659      0.00000     0.39206    0.00134     0.39341
      H   32    0.10468      0.00000     0.39416    0.00116     0.39532
      H   33    0.10232      0.00000     0.39690    0.00077     0.39768
      H   34    0.24298      0.00000     0.24805    0.00897     0.25702
      H   35    0.08944      0.00000     0.40905    0.00150     0.41056
      H   36    0.07808      0.00000     0.42048    0.00144     0.42192
      H   37    0.22950      0.00000     0.26726    0.00324     0.27050
 =======================================================================
   * Total *   -0.00000     15.99447    45.78823    0.21730    62.00000

 Normal termination of Gaussian 16 at Fri Dec 11 01:58:26 2020.
