 Gaussian 16, Revision A.03,

 -----------------------------------------------------------
 # opt freq B3LYP/6-31G(d) empiricaldispersion=gd3bj scf=xqc
 -----------------------------------------------------------

 -------------------------------
 CID_130038061_JID_1322_neutraal
 -------------------------------
 Symbolic Z-matrix:
 Charge =  0 Multiplicity = 1

 SCF Done:  E(RB3LYP) =  -501.853923889     A.U. after   14 cycles
 SCF Done:  E(RB3LYP) =  -501.857899283     A.U. after   12 cycles
 SCF Done:  E(RB3LYP) =  -501.858354964     A.U. after   11 cycles
 SCF Done:  E(RB3LYP) =  -501.858433292     A.U. after   11 cycles
 SCF Done:  E(RB3LYP) =  -501.858402798     A.U. after   10 cycles
 SCF Done:  E(RB3LYP) =  -501.858456287     A.U. after   10 cycles
 SCF Done:  E(RB3LYP) =  -501.858461556     A.U. after    8 cycles
 SCF Done:  E(RB3LYP) =  -501.858462254     A.U. after    8 cycles
 SCF Done:  E(RB3LYP) =  -501.858462496     A.U. after    8 cycles
 SCF Done:  E(RB3LYP) =  -501.858462545     A.U. after    8 cycles
 Optimization completed.
    -- Stationary point found.

 1\1\GINC-NODE112\FOpt\RB3LYP\6-31G(d)\C9H14O2\VSC10255\08-Dec-2020\0\\
 # opt freq B3LYP/6-31G(d) empiricaldispersion=gd3bj scf=xqc\\CID_13003
 8061_JID_1322_neutraal\\0,1\C,1.1467682311,0.043834755,0.0344938982\O,
 0.8953471499,-1.2966162468,-0.333082536\C,1.4620825279,-1.674913175,-1
 .5797170629\C,1.4067835919,-3.2083616657,-1.633361464\C,1.6609129629,-
 3.7880052937,-3.0536814322\C,2.2225433583,-2.6874389668,-3.9883768005\
 C,0.994001106,-1.7661892718,-4.1090171469\C,0.7579436062,-0.9969258707
 ,-2.7745414773\C,-0.150378173,-2.7744120967,-4.2875391286\O,-1.2459744

 Normal termination of Gaussian 16 at Tue Dec  8 19:41:57 2020.

 --------------------------------------------------------------------
 #N Geom=AllCheck Guess=TCheck SCRF=Check GenChk RB3LYP/6-31G(d) Freq
 --------------------------------------------------------------------

 Structure from the checkpoint file:  "JID_1322.chk"
 -------------------------------
 CID_130038061_JID_1322_neutraal
 -------------------------------
 Charge =  0 Multiplicity = 1

 SCF Done:  E(RB3LYP) =  -501.858462545     A.U. after    1 cycles

  Exact polarizability: 104.578  -1.858  90.155   2.354   0.382  82.752
 Approx polarizability: 131.536   2.365 133.501   4.496   5.159 126.657

                      1                      2                      3
                      A                      A                      A
 Frequencies --     61.4770                78.8426               112.4784
 Red. masses --      5.1053                 2.5930                 2.1408
 Frc consts  --      0.0114                 0.0095                 0.0160
 IR Inten    --      3.0952                 1.6735                 2.5351

                      4                      5                      6
                      A                      A                      A
 Frequencies --    203.8579               207.6268               260.0577
 Red. masses --      2.4574                 1.4005                 2.6019
 Frc consts  --      0.0602                 0.0356                 0.1037
 IR Inten    --      2.1546                 1.0544                 2.1002

                      7                      8                      9
                      A                      A                      A
 Frequencies --    343.6708               382.9190               409.8149
 Red. masses --      3.2488                 2.0426                 4.1541
 Frc consts  --      0.2261                 0.1765                 0.4111
 IR Inten    --      2.0413                 0.2738                 2.7340

                     10                     11                     12
                      A                      A                      A
 Frequencies --    438.3614               468.5364               476.2654
 Red. masses --      3.4798                 2.1539                 3.8574
 Frc consts  --      0.3940                 0.2786                 0.5155
 IR Inten    --      7.4087                 1.4127                 3.8555

                     13                     14                     15
                      A                      A                      A
 Frequencies --    513.6006               580.0129               657.0263
 Red. masses --      3.0040                 2.9667                 3.8894
 Frc consts  --      0.4669                 0.5880                 0.9892
 IR Inten    --      1.3599                 1.3519                 0.2573

                     16                     17                     18
                      A                      A                      A
 Frequencies --    745.6633               767.4138               823.3888
 Red. masses --      3.2982                 2.6733                 3.1991
 Frc consts  --      1.0805                 0.9276                 1.2779
 IR Inten    --      4.6935                 3.8304                 1.4240

                     19                     20                     21
                      A                      A                      A
 Frequencies --    876.0385               885.6715               897.2267
 Red. masses --      2.4778                 1.8855                 2.0731
 Frc consts  --      1.1204                 0.8714                 0.9833
 IR Inten    --      4.8277                 2.3660                 5.8302

                     22                     23                     24
                      A                      A                      A
 Frequencies --    947.9716               969.7165               975.8357
 Red. masses --      2.1248                 3.0046                 2.1613
 Frc consts  --      1.1250                 1.6646                 1.2126
 IR Inten    --      4.7946                 8.0574                 0.1178

                     25                     26                     27
                      A                      A                      A
 Frequencies --   1024.6775              1042.7698              1053.3358
 Red. masses --      1.7107                 2.4342                 1.7796
 Frc consts  --      1.0583                 1.5595                 1.1633
 IR Inten    --      4.7433                 7.3346                 7.7852

                     28                     29                     30
                      A                      A                      A
 Frequencies --   1079.2293              1110.3864              1153.2554
 Red. masses --      2.0011                 2.0764                 1.4757
 Frc consts  --      1.3732                 1.5084                 1.1564
 IR Inten    --     45.2964                 3.9970                17.6722

                     31                     32                     33
                      A                      A                      A
 Frequencies --   1157.7796              1168.9328              1186.7071
 Red. masses --      2.9528                 1.5779                 1.8748
 Frc consts  --      2.3320                 1.2703                 1.5555
 IR Inten    --    106.0638                56.0040                 8.8041

                     34                     35                     36
                      A                      A                      A
 Frequencies --   1191.8921              1214.3071              1227.7661
 Red. masses --      1.2967                 1.3534                 1.4831
 Frc consts  --      1.0853                 1.1758                 1.3172
 IR Inten    --      2.5882                 2.8764                37.5436

                     37                     38                     39
                      A                      A                      A
 Frequencies --   1236.5886              1266.1812              1304.6648
 Red. masses --      1.5082                 1.6201                 1.5496
 Frc consts  --      1.3588                 1.5303                 1.5540
 IR Inten    --      2.6952                 6.0614                 5.3136

                     40                     41                     42
                      A                      A                      A
 Frequencies --   1307.5444              1330.9260              1342.9500
 Red. masses --      1.4689                 1.4505                 1.4261
 Frc consts  --      1.4797                 1.5138                 1.5154
 IR Inten    --      0.7375                 0.9147                 0.6375

                     43                     44                     45
                      A                      A                      A
 Frequencies --   1360.4988              1364.6685              1374.9346
 Red. masses --      1.4611                 1.4233                 1.3894
 Frc consts  --      1.5934                 1.5617                 1.5475
 IR Inten    --      0.3403                 0.7001                 9.2110

                     46                     47                     48
                      A                      A                      A
 Frequencies --   1412.3380              1430.4113              1481.1426
 Red. masses --      1.3544                 1.3578                 1.0916
 Frc consts  --      1.5918                 1.6368                 1.4110
 IR Inten    --     11.1891                26.7606                 6.5561

                     49                     50                     51
                      A                      A                      A
 Frequencies --   1503.4653              1518.5323              1525.6970
 Red. masses --      1.1384                 1.0702                 1.0791
 Frc consts  --      1.5161                 1.4540                 1.4800
 IR Inten    --      1.5929                 4.6531                 3.1655

                     52                     53                     54
                      A                      A                      A
 Frequencies --   1534.5759              1539.8124              1544.1111
 Red. masses --      1.0859                 1.0588                 1.0892
 Frc consts  --      1.5067                 1.4791                 1.5301
 IR Inten    --      4.0626                10.7205                 0.3553

                     55                     56                     57
                      A                      A                      A
 Frequencies --   1849.4278              2973.2276              2994.9732
 Red. masses --     12.3686                 1.0821                 1.0419
 Frc consts  --     24.9255                 5.6360                 5.5066
 IR Inten    --    206.1562                29.3071                67.6194

                     58                     59                     60
                      A                      A                      A
 Frequencies --   3045.3494              3046.3663              3059.4854
 Red. masses --      1.0682                 1.0963                 1.0627
 Frc consts  --      5.8371                 5.9945                 5.8608
 IR Inten    --     10.2951                43.3507                35.3677

                     61                     62                     63
                      A                      A                      A
 Frequencies --   3061.2153              3062.6446              3092.4883
 Red. masses --      1.0618                 1.0656                 1.0933
 Frc consts  --      5.8626                 5.8891                 6.1601
 IR Inten    --     42.3848                16.6897                18.9105

                     64                     65                     66
                      A                      A                      A
 Frequencies --   3098.9000              3107.1342              3113.5610
 Red. masses --      1.1031                 1.0975                 1.0975
 Frc consts  --      6.2415                 6.2427                 6.2687
 IR Inten    --     12.1445                47.0906                34.1660

                     67                     68                     69
                      A                      A                      A
 Frequencies --   3114.6490              3120.1438              3135.9980
 Red. masses --      1.0924                 1.0954                 1.0973
 Frc consts  --      6.2438                 6.2828                 6.3579
 IR Inten    --     28.5032                14.9273                36.0614

 - Thermochemistry -
 -------------------
 Temperature   298.150 Kelvin.  Pressure   1.00000 Atm.
 Atom     1 has atomic number  6 and mass  12.00000

 Molecular mass:   154.09938 amu.
 Principal axes and moments of inertia in atomic units:
                           1         2         3
     Eigenvalues --   918.495862261.951432544.05976
           X            0.99925  -0.03843   0.00446
           Y            0.03859   0.99830  -0.04365
           Z           -0.00278   0.04379   0.99904
 This molecule is an asymmetric top.
 Rotational symmetry number  1.
 Warning -- assumption of classical behavior for rotation
           may cause significant error
 Rotational temperatures (Kelvin)      0.09430     0.03829     0.03405
 Rotational constants (GHZ):           1.96489     0.79787     0.70939
 Zero-point vibrational energy     579884.5 (Joules/Mol)
                                  138.59573 (Kcal/Mol)
 Warning -- explicit consideration of  14 degrees of freedom as
           vibrations may cause significant error
 Vibrational temperatures:     88.45   113.44   161.83   293.31   298.73
          (Kelvin)            374.17   494.47   550.94   589.63   630.70
                              674.12   685.24   738.96   834.51   945.31
                             1072.84  1104.14  1184.67  1260.42  1274.28
                             1290.91  1363.92  1395.21  1404.01  1474.28
                             1500.31  1515.52  1552.77  1597.60  1659.28
                             1665.79  1681.83  1707.41  1714.87  1747.12
                             1766.48  1779.18  1821.75  1877.12  1881.26
                             1914.91  1932.21  1957.45  1963.45  1978.22
                             2032.04  2058.04  2131.03  2163.15  2184.83
                             2195.14  2207.91  2215.45  2221.63  2660.91
                             4277.81  4309.10  4381.58  4383.04  4401.92
                             4404.41  4406.46  4449.40  4458.63  4470.47
                             4479.72  4481.29  4489.19  4512.00

 Zero-point correction=                           0.220866 (Hartree/Particle)
 Thermal correction to Energy=                    0.230813
 Thermal correction to Enthalpy=                  0.231757
 Thermal correction to Gibbs Free Energy=         0.185284
 Sum of electronic and zero-point Energies=           -501.637596
 Sum of electronic and thermal Energies=              -501.627649
 Sum of electronic and thermal Enthalpies=            -501.626705
 Sum of electronic and thermal Free Energies=         -501.673179

                     E (Thermal)             CV                S
                      KCal/Mol        Cal/Mol-Kelvin    Cal/Mol-Kelvin
 Total                  144.837             38.925             97.811
 Electronic               0.000              0.000              0.000
 Translational            0.889              2.981             41.007
 Rotational               0.889              2.981             30.048
 Vibrational            143.060             32.963             26.756
 Vibration     1          0.597              1.973              4.409
 Vibration     2          0.600              1.963              3.919
 Vibration     3          0.607              1.939              3.226
 Vibration     4          0.640              1.834              2.098
 Vibration     5          0.641              1.829              2.064
 Vibration     6          0.668              1.746              1.661
 Vibration     7          0.722              1.588              1.195
 Vibration     8          0.752              1.507              1.028
 Vibration     9          0.774              1.449              0.927
 Vibration    10          0.799              1.387              0.832
 Vibration    11          0.826              1.320              0.742
 Vibration    12          0.833              1.303              0.720
 Vibration    13          0.869              1.220              0.625
 Vibration    14          0.937              1.075              0.485

 Optimization completed.
    -- Stationary point found.

 1\1\GINC-NODE112\Freq\RB3LYP\6-31G(d)\C9H14O2\VSC10255\08-Dec-2020\0\\
 #N Geom=AllCheck Guess=TCheck SCRF=Check GenChk RB3LYP/6-31G(d) Freq\\
 CID_130038061_JID_1322_neutraal\\0,1\C,1.1467682311,0.043834755,0.0344
 938982\O,0.8953471499,-1.2966162468,-0.333082536\C,1.4620825279,-1.674
 913175,-1.5797170629\C,1.4067835919,-3.2083616657,-1.633361464\C,1.660
 9129629,-3.7880052937,-3.0536814322\C,2.2225433583,-2.6874389668,-3.98
 83768005\C,0.994001106,-1.7661892718,-4.1090171469\C,0.7579436062,-0.9
 969258707,-2.7745414773\C,-0.150378173,-2.7744120967,-4.2875391286\O,-

 Normal termination of Gaussian 16 at Tue Dec  8 19:47:52 2020.

 ----------------------------------------------------------------------
 # B3LYP/6-311++G(d,p) empiricaldispersion=gd3bj scf=xqc pop=npa geom=c
 heck
 ----------------------------------------------------------------------

 ---------------------------------------
 CID_130038061_JID_1322_Energie_neutraal
 ---------------------------------------
 Structure from the checkpoint file:  "JID_1322.chk"
 Charge =  0 Multiplicity = 1

 SCF Done:  E(RB3LYP) =  -502.001693398     A.U. after   13 cycles
 Normal termination of Gaussian 16 at Tue Dec  8 19:50:53 2020.

 ----------------------------------------------------------------------
 # B3LYP/6-311++G(d,p) empiricaldispersion=gd3bj scf=xqc pop=npa geom=c
 heck
 ----------------------------------------------------------------------

 -------------------------------------
 CID_130038061_JID_1322_Energie_kation
 -------------------------------------
 Structure from the checkpoint file:  "JID_1322.chk"
 Charge =  1 Multiplicity = 2

 SCF Done:  E(UB3LYP) =  -501.680947675     A.U. after   20 cycles
 Normal termination of Gaussian 16 at Tue Dec  8 19:56:06 2020.
 Gaussian 16:  ES64L-G16RevA.03 25-Dec-2016

 ------------------------------------
 CID_130038061_JID_1322_Energie_anion
 ------------------------------------
 Structure from the checkpoint file:  "JID_1322.chk"
 Charge = -1 Multiplicity = 2

                         Standard orientation:
 ---------------------------------------------------------------------
 Center     Atomic      Atomic             Coordinates (Angstroms)
 Number     Number       Type             X           Y           Z
 ---------------------------------------------------------------------
      1          6           0        3.479650   -0.581517   -0.047409
      2          8           0        2.411437    0.082260   -0.690412
      3          6           0        1.292240    0.332945    0.148009
      4          6           0        0.416553    1.354196   -0.592004
      5          6           0       -1.013279    1.490958    0.003607
      6          6           0       -1.085144    0.798346    1.387606
      7          6           0       -0.926888   -0.676700    0.973162
      8          6           0        0.537316   -0.960689    0.521753
      9          6           0       -1.833063   -0.764525   -0.263415
     10          8           0       -2.286660   -1.781322   -0.739588
     11          6           0       -2.031845    0.657152   -0.797835
     12          1           0        4.311360   -0.604932   -0.756197
     13          1           0        3.226484   -1.614833    0.230911
     14          1           0        3.799612   -0.045403    0.860931
     15          1           0        1.655377    0.796873    1.079975
     16          1           0        0.937078    2.317114   -0.580095
     17          1           0        0.363522    1.045962   -1.642820
     18          1           0       -1.302994    2.544164    0.051141
     19          1           0       -2.065355    0.969131    1.848626
     20          1           0       -0.324241    1.143788    2.093306
     21          1           0       -1.245374   -1.407065    1.720739
     22          1           0        0.540387   -1.634436   -0.343167
     23          1           0        1.069135   -1.477628    1.327352
     24          1           0       -1.914566    0.695579   -1.884673
     25          1           0       -3.061879    0.963183   -0.566871
 ---------------------------------------------------------------------

 SCF Done:  E(UB3LYP) =  -501.992330242     A.U. after   30 cycles

 The electronic state is 2-A.
 Alpha  occ. eigenvalues --  -19.02040 -18.99185 -10.13059 -10.11305 -10.10792
 Alpha  occ. eigenvalues --  -10.07046 -10.06693 -10.06105 -10.06056 -10.05988
 Alpha  occ. eigenvalues --  -10.05836  -0.93357  -0.92513  -0.75201  -0.66137
 Alpha  occ. eigenvalues --   -0.64586  -0.58788  -0.57463  -0.52570  -0.49542
 Alpha  occ. eigenvalues --   -0.43541  -0.41725  -0.40091  -0.38010  -0.35542
 Alpha  occ. eigenvalues --   -0.34906  -0.34533  -0.32604  -0.31625  -0.30630
 Alpha  occ. eigenvalues --   -0.28469  -0.27897  -0.27379  -0.26266  -0.24409
 Alpha  occ. eigenvalues --   -0.23222  -0.22631  -0.21700  -0.21299  -0.19725
 Alpha  occ. eigenvalues --   -0.15438  -0.12573   0.04461
 Alpha virt. eigenvalues --    0.06921   0.07838   0.08555   0.08873   0.09820
 Alpha virt. eigenvalues --    0.10223   0.10455   0.11642   0.12149   0.12589
 Alpha virt. eigenvalues --    0.13183   0.13641   0.15092   0.15360   0.15564

  Beta  occ. eigenvalues --  -19.02034 -18.99083 -10.12920 -10.11292 -10.10754
  Beta  occ. eigenvalues --  -10.07029 -10.06698 -10.06109 -10.06021 -10.05967
  Beta  occ. eigenvalues --  -10.05830  -0.93345  -0.92299  -0.75110  -0.66079
  Beta  occ. eigenvalues --   -0.64525  -0.58688  -0.57395  -0.52473  -0.49449
  Beta  occ. eigenvalues --   -0.43458  -0.41598  -0.40039  -0.37854  -0.35483
  Beta  occ. eigenvalues --   -0.34765  -0.34461  -0.32528  -0.31541  -0.30488
  Beta  occ. eigenvalues --   -0.28387  -0.27791  -0.27231  -0.26193  -0.24346
  Beta  occ. eigenvalues --   -0.22920  -0.22571  -0.21642  -0.21200  -0.19673
  Beta  occ. eigenvalues --   -0.15406  -0.12483
  Beta virt. eigenvalues --    0.07053   0.07917   0.08744   0.09396   0.09568
  Beta virt. eigenvalues --    0.10380   0.10673   0.10978   0.12022   0.12365
  Beta virt. eigenvalues --    0.12972   0.13581   0.14012   0.15237   0.15473

 Mulliken charges and spin densities:
               1          2
     1  C    0.910391  -1.158063
     2  O   -0.117396   0.032394
     3  C   -0.171842  -0.333586
     4  C   -0.840853   0.376397
     5  C    0.524298  -0.082572
     6  C   -0.145093  -0.558653
     7  C    0.382539   0.117732
     8  C    0.455713  -0.812375
     9  C   -0.130722  -0.118484
    10  O   -0.341801   0.054412
    11  C    0.449205  -0.964115
    12  H   -0.066305   0.197909
    13  H   -0.161513   0.295222
    14  H   -0.435571   0.561796
    15  H    0.294061  -0.116564
    16  H   -0.057911   0.223617
    17  H    0.099772   0.077108
    18  H   -0.585623   0.840220
    19  H   -0.365521   0.553458
    20  H   -0.527048   0.670446
    21  H   -0.141779   0.400956
    22  H    0.254181  -0.052289
    23  H   -0.300230   0.475152
    24  H    0.223081  -0.063511
    25  H   -0.204034   0.383394
 Sum of Mulliken charges =  -1.00000   1.00000

 Dipole moment (field-independent basis, Debye):
    X=              1.0101    Y=             -0.4665    Z=             -3.1689  Tot=              3.3586
 Quadrupole moment (field-independent basis, Debye-Ang):
   XX=           -122.6490   YY=           -108.0632   ZZ=            -99.6549
   XY=              0.6163   XZ=             -2.8036   YZ=             -3.3509

 Summary of Natural Population Analysis:

                                       Natural Population
                Natural  -----------------------------------------------
    Atom  No    Charge         Core      Valence    Rydberg      Total
 -----------------------------------------------------------------------
      C    1   -0.09706      0.99961     2.08835    0.00910     3.09706
      O    2   -0.30132      0.99988     3.29131    0.01013     4.30132
      C    3    0.06829      0.99952     1.91718    0.01501     2.93171
      C    4   -0.19519      0.99960     2.18434    0.01125     3.19519
      C    5   -0.11327      0.99961     2.10092    0.01274     3.11327
      C    6   -0.18964      0.99962     2.18056    0.00946     3.18964
      C    7   -0.15428      0.99956     2.14226    0.01246     3.15428
      C    8   -0.19828      0.99959     2.18877    0.00992     3.19828
      C    9    0.32124      0.99964     1.65600    0.02313     2.67876
      O   10   -0.28543      0.99987     3.27881    0.00676     4.28543
      C   11   -0.23997      0.99958     2.23109    0.00931     3.23997
      H   12    0.08685      0.00000     0.41222    0.00094     0.41315
      H   13    0.07974      0.00000     0.41892    0.00134     0.42026
      H   14    0.08016      0.00000     0.41808    0.00176     0.41984
      H   15    0.08092      0.00000     0.41655    0.00253     0.41908
      H   16    0.10384      0.00000     0.39487    0.00129     0.39616
      H   17    0.09938      0.00000     0.39910    0.00152     0.40062
      H   18    0.10427      0.00000     0.39340    0.00233     0.39573
      H   19    0.10276      0.00000     0.39507    0.00218     0.39724
      H   20    0.10298      0.00000     0.39562    0.00140     0.39702
      H   21    0.11211      0.00000     0.38655    0.00134     0.38789
      H   22    0.10390      0.00000     0.39486    0.00124     0.39610
      H   23    0.10531      0.00000     0.39291    0.00178     0.39469
      H   24    0.10707      0.00000     0.39204    0.00089     0.39293
      H   25    0.11562      0.00000     0.38257    0.00180     0.38438
 =======================================================================
   * Total *    0.00000     10.99606    30.85233    0.15161    42.00000

 Normal termination of Gaussian 16 at Tue Dec  8 20:04:06 2020.
