 Gaussian 16, Revision A.03,

 -----------------------------------------------------------
 # opt freq B3LYP/6-31G(d) empiricaldispersion=gd3bj scf=xqc
 -----------------------------------------------------------

 ------------------------------
 CID_71093418_JID_9437_neutraal
 ------------------------------
 Symbolic Z-matrix:
 Charge =  0 Multiplicity = 1

 SCF Done:  E(RB3LYP) =  -880.972991828     A.U. after   15 cycles
 SCF Done:  E(RB3LYP) =  -880.979152785     A.U. after   12 cycles
 SCF Done:  E(RB3LYP) =  -880.980325535     A.U. after   13 cycles
 SCF Done:  E(RB3LYP) =  -880.980529528     A.U. after   12 cycles
 SCF Done:  E(RB3LYP) =  -880.980764107     A.U. after   12 cycles
 SCF Done:  E(RB3LYP) =  -880.980603738     A.U. after   12 cycles
 SCF Done:  E(RB3LYP) =  -880.980930107     A.U. after   12 cycles
 SCF Done:  E(RB3LYP) =  -880.980968244     A.U. after   11 cycles
 SCF Done:  E(RB3LYP) =  -880.980977985     A.U. after   11 cycles
 SCF Done:  E(RB3LYP) =  -880.980981221     A.U. after    8 cycles
 SCF Done:  E(RB3LYP) =  -880.980983455     A.U. after   10 cycles
 SCF Done:  E(RB3LYP) =  -880.980983754     A.U. after    8 cycles
 SCF Done:  E(RB3LYP) =  -880.980983854     A.U. after    7 cycles
 Optimization completed.
    -- Stationary point found.
 Normal termination of Gaussian 16 at Mon Dec 14 13:24:43 2020.

 --------------------------------------------------------------------
 #N Geom=AllCheck Guess=TCheck SCRF=Check GenChk RB3LYP/6-31G(d) Freq
 --------------------------------------------------------------------

 Structure from the checkpoint file:  "JID_9437.chk"
 ------------------------------
 CID_71093418_JID_9437_neutraal
 ------------------------------
 Charge =  0 Multiplicity = 1

 SCF Done:  E(RB3LYP) =  -880.980983854     A.U. after    1 cycles

  Exact polarizability: 208.620  17.338 139.136  -6.507 -13.014 137.010
 Approx polarizability: 292.094  27.686 225.892 -17.284 -32.041 235.417

                      1                      2                      3
                      A                      A                      A
 Frequencies --     14.3286                39.1915                64.7169
 Red. masses --      4.7846                 3.8891                 5.1704
 Frc consts  --      0.0006                 0.0035                 0.0128
 IR Inten    --      0.2805                 0.1177                 0.1058

                      4                      5                      6
                      A                      A                      A
 Frequencies --     67.2918                92.2704                98.0183
 Red. masses --     11.7120                 4.2647                 3.9718
 Frc consts  --      0.0312                 0.0214                 0.0225
 IR Inten    --      0.4604                 3.1732                 2.1603

                      7                      8                      9
                      A                      A                      A
 Frequencies --    137.2532               185.8649               209.3692
 Red. masses --      4.9697                 4.8592                 2.0114
 Frc consts  --      0.0552                 0.0989                 0.0519
 IR Inten    --      0.3077                 1.6686                 0.0798

                     10                     11                     12
                      A                      A                      A
 Frequencies --    242.8579               244.0807               282.3371
 Red. masses --      4.5654                 4.2848                 4.2775
 Frc consts  --      0.1586                 0.1504                 0.2009
 IR Inten    --      0.0771                 2.8136                 0.5736

                     13                     14                     15
                      A                      A                      A
 Frequencies --    285.9452               316.9683               350.7074
 Red. masses --      1.6906                 4.5886                 5.0584
 Frc consts  --      0.0814                 0.2716                 0.3666
 IR Inten    --      0.0619                 2.6230                26.2651

                     16                     17                     18
                      A                      A                      A
 Frequencies --    378.2036               384.5779               418.3896
 Red. masses --      5.8753                 3.4803                 3.0867
 Frc consts  --      0.4951                 0.3033                 0.3184
 IR Inten    --      4.8649                19.0916                 0.3335

                     19                     20                     21
                      A                      A                      A
 Frequencies --    455.5199               462.2471               476.7304
 Red. masses --      2.3432                 3.8141                 1.9274
 Frc consts  --      0.2865                 0.4802                 0.2581
 IR Inten    --     15.8515                 9.2145                32.7497

                     22                     23                     24
                      A                      A                      A
 Frequencies --    512.6512               537.4622               575.2940
 Red. masses --      3.7454                 3.9612                 3.8153
 Frc consts  --      0.5799                 0.6742                 0.7440
 IR Inten    --      7.3773                 3.0022                14.6976

                     25                     26                     27
                      A                      A                      A
 Frequencies --    587.3860               634.3357               637.4849
 Red. masses --      2.8168                 4.8008                 6.0605
 Frc consts  --      0.5726                 1.1382                 1.4511
 IR Inten    --     13.6650                 3.5839                 0.6526

                     28                     29                     30
                      A                      A                      A
 Frequencies --    654.9978               667.8455               712.2912
 Red. masses --      2.5132                 4.4992                 2.4360
 Frc consts  --      0.6353                 1.1823                 0.7282
 IR Inten    --     71.5923                40.8347                27.2562

                     31                     32                     33
                      A                      A                      A
 Frequencies --    715.0952               720.9395               754.3009
 Red. masses --      3.5664                 2.2255                 4.2038
 Frc consts  --      1.0745                 0.6815                 1.4092
 IR Inten    --      9.3584                47.4585                47.1874

                     34                     35                     36
                      A                      A                      A
 Frequencies --    772.4293               802.7562               855.6402
 Red. masses --      1.9561                 1.4720                 4.9761
 Frc consts  --      0.6876                 0.5589                 2.1465
 IR Inten    --     31.1362                22.3151                11.2317

                     37                     38                     39
                      A                      A                      A
 Frequencies --    869.4397               886.1632               902.3761
 Red. masses --      1.2462                 1.4792                 1.4074
 Frc consts  --      0.5550                 0.6844                 0.6752
 IR Inten    --      0.2885                14.4617                 2.7471

                     40                     41                     42
                      A                      A                      A
 Frequencies --    941.3273               971.6670               979.3503
 Red. masses --      1.4590                 1.3093                 2.7655
 Frc consts  --      0.7617                 0.7283                 1.5628
 IR Inten    --      3.1965                 0.6379                 9.3242

                     43                     44                     45
                      A                      A                      A
 Frequencies --    981.3235               998.2916              1007.2907
 Red. masses --      1.6047                 1.7154                 2.1414
 Frc consts  --      0.9105                 1.0073                 1.2801
 IR Inten    --      2.8508                 3.5683                 6.0120

                     46                     47                     48
                      A                      A                      A
 Frequencies --   1019.8687              1023.6568              1065.6896
 Red. masses --      5.9784                 6.0600                 2.2211
 Frc consts  --      3.6637                 3.7414                 1.4862
 IR Inten    --      3.1860                 1.7883                 3.7434

                     49                     50                     51
                      A                      A                      A
 Frequencies --   1086.2559              1090.8311              1118.4709
 Red. masses --      4.5206                 3.0365                 1.5849
 Frc consts  --      3.1428                 2.1288                 1.1682
 IR Inten    --     31.4901                78.1418                 2.4614

                     52                     53                     54
                      A                      A                      A
 Frequencies --   1139.5330              1177.3564              1186.8202
 Red. masses --      2.1188                 2.1578                 1.2718
 Frc consts  --      1.6211                 1.7623                 1.0555
 IR Inten    --     18.8992               198.4746                 0.6260

                     55                     56                     57
                      A                      A                      A
 Frequencies --   1194.6188              1202.0734              1212.8597
 Red. masses --      1.1024                 1.1447                 2.0325
 Frc consts  --      0.9269                 0.9746                 1.7616
 IR Inten    --      0.6095                 2.9426                48.6746

                     58                     59                     60
                      A                      A                      A
 Frequencies --   1217.3262              1222.1149              1228.3718
 Red. masses --      1.9100                 1.4362                 1.9392
 Frc consts  --      1.6676                 1.2638                 1.7240
 IR Inten    --     34.9369                 2.3775                 0.8458

                     61                     62                     63
                      A                      A                      A
 Frequencies --   1305.3404              1335.1307              1347.3211
 Red. masses --      4.1710                 1.5834                 2.5558
 Frc consts  --      4.1874                 1.6629                 2.7335
 IR Inten    --    197.0796                 0.8534                 5.5895

                     64                     65                     66
                      A                      A                      A
 Frequencies --   1366.6791              1379.7096              1382.0556
 Red. masses --      2.3572                 1.6880                 4.0272
 Frc consts  --      2.5941                 1.8932                 4.5321
 IR Inten    --     21.2158                45.8954                41.6638

                     67                     68                     69
                      A                      A                      A
 Frequencies --   1432.9454              1479.2542              1497.6705
 Red. masses --      1.6754                 2.0755                 2.2248
 Frc consts  --      2.0268                 2.6759                 2.9401
 IR Inten    --     28.9979                66.4728                10.4985

                     70                     71                     72
                      A                      A                      A
 Frequencies --   1508.5372              1520.7276              1533.8491
 Red. masses --      1.5001                 1.0475                 1.1843
 Frc consts  --      2.0114                 1.4273                 1.6416
 IR Inten    --      3.4085                 5.5730                82.6675

                     73                     74                     75
                      A                      A                      A
 Frequencies --   1544.8335              1548.0760              1644.7945
 Red. masses --      2.1293                 1.9510                 5.6249
 Frc consts  --      2.9941                 2.7548                 8.9657
 IR Inten    --     17.1066                29.3350                 0.5978

                     76                     77                     78
                      A                      A                      A
 Frequencies --   1654.3757              1661.5101              1665.0721
 Red. masses --      6.1665                 5.7360                 5.5366
 Frc consts  --      9.9439                 9.3296                 9.0439
 IR Inten    --     28.7863                91.6224                16.4202

                     79                     80                     81
                      A                      A                      A
 Frequencies --   1823.7968              3027.2035              3086.1206
 Red. masses --     10.0310                 1.0346                 1.1065
 Frc consts  --     19.6584                 5.5862                 6.2088
 IR Inten    --    262.0241                47.8473                40.0749

                     82                     83                     84
                      A                      A                      A
 Frequencies --   3158.3535              3184.2740              3192.6214
 Red. masses --      1.1001                 1.0853                 1.0878
 Frc consts  --      6.4656                 6.4839                 6.5330
 IR Inten    --     31.9057                 0.0715                11.9110

                     85                     86                     87
                      A                      A                      A
 Frequencies --   3194.3173              3208.0223              3217.9399
 Red. masses --      1.0899                 1.0953                 1.0932
 Frc consts  --      6.5524                 6.6412                 6.6697
 IR Inten    --     19.9158                32.8447                11.6923

                     88                     89                     90
                      A                      A                      A
 Frequencies --   3225.3923              3234.3614              3235.5007
 Red. masses --      1.0921                 1.0920                 1.0920
 Frc consts  --      6.6942                 6.7306                 6.7350
 IR Inten    --      4.6606                 4.8318                 3.7570

                     91                     92                     93
                      A                      A                      A
 Frequencies --   3256.6098              3652.2655              3672.4369
 Red. masses --      1.0888                 1.0647                 1.0640
 Frc consts  --      6.8033                 8.3678                 8.4545
 IR Inten    --      4.5036                83.0640                60.1710

 - Thermochemistry -
 -------------------
 Temperature   298.150 Kelvin.  Pressure   1.00000 Atm.
 Atom     1 has atomic number  6 and mass  12.00000

 Molecular mass:   258.08921 amu.
 Principal axes and moments of inertia in atomic units:
                           1         2         3
     Eigenvalues --  2754.046527288.096428033.64594
           X            0.99987   0.01467  -0.00700
           Y           -0.01490   0.99933  -0.03349
           Z            0.00650   0.03359   0.99941
 This molecule is an asymmetric top.
 Rotational symmetry number  1.
 Warning -- assumption of classical behavior for rotation
           may cause significant error
 Rotational temperatures (Kelvin)      0.03145     0.01188     0.01078
 Rotational constants (GHZ):           0.65531     0.24763     0.22465
 Zero-point vibrational energy     689335.9 (Joules/Mol)
                                  164.75522 (Kcal/Mol)
 Warning -- explicit consideration of  25 degrees of freedom as
           vibrations may cause significant error
 Vibrational temperatures:     20.62    56.39    93.11    96.82   132.76
          (Kelvin)            141.03   197.48   267.42   301.24   349.42
                              351.18   406.22   411.41   456.05   504.59
                              544.15   553.32   601.97   655.39   665.07
                              685.91   737.59   773.29   827.72   845.12
                              912.67   917.20   942.40   960.88  1024.83
                             1028.86  1037.27  1085.27  1111.35  1154.99
                             1231.08  1250.93  1274.99  1298.32  1354.36
                             1398.01  1409.07  1411.91  1436.32  1449.27
                             1467.36  1472.81  1533.29  1562.88  1569.46
                             1609.23  1639.53  1693.95  1707.57  1718.79
                             1729.52  1745.03  1751.46  1758.35  1767.35
                             1878.09  1920.96  1938.49  1966.35  1985.09
                             1988.47  2061.69  2128.32  2154.81  2170.45
                             2187.99  2206.87  2222.67  2227.34  2366.49
                             2380.28  2390.54  2395.67  2624.04  4355.47
                             4440.24  4544.17  4581.46  4593.47  4595.91
                             4615.63  4629.90  4640.62  4653.52  4655.16
                             4685.54  5254.80  5283.82

 Zero-point correction=                           0.262554 (Hartree/Particle)
 Thermal correction to Energy=                    0.279152
 Thermal correction to Enthalpy=                  0.280096
 Thermal correction to Gibbs Free Energy=         0.216828
 Sum of electronic and zero-point Energies=           -880.718430
 Sum of electronic and thermal Energies=              -880.701832
 Sum of electronic and thermal Enthalpies=            -880.700888
 Sum of electronic and thermal Free Energies=         -880.764156

                     E (Thermal)             CV                S
                      KCal/Mol        Cal/Mol-Kelvin    Cal/Mol-Kelvin
 Total                  175.170             64.484            133.158
 Electronic               0.000              0.000              0.000
 Translational            0.889              2.981             42.544
 Rotational               0.889              2.981             33.444
 Vibrational            173.393             58.523             57.169
 Vibration     1          0.593              1.986              7.297
 Vibration     2          0.594              1.981              5.300
 Vibration     3          0.597              1.971              4.308
 Vibration     4          0.598              1.970              4.231
 Vibration     5          0.602              1.955              3.611
 Vibration     6          0.603              1.951              3.493
 Vibration     7          0.614              1.916              2.842
 Vibration     8          0.632              1.859              2.269
 Vibration     9          0.642              1.826              2.049
 Vibration    10          0.659              1.775              1.782
 Vibration    11          0.659              1.773              1.773
 Vibration    12          0.681              1.706              1.519
 Vibration    13          0.684              1.700              1.498
 Vibration    14          0.704              1.641              1.326
 Vibration    15          0.728              1.574              1.163
 Vibration    16          0.748              1.517              1.046
 Vibration    17          0.754              1.503              1.021
 Vibration    18          0.781              1.430              0.897
 Vibration    19          0.814              1.349              0.779
 Vibration    20          0.820              1.334              0.760
 Vibration    21          0.833              1.302              0.719
 Vibration    22          0.868              1.222              0.627
 Vibration    23          0.892              1.167              0.571
 Vibration    24          0.932              1.085              0.494
 Vibration    25          0.945              1.059              0.472

 Optimization completed.
    -- Stationary point found.
 Normal termination of Gaussian 16 at Mon Dec 14 13:42:47 2020.

 ----------------------------------------------------------------------
 # B3LYP/6-311++G(d,p) empiricaldispersion=gd3bj scf=xqc pop=npa geom=c
 heck
 ----------------------------------------------------------------------

 --------------------------------------
 CID_71093418_JID_9437_Energie_neutraal
 --------------------------------------
 Structure from the checkpoint file:  "JID_9437.chk"
 Charge =  0 Multiplicity = 1

 SCF Done:  E(RB3LYP) =  -881.236962044     A.U. after   15 cycles
 Normal termination of Gaussian 16 at Mon Dec 14 13:50:18 2020.

 ----------------------------------------------------------------------
 # B3LYP/6-311++G(d,p) empiricaldispersion=gd3bj scf=xqc pop=npa geom=c
 heck
 ----------------------------------------------------------------------

 ------------------------------------
 CID_71093418_JID_9437_Energie_kation
 ------------------------------------
 Structure from the checkpoint file:  "JID_9437.chk"
 Charge =  1 Multiplicity = 2

 SCF Done:  E(UB3LYP) =  -880.945204272     A.U. after   29 cycles
 Normal termination of Gaussian 16 at Mon Dec 14 14:10:39 2020.
 Gaussian 16:  ES64L-G16RevA.03 25-Dec-2016

 ----------------------------------------------------------------------
 # B3LYP/6-311++G(d,p) empiricaldispersion=gd3bj scf=xqc pop=npa geom=c
 heck
 ----------------------------------------------------------------------

 -----------------------------------
 CID_71093418_JID_9437_Energie_anion
 -----------------------------------
 Structure from the checkpoint file:  "JID_9437.chk"
 Charge = -1 Multiplicity = 2

                         Standard orientation:
 ---------------------------------------------------------------------
 Center     Atomic      Atomic             Coordinates (Angstroms)
 Number     Number       Type             X           Y           Z
 ---------------------------------------------------------------------
      1          6           0        4.589962    0.670075   -1.124958
      2          8           0        4.321533   -0.502856   -0.374865
      3          6           0        3.027638   -0.744778   -0.012775
      4          6           0        2.808776   -1.923173    0.714549
      5          6           0        1.520852   -2.249398    1.116306
      6          6           0        0.439837   -1.418135    0.807119
      7          6           0        0.660259   -0.246191    0.087539
      8          6           0        1.955618    0.093338   -0.324449
      9          6           0       -0.469847    0.735315   -0.241308
     10          6           0       -1.854250    0.064684   -0.285905
     11          6           0       -2.322286   -0.384959   -1.525130
     12          6           0       -3.553815   -1.029478   -1.623682
     13          6           0       -4.336673   -1.230187   -0.485638
     14          6           0       -3.876239   -0.782569    0.751664
     15          6           0       -2.641494   -0.139127    0.853166
     16          6           0       -0.490584    1.890629    0.781200
     17          8           0       -0.629516    3.049184    0.445906
     18          8           0       -0.355078    1.510324    2.062528
     19          8           0       -0.174214    1.338392   -1.492117
     20          1           0        5.665430    0.667718   -1.310322
     21          1           0        4.318538    1.575979   -0.566969
     22          1           0        4.054004    0.666720   -2.082918
     23          1           0        3.657091   -2.560487    0.941792
     24          1           0        1.350080   -3.166336    1.673352
     25          1           0       -0.560740   -1.690252    1.119684
     26          1           0        2.092275    0.996085   -0.903511
     27          1           0       -1.712663   -0.216802   -2.405008
     28          1           0       -3.902995   -1.374332   -2.593037
     29          1           0       -5.298028   -1.730047   -0.563381
     30          1           0       -4.477468   -0.930786    1.644404
     31          1           0       -2.292464    0.195463    1.823563
     32          1           0       -0.413408    2.324314    2.599014
     33          1           0       -0.527971    2.246157   -1.434472
 ---------------------------------------------------------------------

 SCF Done:  E(UB3LYP) =  -881.228082209     A.U. after   33 cycles
 SCF Done:  E(UB3LYP) =  -881.228082209     a.u. after    1 cycles

 The electronic state is 2-A.
 Alpha  occ. eigenvalues --  -19.07922 -19.06232 -19.03275 -19.03122 -10.21707
 Alpha  occ. eigenvalues --  -10.16205 -10.13794 -10.13354 -10.09386 -10.08743
 Alpha  occ. eigenvalues --  -10.08412 -10.08293 -10.08155 -10.07922 -10.07917
 Alpha  occ. eigenvalues --  -10.07889 -10.07190 -10.07114 -10.06916  -1.02545
 Alpha  occ. eigenvalues --   -0.97807  -0.95217  -0.92654  -0.76989  -0.75902
 Alpha  occ. eigenvalues --   -0.69750  -0.66033  -0.65526  -0.65469  -0.61706
 Alpha  occ. eigenvalues --   -0.59826  -0.54000  -0.51568  -0.51375  -0.50487
 Alpha  occ. eigenvalues --   -0.48021  -0.45160  -0.43930  -0.42842  -0.40233
 Alpha  occ. eigenvalues --   -0.39607  -0.39051  -0.38003  -0.37549  -0.36771
 Alpha  occ. eigenvalues --   -0.36237  -0.35358  -0.33571  -0.33248  -0.32533
 Alpha  occ. eigenvalues --   -0.32325  -0.31610  -0.28794  -0.28419  -0.27564
 Alpha  occ. eigenvalues --   -0.27143  -0.26703  -0.26089  -0.24792  -0.24009
 Alpha  occ. eigenvalues --   -0.23627  -0.23110  -0.20704  -0.19941  -0.16478
 Alpha  occ. eigenvalues --   -0.16004  -0.15497  -0.12999   0.04108
 Alpha virt. eigenvalues --    0.05833   0.06267   0.06656   0.07148   0.07698
 Alpha virt. eigenvalues --    0.07800   0.07978   0.08454   0.09041   0.09268
 Alpha virt. eigenvalues --    0.10011   0.10347   0.10501   0.10842   0.11647

  Beta  occ. eigenvalues --  -19.07847 -19.06232 -19.03271 -19.03100 -10.21671
  Beta  occ. eigenvalues --  -10.16196 -10.13806 -10.13328 -10.09384 -10.08686
  Beta  occ. eigenvalues --  -10.08411 -10.08259 -10.08117 -10.07911 -10.07887
  Beta  occ. eigenvalues --  -10.07868 -10.07127 -10.07083 -10.06914  -1.02435
  Beta  occ. eigenvalues --   -0.97804  -0.95164  -0.92598  -0.76928  -0.75835
  Beta  occ. eigenvalues --   -0.69669  -0.65979  -0.65444  -0.65401  -0.61632
  Beta  occ. eigenvalues --   -0.59748  -0.53868  -0.51512  -0.51272  -0.50431
  Beta  occ. eigenvalues --   -0.47968  -0.45107  -0.43874  -0.42802  -0.40180
  Beta  occ. eigenvalues --   -0.39560  -0.39010  -0.37979  -0.37490  -0.36681
  Beta  occ. eigenvalues --   -0.36190  -0.35315  -0.33531  -0.33207  -0.32486
  Beta  occ. eigenvalues --   -0.32271  -0.31551  -0.28688  -0.28362  -0.27475
  Beta  occ. eigenvalues --   -0.27101  -0.26657  -0.26052  -0.24759  -0.23959
  Beta  occ. eigenvalues --   -0.23546  -0.23026  -0.20655  -0.19891  -0.16275
  Beta  occ. eigenvalues --   -0.15903  -0.15244  -0.12832
  Beta virt. eigenvalues --    0.06159   0.06453   0.06912   0.07110   0.07588
  Beta virt. eigenvalues --    0.07987   0.08109   0.08457   0.08753   0.09300
  Beta virt. eigenvalues --    0.09638   0.09953   0.10456   0.10777   0.11030

 Mulliken charges and spin densities:
               1          2
     1  C    0.322217  -0.709644
     2  O   -0.176277   0.018544
     3  C   -2.449370   1.221331
     4  C   -0.096621   0.193807
     5  C   -0.553443   0.309089
     6  C   -0.419388  -0.051639
     7  C    2.318653  -1.441665
     8  C    1.176654  -0.685509
     9  C    1.295930  -1.296587
    10  C    0.390710   0.365376
    11  C   -0.695608   0.560522
    12  C   -0.310441  -0.066843
    13  C    0.204969  -0.615097
    14  C   -0.220139   0.019814
    15  C   -0.918539   0.436182
    16  C    0.311058  -0.599505
    17  O   -0.307052   0.078406
    18  O   -0.209560   0.096523
    19  O   -0.195757  -0.000571
    20  H   -0.272732   0.443195
    21  H   -0.169520   0.332069
    22  H   -0.008332   0.159826
    23  H    0.148697   0.003671
    24  H    0.021410   0.135911
    25  H    0.285236  -0.132409
    26  H    0.473203  -0.208931
    27  H    0.072861   0.121988
    28  H    0.005972   0.150960
    29  H   -0.186779   0.327480
    30  H   -0.494009   0.673756
    31  H    0.076233   0.147113
    32  H   -0.547567   0.871191
    33  H    0.127329   0.141648
 Sum of Mulliken charges =  -1.00000   1.00000

 Dipole moment (field-independent basis, Debye):
    X=              0.7987    Y=             -3.3217    Z=             -3.5443  Tot=              4.9228
 Quadrupole moment (field-independent basis, Debye-Ang):
   XX=           -183.2633   YY=           -150.2319   ZZ=           -147.8907
   XY=             -3.9192   XZ=              7.4222   YZ=             -9.8103

 Summary of Natural Population Analysis:

                                       Natural Population
                Natural  -----------------------------------------------
    Atom  No    Charge         Core      Valence    Rydberg      Total
 -----------------------------------------------------------------------
      C    1   -0.10189      0.99960     2.09325    0.00904     3.10189
      O    2   -0.27546      0.99985     3.26605    0.00956     4.27546
      C    3    0.15950      0.99938     1.82755    0.01357     2.84050
      C    4   -0.11240      0.99952     2.10375    0.00913     3.11240
      C    5   -0.09119      0.99957     2.08290    0.00871     3.09119
      C    6   -0.11009      0.99950     2.10171    0.00888     3.11009
      C    7   -0.00259      0.99948     1.99086    0.01225     3.00259
      C    8   -0.13492      0.99946     2.12717    0.00829     3.13492
      C    9    0.08721      0.99942     1.89430    0.01907     2.91279
      C   10   -0.02307      0.99948     2.01067    0.01293     3.02307
      C   11   -0.09274      0.99950     2.08461    0.00864     3.09274
      C   12   -0.09579      0.99956     2.08694    0.00929     3.09579
      C   13   -0.10697      0.99956     2.09715    0.01026     3.10697
      C   14   -0.09430      0.99956     2.08452    0.01021     3.09430
      C   15   -0.10238      0.99950     2.09307    0.00981     3.10238
      C   16    0.41536      0.99966     1.55800    0.02698     2.58464
      O   17   -0.31218      0.99986     3.30561    0.00670     4.31218
      O   18   -0.33391      0.99987     3.32610    0.00795     4.33391
      O   19   -0.37098      0.99989     3.36501    0.00608     4.37098
      H   20    0.09178      0.00000     0.40722    0.00101     0.40822
      H   21    0.08755      0.00000     0.41106    0.00139     0.41245
      H   22    0.08455      0.00000     0.41432    0.00113     0.41545
      H   23    0.10235      0.00000     0.39665    0.00100     0.39765
      H   24    0.09808      0.00000     0.40119    0.00072     0.40192
      H   25    0.10759      0.00000     0.39086    0.00155     0.39241
      H   26    0.11445      0.00000     0.38379    0.00176     0.38555
      H   27    0.11146      0.00000     0.38744    0.00110     0.38854
      H   28    0.09820      0.00000     0.40105    0.00075     0.40180
      H   29    0.09968      0.00000     0.39945    0.00088     0.40032
      H   30    0.10156      0.00000     0.39729    0.00115     0.39844
      H   31    0.11208      0.00000     0.38597    0.00195     0.38792
      H   32    0.24827      0.00000     0.22292    0.02881     0.25173
      H   33    0.24124      0.00000     0.25585    0.00291     0.25876
 =======================================================================
   * Total *    0.00000     18.99226    48.75430    0.25344    68.00000

 Normal termination of Gaussian 16 at Mon Dec 14 14:34:24 2020.
