 Gaussian 16, Revision A.03,

 -----------------------------------------------------------
 # opt freq B3LYP/6-31G(d) empiricaldispersion=gd3bj scf=xqc
 -----------------------------------------------------------

 -------------------------------
 CID_80412959_JID_10057_neutraal
 -------------------------------
 Symbolic Z-matrix:
 Charge =  0 Multiplicity = 1

 SCF Done:  E(RB3LYP) =  -880.555639098     A.U. after   15 cycles
 SCF Done:  E(RB3LYP) =  -880.561702308     A.U. after   12 cycles
 SCF Done:  E(RB3LYP) =  -880.562084001     A.U. after   12 cycles
 SCF Done:  E(RB3LYP) =  -880.562629885     A.U. after   12 cycles
 SCF Done:  E(RB3LYP) =  -880.562668237     A.U. after   11 cycles
 SCF Done:  E(RB3LYP) =  -880.562811126     A.U. after   11 cycles
 SCF Done:  E(RB3LYP) =  -880.562865572     A.U. after   10 cycles
 SCF Done:  E(RB3LYP) =  -880.562883458     A.U. after   10 cycles
 SCF Done:  E(RB3LYP) =  -880.562886043     A.U. after    8 cycles
 SCF Done:  E(RB3LYP) =  -880.562886911     A.U. after    8 cycles
 SCF Done:  E(RB3LYP) =  -880.562887407     A.U. after    7 cycles
 SCF Done:  E(RB3LYP) =  -880.562887449     A.U. after    7 cycles
 SCF Done:  E(RB3LYP) =  -880.562887482     A.U. after    7 cycles
 SCF Done:  E(RB3LYP) =  -880.562887494     A.U. after    7 cycles
 SCF Done:  E(RB3LYP) =  -880.562887493     A.U. after    7 cycles
 Optimization completed.
    -- Stationary point found.
 Normal termination of Gaussian 16 at Mon Dec 14 17:30:07 2020.

 --------------------------------------------------------------------
 #N Geom=AllCheck Guess=TCheck SCRF=Check GenChk RB3LYP/6-31G(d) Freq
 --------------------------------------------------------------------

 Structure from the checkpoint file:  "JID_10057.chk"
 -------------------------------
 CID_80412959_JID_10057_neutraal
 -------------------------------
 Charge =  0 Multiplicity = 1

 SCF Done:  E(RB3LYP) =  -880.562887493     A.U. after    1 cycles

  Exact polarizability: 222.436  -3.578 181.301  20.718  -2.723 143.378
 Approx polarizability: 309.521 -20.851 307.826  50.407 -13.180 228.770

                      1                      2                      3
                      A                      A                      A
 Frequencies --     22.2077                29.9210                52.1289
 Red. masses --      4.8542                 4.2979                 4.6076
 Frc consts  --      0.0014                 0.0023                 0.0074
 IR Inten    --      0.0279                 0.1971                 2.6210

                      4                      5                      6
                      A                      A                      A
 Frequencies --     76.0345                81.8976                85.7447
 Red. masses --      4.1823                 3.2649                 2.7126
 Frc consts  --      0.0142                 0.0129                 0.0118
 IR Inten    --      3.9654                 1.7422                 1.0469

                      7                      8                      9
                      A                      A                      A
 Frequencies --    100.7883               126.8159               141.3106
 Red. masses --      1.5573                 3.4582                 2.1886
 Frc consts  --      0.0093                 0.0328                 0.0257
 IR Inten    --      0.1175                 3.0101                 0.5566

                     10                     11                     12
                      A                      A                      A
 Frequencies --    166.1110               180.6203               219.0430
 Red. masses --      2.6864                 4.0820                 4.1209
 Frc consts  --      0.0437                 0.0785                 0.1165
 IR Inten    --      2.6926                 1.0822                 1.6136

                     13                     14                     15
                      A                      A                      A
 Frequencies --    221.1664               257.7510               279.8550
 Red. masses --      1.8760                 2.0700                 2.2225
 Frc consts  --      0.0541                 0.0810                 0.1026
 IR Inten    --      0.5113                31.7706                15.0634

                     16                     17                     18
                      A                      A                      A
 Frequencies --    285.2255               297.5886               311.8028
 Red. masses --      1.9374                 2.1616                 3.0657
 Frc consts  --      0.0929                 0.1128                 0.1756
 IR Inten    --      2.8563                 8.0275                25.6791

                     19                     20                     21
                      A                      A                      A
 Frequencies --    352.1213               371.7671               420.3862
 Red. masses --      3.9252                 4.2210                 5.0540
 Frc consts  --      0.2867                 0.3437                 0.5262
 IR Inten    --      2.6663                 1.7661                 6.3364

                     22                     23                     24
                      A                      A                      A
 Frequencies --    429.6033               459.3865               474.2140
 Red. masses --      5.2594                 4.7462                 3.1834
 Frc consts  --      0.5719                 0.5901                 0.4218
 IR Inten    --      1.1357                 1.7713                 2.0071

                     25                     26                     27
                      A                      A                      A
 Frequencies --    506.9428               532.7344               571.7605
 Red. masses --      4.2032                 4.6860                 4.4570
 Frc consts  --      0.6364                 0.7836                 0.8585
 IR Inten    --      6.9577                 9.2667                 6.5061

                     28                     29                     30
                      A                      A                      A
 Frequencies --    578.6855               593.6108               617.9328
 Red. masses --      4.7697                 4.6239                 4.8633
 Frc consts  --      0.9411                 0.9600                 1.0941
 IR Inten    --      4.7244                12.2198                 5.0116

                     31                     32                     33
                      A                      A                      A
 Frequencies --    670.5242               695.8563               713.8343
 Red. masses --      6.5450                 2.7841                 4.9016
 Frc consts  --      1.7338                 0.7943                 1.4716
 IR Inten    --      8.1582                 5.2744                 6.4620

                     34                     35                     36
                      A                      A                      A
 Frequencies --    748.6966               758.6459               787.8924
 Red. masses --      2.3794                 2.2886                 1.7010
 Frc consts  --      0.7858                 0.7761                 0.6221
 IR Inten    --     13.5257                57.9982                 5.4914

                     37                     38                     39
                      A                      A                      A
 Frequencies --    795.8079               802.1643               834.5231
 Red. masses --      3.7085                 2.1811                 5.0375
 Frc consts  --      1.3838                 0.8269                 2.0670
 IR Inten    --      6.5888                21.7576                32.8082

                     40                     41                     42
                      A                      A                      A
 Frequencies --    878.9777               885.4789               895.2312
 Red. masses --      1.2657                 1.4241                 1.4079
 Frc consts  --      0.5762                 0.6579                 0.6648
 IR Inten    --     79.0474                 2.8209                39.0155

                     43                     44                     45
                      A                      A                      A
 Frequencies --    912.7033               932.9976               958.5218
 Red. masses --      1.4912                 3.4084                 1.3353
 Frc consts  --      0.7319                 1.7481                 0.7228
 IR Inten    --     14.9174                 8.1024                 4.4529

                     46                     47                     48
                      A                      A                      A
 Frequencies --    960.8797               994.5626              1017.6177
 Red. masses --      1.2669                 1.2724                 1.9481
 Frc consts  --      0.6892                 0.7415                 1.1886
 IR Inten    --      0.5945                 1.7016                21.1276

                     49                     50                     51
                      A                      A                      A
 Frequencies --   1018.5692              1047.8796              1070.8884
 Red. masses --      4.7347                 5.0512                 2.9009
 Frc consts  --      2.8942                 3.2679                 1.9601
 IR Inten    --      0.5321                20.1819                 8.3771

                     52                     53                     54
                      A                      A                      A
 Frequencies --   1078.7825              1094.9631              1121.2414
 Red. masses --      2.0283                 2.7896                 2.0729
 Frc consts  --      1.3908                 1.9706                 1.5354
 IR Inten    --     11.5164                70.9361                24.6526

                     55                     56                     57
                      A                      A                      A
 Frequencies --   1131.9903              1147.7052              1158.3519
 Red. masses --      1.7626                 1.7304                 1.4111
 Frc consts  --      1.3307                 1.3430                 1.1156
 IR Inten    --      5.9057                38.1724                 0.5570

                     58                     59                     60
                      A                      A                      A
 Frequencies --   1186.6616              1186.9835              1190.0054
 Red. masses --      1.2936                 1.4430                 1.5237
 Frc consts  --      1.0732                 1.1978                 1.2713
 IR Inten    --      3.3552                10.5608                 5.8123

                     61                     62                     63
                      A                      A                      A
 Frequencies --   1194.2731              1210.6448              1223.3077
 Red. masses --      1.1155                 1.1798                 1.4579
 Frc consts  --      0.9374                 1.0188                 1.2854
 IR Inten    --      0.5974                 0.2243                 0.3750

                     64                     65                     66
                      A                      A                      A
 Frequencies --   1230.3573              1289.7437              1300.3869
 Red. masses --      1.9177                 2.5286                 1.9669
 Frc consts  --      1.7104                 2.4782                 1.9597
 IR Inten    --      0.6369                43.0823                74.3850

                     67                     68                     69
                      A                      A                      A
 Frequencies --   1325.4038              1332.6909              1341.6906
 Red. masses --      2.1765                 1.6742                 3.2689
 Frc consts  --      2.2527                 1.7520                 3.4670
 IR Inten    --      5.6055               104.5201                95.5636

                     70                     71                     72
                      A                      A                      A
 Frequencies --   1365.8123              1374.5072              1381.1536
 Red. masses --      2.0138                 5.3902                 4.8283
 Frc consts  --      2.2133                 5.9999                 5.4266
 IR Inten    --     18.0105               127.2600               275.1410

                     73                     74                     75
                      A                      A                      A
 Frequencies --   1441.8256              1474.5547              1487.6568
 Red. masses --      1.4793                 1.2200                 2.0548
 Frc consts  --      1.8119                 1.5629                 2.6793
 IR Inten    --     20.9274                 6.7158               113.3288

                     76                     77                     78
                      A                      A                      A
 Frequencies --   1500.5287              1504.6358              1510.1423
 Red. masses --      2.0699                 1.4552                 1.1755
 Frc consts  --      2.7460                 1.9411                 1.5794
 IR Inten    --      7.4273                15.6503                 7.4125

                     79                     80                     81
                      A                      A                      A
 Frequencies --   1521.5603              1528.0005              1536.5959
 Red. masses --      1.0478                 1.4261                 1.1137
 Frc consts  --      1.4292                 1.9618                 1.5493
 IR Inten    --      5.3938                24.8870                25.9437

                     82                     83                     84
                      A                      A                      A
 Frequencies --   1538.1797              1540.1108              1545.4272
 Red. masses --      1.5134                 1.4046                 1.6141
 Frc consts  --      2.1096                 1.9629                 2.2713
 IR Inten    --      6.9206                22.3252                35.8683

                     85                     86                     87
                      A                      A                      A
 Frequencies --   1637.6750              1641.3077              1661.6661
 Red. masses --      6.0445                 5.5791                 5.4694
 Frc consts  --      9.5513                 8.8551                 8.8977
 IR Inten    --     45.7520                49.4933                 2.4795

                     88                     89                     90
                      A                      A                      A
 Frequencies --   1670.2381              1692.8294              1744.9962
 Red. masses --      6.1855                 1.1093                11.2880
 Frc consts  --     10.1668                 1.8730                20.2515
 IR Inten    --     44.5568                31.6388               274.7058

                     91                     92                     93
                      A                      A                      A
 Frequencies --   2990.8447              3024.2156              3036.6530
 Red. masses --      1.0683                 1.0350                 1.0920
 Frc consts  --      5.6304                 5.5774                 5.9328
 IR Inten    --     44.6829                57.9218                29.1226

                     94                     95                     96
                      A                      A                      A
 Frequencies --   3055.6671              3082.3030              3136.8876
 Red. masses --      1.0450                 1.1066                 1.0894
 Frc consts  --      5.7486                 6.1940                 6.3160
 IR Inten    --     46.0401                43.1534                17.1222

                     97                     98                     99
                      A                      A                      A
 Frequencies --   3160.0750              3179.7104              3187.6568
 Red. masses --      1.0995                 1.1060                 1.0858
 Frc consts  --      6.4688                 6.5881                 6.5006
 IR Inten    --     27.5071                12.0104                 1.9738

                    100                    101                    102
                      A                      A                      A
 Frequencies --   3192.1915              3200.4590              3212.6326
 Red. masses --      1.0885                 1.0905                 1.0954
 Frc consts  --      6.5349                 6.5811                 6.6609
 IR Inten    --     11.1230                19.5117                12.8130

                    103                    104                    105
                      A                      A                      A
 Frequencies --   3222.5866              3230.2364              3234.9414
 Red. masses --      1.0933                 1.0907                 1.0907
 Frc consts  --      6.6897                 6.7052                 6.7250
 IR Inten    --      7.9596                14.8566                 0.5930

                    106                    107                    108
                      A                      A                      A
 Frequencies --   3238.3320              3467.8575              3556.9387
 Red. masses --      1.0923                 1.0502                 1.0924
 Frc consts  --      6.7487                 7.4411                 8.1433
 IR Inten    --      7.3021                 1.0272                 0.2380

 - Thermochemistry -
 -------------------
 Temperature   298.150 Kelvin.  Pressure   1.00000 Atm.
 Atom     1 has atomic number  6 and mass  12.00000

 Molecular mass:   270.13683 amu.
 Principal axes and moments of inertia in atomic units:
                           1         2         3
     Eigenvalues --  3246.068598513.246239357.83607
           X            0.99985   0.01584   0.00726
           Y           -0.01572   0.99973  -0.01710
           Z           -0.00753   0.01698   0.99983
 This molecule is an asymmetric top.
 Rotational symmetry number  1.
 Warning -- assumption of classical behavior for rotation
           may cause significant error
 Rotational temperatures (Kelvin)      0.02668     0.01017     0.00926
 Rotational constants (GHZ):           0.55598     0.21199     0.19286
 Zero-point vibrational energy     829503.7 (Joules/Mol)
                                  198.25614 (Kcal/Mol)
 Warning -- explicit consideration of  30 degrees of freedom as
           vibrations may cause significant error
 Vibrational temperatures:     31.95    43.05    75.00   109.40   117.83
          (Kelvin)            123.37   145.01   182.46   203.31   239.00
                              259.87   315.15   318.21   370.85   402.65
                              410.38   428.16   448.61   506.62   534.89
                              604.84   618.10   660.95   682.29   729.38
                              766.49   822.64   832.60   854.07   889.07
                              964.73  1001.18  1027.05  1077.21  1091.52
                             1133.60  1144.99  1154.14  1200.69  1264.65
                             1274.01  1288.04  1313.18  1342.38  1379.10
                             1382.49  1430.95  1464.12  1465.49  1507.67
                             1540.77  1552.13  1575.41  1613.22  1628.68
                             1651.29  1666.61  1707.34  1707.80  1712.15
                             1718.29  1741.85  1760.07  1770.21  1855.65
                             1870.97  1906.96  1917.45  1930.39  1965.10
                             1977.61  1987.17  2074.47  2121.56  2140.41
                             2158.93  2164.84  2172.76  2189.19  2198.45
                             2210.82  2213.10  2215.88  2223.53  2356.25
                             2361.48  2390.77  2403.10  2435.60  2510.66
                             4303.16  4351.17  4369.07  4396.42  4434.75
                             4513.28  4546.64  4574.89  4586.33  4592.85
                             4604.75  4622.26  4636.58  4647.59  4654.36
                             4659.24  4989.47  5117.64

 Zero-point correction=                           0.315941 (Hartree/Particle)
 Thermal correction to Energy=                    0.334837
 Thermal correction to Enthalpy=                  0.335781
 Thermal correction to Gibbs Free Energy=         0.267478
 Sum of electronic and zero-point Energies=           -880.246946
 Sum of electronic and thermal Energies=              -880.228051
 Sum of electronic and thermal Enthalpies=            -880.227106
 Sum of electronic and thermal Free Energies=         -880.295409

                     E (Thermal)             CV                S
                      KCal/Mol        Cal/Mol-Kelvin    Cal/Mol-Kelvin
 Total                  210.113             71.433            143.755
 Electronic               0.000              0.000              0.000
 Translational            0.889              2.981             42.680
 Rotational               0.889              2.981             33.913
 Vibrational            208.336             65.471             67.162
 Vibration     1          0.593              1.985              6.426
 Vibration     2          0.594              1.984              5.835
 Vibration     3          0.596              1.977              4.735
 Vibration     4          0.599              1.965              3.991
 Vibration     5          0.600              1.962              3.845
 Vibration     6          0.601              1.959              3.755
 Vibration     7          0.604              1.948              3.439
 Vibration     8          0.611              1.926              2.994
 Vibration     9          0.615              1.912              2.786
 Vibration    10          0.624              1.884              2.479
 Vibration    11          0.630              1.866              2.322
 Vibration    12          0.647              1.812              1.967
 Vibration    13          0.648              1.809              1.950
 Vibration    14          0.667              1.750              1.677
 Vibration    15          0.680              1.711              1.535
 Vibration    16          0.683              1.701              1.502
 Vibration    17          0.691              1.678              1.430
 Vibration    18          0.700              1.651              1.353
 Vibration    19          0.729              1.571              1.157
 Vibration    20          0.743              1.530              1.072
 Vibration    21          0.783              1.426              0.891
 Vibration    22          0.791              1.406              0.860
 Vibration    23          0.817              1.340              0.768
 Vibration    24          0.831              1.307              0.726
 Vibration    25          0.862              1.235              0.641
 Vibration    26          0.888              1.178              0.581
 Vibration    27          0.928              1.092              0.501
 Vibration    28          0.935              1.077              0.488
 Vibration    29          0.951              1.045              0.461
 Vibration    30          0.978              0.994              0.420

                           ! Non-Optimized Parameters !
 Normal termination of Gaussian 16 at Mon Dec 14 17:49:29 2020.

 ----------------------------------------------------------------------
 # B3LYP/6-311++G(d,p) empiricaldispersion=gd3bj scf=xqc pop=npa geom=c
 heck
 ----------------------------------------------------------------------

 ---------------------------------------
 CID_80412959_JID_10057_Energie_neutraal
 ---------------------------------------
 Structure from the checkpoint file:  "JID_10057.chk"
 Charge =  0 Multiplicity = 1

 SCF Done:  E(RB3LYP) =  -880.807228433     A.U. after   16 cycles
 Normal termination of Gaussian 16 at Mon Dec 14 17:57:26 2020.

 ----------------------------------------------------------------------
 # B3LYP/6-311++G(d,p) empiricaldispersion=gd3bj scf=xqc pop=npa geom=c
 heck
 ----------------------------------------------------------------------

 -------------------------------------
 CID_80412959_JID_10057_Energie_kation
 -------------------------------------
 Structure from the checkpoint file:  "JID_10057.chk"
 Charge =  1 Multiplicity = 2

 SCF Done:  E(UB3LYP) =  -880.520709000     A.U. after   30 cycles
 Normal termination of Gaussian 16 at Mon Dec 14 18:16:31 2020.
 Gaussian 16:  ES64L-G16RevA.03 25-Dec-2016

 ----------------------------------------------------------------------
 # B3LYP/6-311++G(d,p) empiricaldispersion=gd3bj scf=xqc pop=npa geom=c
 heck
 ----------------------------------------------------------------------

 ------------------------------------
 CID_80412959_JID_10057_Energie_anion
 ------------------------------------
 Structure from the checkpoint file:  "JID_10057.chk"
 Charge = -1 Multiplicity = 2

                         Standard orientation:
 ---------------------------------------------------------------------
 Center     Atomic      Atomic             Coordinates (Angstroms)
 Number     Number       Type             X           Y           Z
 ---------------------------------------------------------------------
      1          6           0        2.100139    2.671068   -0.436499
      2          7           0        1.221819    1.524036   -0.190025
      3          6           0        1.679946    0.247002   -0.650710
      4          6           0        1.137967   -0.299093   -1.817613
      5          6           0        1.573785   -1.536420   -2.284388
      6          6           0        2.572599   -2.221206   -1.592063
      7          6           0        3.120295   -1.672041   -0.433400
      8          6           0        2.682064   -0.438428    0.058707
      9          6           0        3.251624    0.126327    1.344277
     10          7           0        3.735956   -0.939219    2.228695
     11          6           0       -0.118690    1.821738   -0.012891
     12          8           0       -0.518263    2.980885   -0.070120
     13          6           0       -1.060835    0.694966    0.300163
     14          6           0       -2.370044    0.829197   -0.156563
     15          6           0       -3.324339   -0.154273    0.125716
     16          6           0       -2.969362   -1.267751    0.895302
     17          6           0       -1.660096   -1.380267    1.372548
     18          6           0       -0.703614   -0.416270    1.079612
     19          8           0       -4.568801    0.065761   -0.388834
     20          6           0       -5.578368   -0.890558   -0.115790
     21          1           0        3.137772    2.345446   -0.350788
     22          1           0        1.890992    3.453142    0.294423
     23          1           0        1.937493    3.084942   -1.439259
     24          1           0        0.364508    0.251170   -2.344335
     25          1           0        1.140060   -1.957673   -3.186633
     26          1           0        2.924438   -3.184028   -1.951802
     27          1           0        3.885942   -2.200159    0.124840
     28          1           0        4.113768    0.768693    1.115362
     29          1           0        2.494256    0.785591    1.798117
     30          1           0        4.159666   -0.524613    3.056277
     31          1           0        2.945495   -1.493729    2.555204
     32          1           0       -2.657941    1.704471   -0.727323
     33          1           0       -3.693023   -2.038992    1.130613
     34          1           0       -1.391871   -2.239480    1.980875
     35          1           0        0.306836   -0.521471    1.454032
     36          1           0       -5.319843   -1.877545   -0.522118
     37          1           0       -5.764355   -0.983657    0.962439
     38          1           0       -6.480522   -0.522938   -0.607412
 ---------------------------------------------------------------------

 SCF Done:  E(UB3LYP) =  -880.805926838     A.U. after   33 cycles
 SCF Done:  E(UB3LYP) =  -880.805926838     a.u. after    1 cycles

 The electronic state is 2-A.
 Alpha  occ. eigenvalues --  -19.05322 -18.95708 -14.22300 -14.19061 -10.13676
 Alpha  occ. eigenvalues --  -10.13641 -10.11939 -10.09498 -10.08975 -10.08773
 Alpha  occ. eigenvalues --  -10.06396 -10.06375 -10.06126 -10.06069 -10.05865
 Alpha  occ. eigenvalues --  -10.05789 -10.05612 -10.05393 -10.05093 -10.04402
 Alpha  occ. eigenvalues --   -0.96947  -0.91327  -0.82328  -0.78239  -0.73836
 Alpha  occ. eigenvalues --   -0.73534  -0.65391  -0.64948  -0.64399  -0.63378
 Alpha  occ. eigenvalues --   -0.59513  -0.58823  -0.55660  -0.51965  -0.49837
 Alpha  occ. eigenvalues --   -0.48885  -0.47682  -0.44697  -0.43326  -0.39938
 Alpha  occ. eigenvalues --   -0.38492  -0.38059  -0.37839  -0.37515  -0.37245
 Alpha  occ. eigenvalues --   -0.36537  -0.34643  -0.33311  -0.32348  -0.31692
 Alpha  occ. eigenvalues --   -0.31508  -0.31398  -0.30832  -0.29586  -0.28817
 Alpha  occ. eigenvalues --   -0.28322  -0.27792  -0.26209  -0.26045  -0.25134
 Alpha  occ. eigenvalues --   -0.24579  -0.24451  -0.23567  -0.22517  -0.21441
 Alpha  occ. eigenvalues --   -0.16419  -0.15158  -0.14663  -0.13463  -0.12640
 Alpha  occ. eigenvalues --   -0.12380  -0.11245   0.04227
 Alpha virt. eigenvalues --    0.06026   0.06553   0.07982   0.08097   0.08654
 Alpha virt. eigenvalues --    0.09216   0.09517   0.09700   0.09789   0.10253
 Alpha virt. eigenvalues --    0.10888   0.10988   0.11229   0.11546   0.12148

  Beta  occ. eigenvalues --  -19.05325 -18.95522 -14.22311 -14.19012 -10.13668
  Beta  occ. eigenvalues --  -10.13504 -10.11988 -10.09439 -10.08974 -10.08759
  Beta  occ. eigenvalues --  -10.06400 -10.06286 -10.06056 -10.05993 -10.05876
  Beta  occ. eigenvalues --  -10.05760 -10.05523 -10.05225 -10.05072 -10.04254
  Beta  occ. eigenvalues --   -0.96954  -0.91017  -0.82184  -0.78134  -0.73643
  Beta  occ. eigenvalues --   -0.73414  -0.65305  -0.64756  -0.64126  -0.63241
  Beta  occ. eigenvalues --   -0.59384  -0.58696  -0.55534  -0.51758  -0.49618
  Beta  occ. eigenvalues --   -0.48821  -0.47541  -0.44593  -0.43253  -0.39850
  Beta  occ. eigenvalues --   -0.38403  -0.37953  -0.37827  -0.37434  -0.37120
  Beta  occ. eigenvalues --   -0.36445  -0.34534  -0.33175  -0.32280  -0.31590
  Beta  occ. eigenvalues --   -0.31443  -0.31316  -0.30735  -0.29473  -0.28679
  Beta  occ. eigenvalues --   -0.28186  -0.27482  -0.26142  -0.25714  -0.24754
  Beta  occ. eigenvalues --   -0.24441  -0.24319  -0.23470  -0.22442  -0.21113
  Beta  occ. eigenvalues --   -0.16039  -0.14867  -0.14177  -0.13061  -0.12234
  Beta  occ. eigenvalues --   -0.11880  -0.10833
  Beta virt. eigenvalues --    0.05974   0.06977   0.07954   0.08072   0.08467
  Beta virt. eigenvalues --    0.08734   0.09254   0.09658   0.09845   0.10137
  Beta virt. eigenvalues --    0.10599   0.10966   0.11139   0.11241   0.11511

 Mulliken charges and spin densities:
               1          2
     1  C   -0.062113  -0.183000
     2  N    0.209516  -0.002343
     3  C   -0.256186   0.259782
     4  C    0.058571  -0.051223
     5  C   -0.510163   0.049981
     6  C   -0.367105   0.103266
     7  C    0.098828  -0.340520
     8  C   -0.127429   0.369446
     9  C    0.207322  -0.935271
    10  N   -0.411091   0.064788
    11  C   -0.372044  -0.028301
    12  O   -0.316918   0.062330
    13  C    1.182626   0.091039
    14  C   -0.191305   0.193218
    15  C   -0.663304  -0.029675
    16  C    0.306191   0.134195
    17  C   -0.397003  -0.016575
    18  C   -0.478797  -0.081051
    19  O   -0.166108   0.005143
    20  C   -0.244737  -0.091557
    21  H    0.113123  -0.006693
    22  H    0.119746   0.059251
    23  H    0.139846   0.023155
    24  H    0.160493   0.010523
    25  H    0.124707   0.007291
    26  H    0.114483   0.013184
    27  H    0.134896   0.068659
    28  H   -0.211230   0.425892
    29  H    0.120207   0.078501
    30  H   -0.157777   0.397039
    31  H    0.083191   0.126854
    32  H    0.194024   0.005102
    33  H    0.127586   0.003705
    34  H    0.034827   0.118186
    35  H    0.101059  -0.035761
    36  H    0.120663   0.018330
    37  H    0.079436   0.061445
    38  H    0.101969   0.051666
 Sum of Mulliken charges =  -1.00000   1.00000

 Dipole moment (field-independent basis, Debye):
    X=             -3.7619    Y=             -2.9709    Z=             -2.5031  Tot=              5.4078
 Quadrupole moment (field-independent basis, Debye-Ang):
   XX=           -175.9591   YY=           -150.2763   ZZ=           -142.3360
   XY=             12.1585   XZ=            -10.2375   YZ=              0.3398

 Summary of Natural Population Analysis:

                                       Natural Population
                Natural  -----------------------------------------------
    Atom  No    Charge         Core      Valence    Rydberg      Total
 -----------------------------------------------------------------------
      C    1   -0.17075      0.99964     2.16451    0.00661     3.17075
      N    2   -0.26532      0.99962     2.75542    0.01028     3.76532
      C    3    0.09181      0.99942     1.89698    0.01180     2.90819
      C    4   -0.10497      0.99951     2.09768    0.00778     3.10497
      C    5   -0.09286      0.99957     2.08351    0.00978     3.09286
      C    6   -0.09492      0.99957     2.08565    0.00970     3.09492
      C    7   -0.10389      0.99952     2.09566    0.00871     3.10389
      C    8   -0.01017      0.99945     1.99962    0.01110     3.01017
      C    9   -0.10042      0.99959     2.08909    0.01174     3.10042
      N   10   -0.42131      0.99978     2.91117    0.01036     3.92131
      C   11    0.36074      0.99960     1.61721    0.02245     2.63926
      O   12   -0.30722      0.99988     3.30231    0.00503     4.30722
      C   13   -0.04337      0.99947     2.03287    0.01102     3.04337
      C   14   -0.07526      0.99949     2.06706    0.00871     3.07526
      C   15    0.14583      0.99938     1.84280    0.01198     2.85417
      C   16   -0.11906      0.99952     2.11131    0.00823     3.11906
      C   17   -0.09455      0.99958     2.08543    0.00954     3.09455
      C   18   -0.09995      0.99953     2.08996    0.01046     3.09995
      O   19   -0.27593      0.99985     3.26704    0.00903     4.27593
      C   20   -0.09968      0.99961     2.09184    0.00823     3.09968
      H   21    0.09451      0.00000     0.40456    0.00093     0.40549
      H   22    0.10428      0.00000     0.39444    0.00127     0.39572
      H   23    0.09055      0.00000     0.40811    0.00134     0.40945
      H   24    0.10386      0.00000     0.39471    0.00143     0.39614
      H   25    0.09521      0.00000     0.40397    0.00082     0.40479
      H   26    0.09395      0.00000     0.40525    0.00080     0.40605
      H   27    0.10927      0.00000     0.38941    0.00133     0.39073
      H   28    0.09712      0.00000     0.40107    0.00181     0.40288
      H   29    0.08996      0.00000     0.40807    0.00198     0.41004
      H   30    0.17716      0.00000     0.31997    0.00286     0.32284
      H   31    0.17255      0.00000     0.32558    0.00187     0.32745
      H   32    0.10905      0.00000     0.38913    0.00181     0.39095
      H   33    0.09550      0.00000     0.40332    0.00118     0.40450
      H   34    0.09543      0.00000     0.40369    0.00089     0.40457
      H   35    0.10229      0.00000     0.39580    0.00190     0.39771
      H   36    0.08114      0.00000     0.41712    0.00174     0.41886
      H   37    0.08104      0.00000     0.41675    0.00221     0.41896
      H   38    0.08839      0.00000     0.41056    0.00105     0.41161
 =======================================================================
   * Total *    0.00000     19.99157    51.77864    0.22978    72.00000

 Normal termination of Gaussian 16 at Mon Dec 14 18:37:43 2020.
