 Gaussian 16, Revision A.03,

 -----------------------------------------------------------
 # opt freq B3LYP/6-31G(d) empiricaldispersion=gd3bj scf=xqc
 -----------------------------------------------------------

 -------------------------------
 CID_142207995_JID_3190_neutraal
 -------------------------------
 Symbolic Z-matrix:
 Charge =  0 Multiplicity = 1

 SCF Done:  E(RB3LYP) =  -1316.69201259     A.U. after   15 cycles
 SCF Done:  E(RB3LYP) =  -1316.69870154     A.U. after   14 cycles
 SCF Done:  E(RB3LYP) =  -1316.69934051     A.U. after   13 cycles
 SCF Done:  E(RB3LYP) =  -1316.69903557     A.U. after   14 cycles
 SCF Done:  E(RB3LYP) =  -1316.69856725     A.U. after   14 cycles
 SCF Done:  E(RB3LYP) =  -1316.69839033     A.U. after   14 cycles
 SCF Done:  E(RB3LYP) =  -1316.69938502     A.U. after   10 cycles
 SCF Done:  E(RB3LYP) =  -1316.69968523     A.U. after   13 cycles
 SCF Done:  E(RB3LYP) =  -1316.69977118     A.U. after   13 cycles
 SCF Done:  E(RB3LYP) =  -1316.69985818     A.U. after   11 cycles
 SCF Done:  E(RB3LYP) =  -1316.70716147     A.U. after    8 cycles
 SCF Done:  E(RB3LYP) =  -1316.70716242     A.U. after    8 cycles
 SCF Done:  E(RB3LYP) =  -1316.70716331     A.U. after    9 cycles
 SCF Done:  E(RB3LYP) =  -1316.70716405     A.U. after    9 cycles
 SCF Done:  E(RB3LYP) =  -1316.70716441     A.U. after    9 cycles
 SCF Done:  E(RB3LYP) =  -1316.70716442     A.U. after    7 cycles
 Optimization completed.
    -- Stationary point found.
 Normal termination of Gaussian 16 at Wed Dec  9 23:07:34 2020.

 --------------------------------------------------------------------
 #N Geom=AllCheck Guess=TCheck SCRF=Check GenChk RB3LYP/6-31G(d) Freq
 --------------------------------------------------------------------

 Structure from the checkpoint file:  "JID_3190.chk"
 -------------------------------
 CID_142207995_JID_3190_neutraal
 -------------------------------
 Charge =  0 Multiplicity = 1

 SCF Done:  E(RB3LYP) =  -1316.70716442     A.U. after    1 cycles

  Exact polarizability: 182.167  -7.185 120.441 -16.542  -2.408 113.126
 Approx polarizability: 251.966 -16.088 176.242 -40.455 -10.451 191.928

                      1                      2                      3
                      A                      A                      A
 Frequencies --     19.9217                29.2964                36.4217
 Red. masses --      5.4268                 4.7914                 4.6402
 Frc consts  --      0.0013                 0.0024                 0.0036
 IR Inten    --      0.1778                 0.7766                 2.4216

                      4                      5                      6
                      A                      A                      A
 Frequencies --     56.3257                63.8783                71.1516
 Red. masses --      3.2557                 2.9504                 4.5520
 Frc consts  --      0.0061                 0.0071                 0.0136
 IR Inten    --      0.3898                 0.6618                 1.5447

                      7                      8                      9
                      A                      A                      A
 Frequencies --     79.6744                94.7814               109.0568
 Red. masses --      3.4781                 2.5060                 2.8788
 Frc consts  --      0.0130                 0.0133                 0.0202
 IR Inten    --      0.7217                 1.4731                 1.2340

                     10                     11                     12
                      A                      A                      A
 Frequencies --    127.6183               151.5448               154.6362
 Red. masses --      5.1171                 2.7294                 1.4905
 Frc consts  --      0.0491                 0.0369                 0.0210
 IR Inten    --      0.9365                 2.9315                 9.9046

                     13                     14                     15
                      A                      A                      A
 Frequencies --    161.1244               179.4033               234.4159
 Red. masses --      3.2120                 5.0392                 1.3015
 Frc consts  --      0.0491                 0.0956                 0.0421
 IR Inten    --      2.8465                 3.8302                 1.8723

                     16                     17                     18
                      A                      A                      A
 Frequencies --    244.7726               280.4460               296.0021
 Red. masses --      2.7915                 1.0948                 3.9955
 Frc consts  --      0.0985                 0.0507                 0.2063
 IR Inten    --      3.9954               156.8177                 1.8774

                     19                     20                     21
                      A                      A                      A
 Frequencies --    311.2725               346.8195               357.9242
 Red. masses --      4.3133                 1.0146                 2.9900
 Frc consts  --      0.2462                 0.0719                 0.2257
 IR Inten    --      8.0538                 8.7836                 0.2845

                     22                     23                     24
                      A                      A                      A
 Frequencies --    399.1957               497.1995               527.4572
 Red. masses --      4.1827                 2.5633                 4.1285
 Frc consts  --      0.3927                 0.3733                 0.6767
 IR Inten    --      9.4471                18.5413                 7.7848

                     25                     26                     27
                      A                      A                      A
 Frequencies --    572.7441               612.4345               654.6098
 Red. masses --      2.5234                 4.2707                 1.4589
 Frc consts  --      0.4877                 0.9438                 0.3683
 IR Inten    --     21.6105                16.1719                81.0673

                     28                     29                     30
                      A                      A                      A
 Frequencies --    746.7799               783.3311               804.7855
 Red. masses --      5.8424                 4.0918                 3.4479
 Frc consts  --      1.9197                 1.4793                 1.3157
 IR Inten    --    102.3247                 3.4011                 6.6820

                     31                     32                     33
                      A                      A                      A
 Frequencies --    841.7638               848.9100               852.6541
 Red. masses --      1.0550                 1.0586                 1.3966
 Frc consts  --      0.4405                 0.4495                 0.5982
 IR Inten    --      6.5214                 5.0990                28.8370

                     34                     35                     36
                      A                      A                      A
 Frequencies --    884.5653               930.8093              1012.7527
 Red. masses --      2.0281                 2.3229                 3.2976
 Frc consts  --      0.9350                 1.1858                 1.9928
 IR Inten    --      6.7766                 7.9994                 0.0713

                     37                     38                     39
                      A                      A                      A
 Frequencies --   1019.4690              1065.9975              1092.4591
 Red. masses --      1.7054                 4.3880                 2.3560
 Frc consts  --      1.0443                 2.9378                 1.6567
 IR Inten    --     34.7662               226.1776                48.2512

                     40                     41                     42
                      A                      A                      A
 Frequencies --   1095.4809              1099.4510              1123.8947
 Red. masses --      1.8373                 1.6253                 2.7401
 Frc consts  --      1.2991                 1.1575                 2.0392
 IR Inten    --     60.7813                 1.8955                 3.1876

                     43                     44                     45
                      A                      A                      A
 Frequencies --   1140.7077              1235.0985              1239.9525
 Red. masses --      2.3930                 1.4157                 1.4481
 Frc consts  --      1.8346                 1.2724                 1.3117
 IR Inten    --     19.1961                54.2267                 1.9235

                     46                     47                     48
                      A                      A                      A
 Frequencies --   1243.0549              1246.3125              1274.3093
 Red. masses --      1.4243                 1.2862                 1.1226
 Frc consts  --      1.2967                 1.1771                 1.0740
 IR Inten    --      2.3828                14.2696                11.9733

                     49                     50                     51
                      A                      A                      A
 Frequencies --   1322.3854              1329.4188              1334.5778
 Red. masses --      1.4167                 1.2234                 1.2242
 Frc consts  --      1.4597                 1.2739                 1.2847
 IR Inten    --     52.3525                24.5010                36.9668

                     52                     53                     54
                      A                      A                      A
 Frequencies --   1392.6160              1435.3158              1436.3626
 Red. masses --      1.4126                 1.5742                 1.2686
 Frc consts  --      1.6141                 1.9107                 1.5421
 IR Inten    --     58.8458                30.2197                18.2253

                     55                     56                     57
                      A                      A                      A
 Frequencies --   1442.4926              1457.1198              1470.2682
 Red. masses --      1.2363                 1.2495                 1.4706
 Frc consts  --      1.5157                 1.5631                 1.8730
 IR Inten    --     23.2283                 0.1030                 4.3688

                     58                     59                     60
                      A                      A                      A
 Frequencies --   1512.4325              1512.7170              1519.4606
 Red. masses --      1.8269                 1.0595                 1.1606
 Frc consts  --      2.4622                 1.4284                 1.5788
 IR Inten    --     67.5564                 0.9099                 8.0007

                     61                     62                     63
                      A                      A                      A
 Frequencies --   1523.7686              1533.3697              1537.6311
 Red. masses --      1.0592                 1.0424                 1.0348
 Frc consts  --      1.4489                 1.4441                 1.4414
 IR Inten    --     13.6342                 5.5112                 2.7845

                     64                     65                     66
                      A                      A                      A
 Frequencies --   1542.2661              1545.0515              1549.9260
 Red. masses --      1.0715                 1.0549                 1.0505
 Frc consts  --      1.5016                 1.4837                 1.4869
 IR Inten    --     10.2626                11.3859                 7.6668

                     67                     68                     69
                      A                      A                      A
 Frequencies --   1763.7994              3008.4755              3040.7338
 Red. masses --      7.4977                 1.0577                 1.0428
 Frc consts  --     13.7428                 5.6404                 5.6807
 IR Inten    --    297.7113                52.5775                36.8825

                     70                     71                     72
                      A                      A                      A
 Frequencies --   3046.1065              3048.8827              3074.2881
 Red. masses --      1.0384                 1.1000                 1.0365
 Frc consts  --      5.6767                 6.0246                 5.7718
 IR Inten    --     32.9478                31.4065                12.7762

                     73                     74                     75
                      A                      A                      A
 Frequencies --   3076.3313              3093.7914              3095.2928
 Red. masses --      1.0754                 1.0942                 1.0865
 Frc consts  --      5.9966                 6.1707                 6.1330
 IR Inten    --     53.0278                19.5544                13.4865

                     76                     77                     78
                      A                      A                      A
 Frequencies --   3104.8817              3127.9496              3134.2469
 Red. masses --      1.0992                 1.1014                 1.0882
 Frc consts  --      6.2432                 6.3492                 6.2983
 IR Inten    --     23.7713                43.6937                 0.8226

                     79                     80                     81
                      A                      A                      A
 Frequencies --   3139.8434              3143.8599              3161.5753
 Red. masses --      1.1017                 1.1025                 1.0935
 Frc consts  --      6.3993                 6.4205                 6.4400
 IR Inten    --     32.2624                13.2640                 9.8156

                     82                     83                     84
                      A                      A                      A
 Frequencies --   3168.8998              3599.3975              3770.2895
 Red. masses --      1.1023                 1.0755                 1.0667
 Frc consts  --      6.5217                 8.2096                 8.9341
 IR Inten    --      8.2866                41.1732                28.5277

 - Thermochemistry -
 -------------------
 Temperature   298.150 Kelvin.  Pressure   1.00000 Atm.
 Atom     1 has atomic number  6 and mass  12.00000

 Molecular mass:   223.07007 amu.
 Principal axes and moments of inertia in atomic units:
                           1         2         3
     Eigenvalues --  1974.884616309.390087176.96651
           X            0.99999  -0.00482   0.00057
           Y            0.00481   0.99997   0.00629
           Z           -0.00060  -0.00629   0.99998
 This molecule is an asymmetric top.
 Rotational symmetry number  1.
 Warning -- assumption of classical behavior for rotation
           may cause significant error
 Rotational temperatures (Kelvin)      0.04386     0.01373     0.01207
 Rotational constants (GHZ):           0.91385     0.28604     0.25146
 Zero-point vibrational energy     659432.4 (Joules/Mol)
                                  157.60813 (Kcal/Mol)
 Warning -- explicit consideration of  26 degrees of freedom as
           vibrations may cause significant error
 Vibrational temperatures:     28.66    42.15    52.40    81.04    91.91
          (Kelvin)            102.37   114.63   136.37   156.91   183.61
                              218.04   222.49   231.82   258.12   337.27
                              352.17   403.50   425.88   447.85   499.00
                              514.97   574.35   715.36   758.89   824.05
                              881.16   941.84  1074.45  1127.04  1157.91
                             1211.11  1221.39  1226.78  1272.69  1339.23
                             1457.13  1466.79  1533.73  1571.80  1576.15
                             1581.86  1617.03  1641.22  1777.03  1784.02
                             1788.48  1793.17  1833.45  1902.62  1912.74
                             1920.16  2003.66  2065.10  2066.61  2075.43
                             2096.47  2115.39  2176.05  2176.46  2186.16
                             2192.36  2206.18  2212.31  2218.98  2222.98
                             2230.00  2537.71  4328.53  4374.94  4382.67
                             4386.66  4423.21  4426.15  4451.28  4453.44
                             4467.23  4500.42  4509.48  4517.53  4523.31
                             4548.80  4559.34  5178.73  5424.61

 Zero-point correction=                           0.251165 (Hartree/Particle)
 Thermal correction to Energy=                    0.269624
 Thermal correction to Enthalpy=                  0.270568
 Thermal correction to Gibbs Free Energy=         0.201178
 Sum of electronic and zero-point Energies=          -1316.456000
 Sum of electronic and thermal Energies=             -1316.437540
 Sum of electronic and thermal Enthalpies=           -1316.436596
 Sum of electronic and thermal Free Energies=        -1316.505986

                     E (Thermal)             CV                S
                      KCal/Mol        Cal/Mol-Kelvin    Cal/Mol-Kelvin
 Total                  169.192             61.478            146.043
 Electronic               0.000              0.000              0.000
 Translational            0.889              2.981             42.110
 Rotational               0.889              2.981             32.858
 Vibrational            167.414             55.516             71.075
 Vibration     1          0.593              1.986              6.642
 Vibration     2          0.593              1.984              5.877
 Vibration     3          0.594              1.982              5.445
 Vibration     4          0.596              1.975              4.582
 Vibration     5          0.597              1.972              4.334
 Vibration     6          0.598              1.968              4.121
 Vibration     7          0.600              1.963              3.899
 Vibration     8          0.603              1.953              3.559
 Vibration     9          0.606              1.942              3.286
 Vibration    10          0.611              1.926              2.982
 Vibration    11          0.619              1.901              2.653
 Vibration    12          0.620              1.898              2.614
 Vibration    13          0.622              1.890              2.537
 Vibration    14          0.629              1.868              2.335
 Vibration    15          0.654              1.788              1.845
 Vibration    16          0.660              1.771              1.768
 Vibration    17          0.680              1.710              1.531
 Vibration    18          0.690              1.681              1.439
 Vibration    19          0.700              1.652              1.356
 Vibration    20          0.725              1.582              1.181
 Vibration    21          0.733              1.559              1.131
 Vibration    22          0.765              1.472              0.966
 Vibration    23          0.853              1.256              0.665
 Vibration    24          0.882              1.189              0.593
 Vibration    25          0.929              1.090              0.499
 Vibration    26          0.972              1.006              0.429

 Optimization completed.
    -- Stationary point found.
 Normal termination of Gaussian 16 at Wed Dec  9 23:16:04 2020.

 ----------------------------------------------------------------------
 # B3LYP/6-311++G(d,p) empiricaldispersion=gd3bj scf=xqc pop=npa geom=c
 heck
 ----------------------------------------------------------------------

 ---------------------------------------
 CID_142207995_JID_3190_Energie_neutraal
 ---------------------------------------
 Structure from the checkpoint file:  "JID_3190.chk"
 Charge =  0 Multiplicity = 1

 SCF Done:  E(RB3LYP) =  -1316.92787529     A.U. after   15 cycles
 Normal termination of Gaussian 16 at Wed Dec  9 23:20:32 2020.

 ----------------------------------------------------------------------
 # B3LYP/6-311++G(d,p) empiricaldispersion=gd3bj scf=xqc pop=npa geom=c
 heck
 ----------------------------------------------------------------------

 -------------------------------------
 CID_142207995_JID_3190_Energie_kation
 -------------------------------------
 Structure from the checkpoint file:  "JID_3190.chk"
 Charge =  1 Multiplicity = 2

 SCF Done:  E(UB3LYP) =  -1316.62284066     A.U. after   30 cycles
 Normal termination of Gaussian 16 at Wed Dec  9 23:33:11 2020.
 Gaussian 16:  ES64L-G16RevA.03 25-Dec-2016

 ----------------------------------------------------------------------
 # B3LYP/6-311++G(d,p) empiricaldispersion=gd3bj scf=xqc pop=npa geom=c
 heck
 ----------------------------------------------------------------------

 ------------------------------------
 CID_142207995_JID_3190_Energie_anion
 ------------------------------------
 Structure from the checkpoint file:  "JID_3190.chk"
 Charge = -1 Multiplicity = 2

                         Standard orientation:
 ---------------------------------------------------------------------
 Center     Atomic      Atomic             Coordinates (Angstroms)
 Number     Number       Type             X           Y           Z
 ---------------------------------------------------------------------
      1          6           0       -3.102104    2.084336    0.078650
      2          6           0       -4.214373    1.251240   -0.561840
      3          6           0        0.707446    2.191495    1.016975
      4          6           0        0.488705    0.690248    0.856994
      5          6           0       -0.146701    0.355718   -0.497867
      6          8           0       -0.021133    1.128474   -1.445320
      7          7           0       -0.820388   -0.817801   -0.622713
      8          6           0       -1.095404   -1.850934    0.361230
      9          6           0       -2.568421   -1.884593    0.747177
     10          8           0       -3.294516   -2.159179   -0.446150
     11         16           0        2.067780   -0.271217    1.073681
     12          6           0        2.931591    0.098715   -0.397278
     13         16           0        4.437383   -0.438382   -0.728272
     14          1           0       -3.464363    3.075936    0.372558
     15          1           0       -2.264298    2.219755   -0.611765
     16          1           0       -2.712849    1.598185    0.982761
     17          1           0       -5.054129    1.106083    0.129255
     18          1           0       -4.608485    1.742859   -1.458050
     19          1           0       -3.845176    0.264945   -0.862326
     20          1           0        1.327453    2.581405    0.207790
     21          1           0        1.189258    2.404108    1.974884
     22          1           0       -0.254709    2.712068    0.978278
     23          1           0       -0.134118    0.318076    1.675612
     24          1           0       -1.246582   -0.945057   -1.533028
     25          1           0       -0.816757   -2.822204   -0.063826
     26          1           0       -0.473615   -1.702483    1.244545
     27          1           0       -2.731679   -2.666136    1.505290
     28          1           0       -2.858192   -0.915118    1.176908
     29          1           0       -4.232615   -1.981938   -0.283272
     30          1           0        2.361717    0.715988   -1.095655
 ---------------------------------------------------------------------

 SCF Done:  E(UB3LYP) =  -1316.94671563     A.U. after   31 cycles

 The electronic state is 2-A.
 Alpha  occ. eigenvalues --  -88.73023 -88.64873 -19.04884 -18.98823 -14.24224
 Alpha  occ. eigenvalues --  -10.17710 -10.14107 -10.12417 -10.11162 -10.07569
 Alpha  occ. eigenvalues --  -10.07438 -10.06510 -10.06029  -7.81615  -7.73609
 Alpha  occ. eigenvalues --   -5.78015  -5.77557  -5.77078  -5.69889  -5.69655
 Alpha  occ. eigenvalues --   -5.69150  -0.95102  -0.94010  -0.83095  -0.71336
 Alpha  occ. eigenvalues --   -0.67086  -0.66833  -0.64702  -0.57653  -0.55487
 Alpha  occ. eigenvalues --   -0.53680  -0.53415  -0.47075  -0.44524  -0.42596
 Alpha  occ. eigenvalues --   -0.41149  -0.38233  -0.37508  -0.35601  -0.35320
 Alpha  occ. eigenvalues --   -0.34906  -0.33549  -0.32106  -0.30779  -0.30697
 Alpha  occ. eigenvalues --   -0.28830  -0.28572  -0.27698  -0.26870  -0.26376
 Alpha  occ. eigenvalues --   -0.26318  -0.25405  -0.21985  -0.20671  -0.20542
 Alpha  occ. eigenvalues --   -0.19354  -0.16263  -0.15797  -0.10022  -0.06358
 Alpha  occ. eigenvalues --    0.03045
 Alpha virt. eigenvalues --    0.04341   0.06881   0.06971   0.08640   0.09103
 Alpha virt. eigenvalues --    0.09587   0.09890   0.10354   0.10634   0.11319
 Alpha virt. eigenvalues --    0.12718   0.12990   0.13154   0.13818   0.14272

  Beta  occ. eigenvalues --  -88.73014 -88.64774 -19.04853 -18.98824 -14.24225
  Beta  occ. eigenvalues --  -10.17703 -10.14090 -10.12408 -10.11164 -10.07551
  Beta  occ. eigenvalues --  -10.07435 -10.06500 -10.05285  -7.81607  -7.73520
  Beta  occ. eigenvalues --   -5.78016  -5.77571  -5.77019  -5.69858  -5.69323
  Beta  occ. eigenvalues --   -5.69094  -0.95035  -0.94002  -0.83089  -0.71149
  Beta  occ. eigenvalues --   -0.67069  -0.66781  -0.63972  -0.57432  -0.55378
  Beta  occ. eigenvalues --   -0.53553  -0.53382  -0.46983  -0.44401  -0.42382
  Beta  occ. eigenvalues --   -0.40962  -0.37614  -0.37396  -0.35572  -0.35306
  Beta  occ. eigenvalues --   -0.34843  -0.33510  -0.32067  -0.30756  -0.30638
  Beta  occ. eigenvalues --   -0.28756  -0.28531  -0.27608  -0.26823  -0.26356
  Beta  occ. eigenvalues --   -0.26286  -0.25278  -0.21393  -0.20592  -0.20306
  Beta  occ. eigenvalues --   -0.17435  -0.16257  -0.15524  -0.08671  -0.06134
  Beta virt. eigenvalues --    0.05211   0.06956   0.07060   0.08695   0.09155
  Beta virt. eigenvalues --    0.09551   0.09859   0.10093   0.10339   0.10645
  Beta virt. eigenvalues --    0.11430   0.12788   0.12906   0.13184   0.13830

 Mulliken charges and spin densities:
               1          2
     1  C   -0.488262   0.149162
     2  C   -0.110435  -0.386347
     3  C   -0.716090  -0.011294
     4  C    0.532294   0.004849
     5  C   -0.425196   0.014408
     6  O   -0.271961   0.006080
     7  N   -0.041730  -0.005609
     8  C   -0.275112   0.064889
     9  C    0.161253  -0.543400
    10  O   -0.222251  -0.030146
    11  S    0.061467   0.045899
    12  C   -0.264558   0.382550
    13  S   -0.784823   0.288093
    14  H    0.116315   0.010534
    15  H    0.200176   0.001431
    16  H    0.162171  -0.045970
    17  H   -0.154624   0.289683
    18  H    0.097705   0.024209
    19  H    0.162315  -0.045493
    20  H    0.180742  -0.002974
    21  H    0.125462   0.004990
    22  H    0.111225   0.000145
    23  H    0.200015   0.024832
    24  H    0.302656  -0.005171
    25  H    0.165374   0.033318
    26  H    0.141149   0.002627
    27  H   -0.131451   0.291799
    28  H   -0.041063   0.167323
    29  H   -0.030695   0.294542
    30  H    0.237932  -0.024961
 Sum of Mulliken charges =  -1.00000   1.00000

 Dipole moment (field-independent basis, Debye):
    X=             -8.5840    Y=              1.6550    Z=              3.2451  Tot=              9.3250
 Quadrupole moment (field-independent basis, Debye-Ang):
   XX=           -192.1980   YY=           -116.3934   ZZ=           -113.6830
   XY=             -0.7825   XZ=              6.1611   YZ=              2.1693

 Summary of Natural Population Analysis:

                                       Natural Population
                Natural  -----------------------------------------------
    Atom  No    Charge         Core      Valence    Rydberg      Total
 -----------------------------------------------------------------------
      C    1   -0.29273      0.99968     2.28729    0.00576     3.29273
      C    2   -0.29208      0.99968     2.28708    0.00533     3.29208
      C    3   -0.28645      0.99964     2.28039    0.00642     3.28645
      C    4   -0.21012      0.99954     2.19743    0.01315     3.21012
      C    5    0.34067      0.99962     1.63536    0.02434     2.65933
      O    6   -0.32840      0.99988     3.32288    0.00565     4.32840
      N    7   -0.31537      0.99965     2.80507    0.01064     3.81537
      C    8   -0.09976      0.99961     2.08802    0.01212     3.09976
      C    9   -0.01683      0.99960     2.00510    0.01213     3.01683
      O   10   -0.37370      0.99989     3.36705    0.00676     4.37370
      S   11    0.14020      4.99946     2.83853    0.02182     7.85980
      C   12   -0.11466      0.99973     2.10203    0.01291     3.11466
      S   13   -0.03051      4.99948     3.01118    0.01985     8.03051
      H   14    0.09138      0.00000     0.40785    0.00077     0.40862
      H   15    0.10912      0.00000     0.38977    0.00110     0.39088
      H   16    0.09178      0.00000     0.40700    0.00121     0.40822
      H   17    0.09223      0.00000     0.40671    0.00106     0.40777
      H   18    0.09403      0.00000     0.40519    0.00078     0.40597
      H   19    0.10173      0.00000     0.39660    0.00166     0.39827
      H   20    0.11269      0.00000     0.38640    0.00092     0.38731
      H   21    0.09993      0.00000     0.39925    0.00082     0.40007
      H   22    0.09706      0.00000     0.40198    0.00096     0.40294
      H   23    0.10438      0.00000     0.39429    0.00133     0.39562
      H   24    0.19768      0.00000     0.30025    0.00207     0.30232
      H   25    0.09963      0.00000     0.39923    0.00113     0.40037
      H   26    0.10823      0.00000     0.39041    0.00137     0.39177
      H   27    0.07842      0.00000     0.42022    0.00136     0.42158
      H   28    0.07985      0.00000     0.41859    0.00156     0.42015
      H   29    0.23497      0.00000     0.26034    0.00469     0.26503
      H   30    0.08664      0.00000     0.41049    0.00287     0.41336
 =======================================================================
   * Total *   -0.00000     20.99547    38.82198    0.18256    60.00000

 Normal termination of Gaussian 16 at Wed Dec  9 23:46:18 2020.
