 Gaussian 16, Revision A.03,

 -----------------------------------------------------------
 # opt freq B3LYP/6-31G(d) empiricaldispersion=gd3bj scf=xqc
 -----------------------------------------------------------

 ------------------------------
 CID_65751214_JID_9423_neutraal
 ------------------------------
 Symbolic Z-matrix:
 Charge =  0 Multiplicity = 1

 SCF Done:  E(RB3LYP) =  -1616.90411413     A.U. after   15 cycles
 SCF Done:  E(RB3LYP) =  -1616.91716619     A.U. after   12 cycles
 SCF Done:  E(RB3LYP) =  -1616.91906778     A.U. after   12 cycles
 SCF Done:  E(RB3LYP) =  -1616.91945352     A.U. after   12 cycles
 SCF Done:  E(RB3LYP) =  -1616.92039428     A.U. after   12 cycles
 SCF Done:  E(RB3LYP) =  -1616.92091358     A.U. after   12 cycles
 SCF Done:  E(RB3LYP) =  -1616.92113215     A.U. after   12 cycles
 SCF Done:  E(RB3LYP) =  -1616.92124275     A.U. after   11 cycles
 SCF Done:  E(RB3LYP) =  -1616.92131551     A.U. after   11 cycles
 SCF Done:  E(RB3LYP) =  -1616.92132584     A.U. after    9 cycles
 SCF Done:  E(RB3LYP) =  -1616.92135436     A.U. after    7 cycles
 SCF Done:  E(RB3LYP) =  -1616.92135461     A.U. after    7 cycles
 SCF Done:  E(RB3LYP) =  -1616.92135476     A.U. after    7 cycles
 SCF Done:  E(RB3LYP) =  -1616.92135490     A.U. after    8 cycles
 SCF Done:  E(RB3LYP) =  -1616.92135494     A.U. after    8 cycles
 Optimization completed.
    -- Stationary point found.
 Normal termination of Gaussian 16 at Sun Dec 13 16:26:00 2020.

 --------------------------------------------------------------------
 #N Geom=AllCheck Guess=TCheck SCRF=Check GenChk RB3LYP/6-31G(d) Freq
 --------------------------------------------------------------------

 Structure from the checkpoint file:  "JID_9423.chk"
 ------------------------------
 CID_65751214_JID_9423_neutraal
 ------------------------------
 Charge =  0 Multiplicity = 1

 SCF Done:  E(RB3LYP) =  -1616.92135494     A.U. after    1 cycles

  Exact polarizability: 215.972   1.771 167.021  -5.426   6.803 137.140
 Approx polarizability: 279.938   9.143 272.379 -13.116  12.685 219.545

                      1                      2                      3
                      A                      A                      A
 Frequencies --     19.7761                24.2811                36.7377
 Red. masses --      6.6323                 4.6191                 4.2019
 Frc consts  --      0.0015                 0.0016                 0.0033
 IR Inten    --      1.4118                 0.2009                 0.5028

                      4                      5                      6
                      A                      A                      A
 Frequencies --     57.4565                88.2306                98.5921
 Red. masses --      4.3269                 2.2246                 1.5499
 Frc consts  --      0.0084                 0.0102                 0.0089
 IR Inten    --      0.6946                 0.5058                 1.1089

                      7                      8                      9
                      A                      A                      A
 Frequencies --    112.2784               133.4286               142.4687
 Red. masses --      4.4433                 1.3194                 4.1685
 Frc consts  --      0.0330                 0.0138                 0.0499
 IR Inten    --      0.2119                 1.5599                 4.7667

                     10                     11                     12
                      A                      A                      A
 Frequencies --    152.4166               176.5583               190.7439
 Red. masses --      1.8780                 4.2917                 3.5392
 Frc consts  --      0.0257                 0.0788                 0.0759
 IR Inten    --      2.5702                 1.0659                 2.4841

                     13                     14                     15
                      A                      A                      A
 Frequencies --    217.2987               238.3589               258.6134
 Red. masses --      3.8007                 4.1185                 3.3613
 Frc consts  --      0.1057                 0.1379                 0.1325
 IR Inten    --      5.6285                 6.0130                 1.2969

                     16                     17                     18
                      A                      A                      A
 Frequencies --    271.2637               284.8788               298.4657
 Red. masses --      5.9055                 2.8290                 5.1653
 Frc consts  --      0.2560                 0.1353                 0.2711
 IR Inten    --      0.1123                 1.8756                 1.6888

                     19                     20                     21
                      A                      A                      A
 Frequencies --    325.3614               334.8141               356.5768
 Red. masses --      3.2975                 3.1287                 3.9394
 Frc consts  --      0.2057                 0.2066                 0.2951
 IR Inten    --      1.8693                 0.6849                 1.6233

                     22                     23                     24
                      A                      A                      A
 Frequencies --    381.6119               411.1847               421.8063
 Red. masses --      3.0694                 3.1591                 3.1157
 Frc consts  --      0.2634                 0.3147                 0.3266
 IR Inten    --      1.8232                 1.4447                 8.3301

                     25                     26                     27
                      A                      A                      A
 Frequencies --    461.5262               478.4227               498.1390
 Red. masses --      4.3948                 3.1346                 3.6785
 Frc consts  --      0.5515                 0.4227                 0.5378
 IR Inten    --      7.8051                 2.5895                18.0093

                     28                     29                     30
                      A                      A                      A
 Frequencies --    567.1282               579.0877               584.8788
 Red. masses --      3.0741                 4.7910                 3.7629
 Frc consts  --      0.5826                 0.9466                 0.7584
 IR Inten    --     11.7971                47.5093                15.1534

                     31                     32                     33
                      A                      A                      A
 Frequencies --    608.9158               629.1676               651.9287
 Red. masses --      3.4479                 1.2435                 4.5173
 Frc consts  --      0.7532                 0.2900                 1.1312
 IR Inten    --     10.4398                84.3076                32.5932

                     34                     35                     36
                      A                      A                      A
 Frequencies --    658.9489               672.1818               684.9011
 Red. masses --      4.3324                 3.7360                 4.2076
 Frc consts  --      1.1084                 0.9945                 1.1629
 IR Inten    --      4.0025                18.8853                12.0895

                     37                     38                     39
                      A                      A                      A
 Frequencies --    691.1530               709.5990               828.6470
 Red. masses --      4.7398                 5.4746                 1.6256
 Frc consts  --      1.3340                 1.6242                 0.6577
 IR Inten    --     25.0680               223.8965                 2.7255

                     40                     41                     42
                      A                      A                      A
 Frequencies --    836.0143               878.0171               903.5903
 Red. masses --      3.3835                 3.1532                 2.3846
 Frc consts  --      1.3933                 1.4322                 1.1471
 IR Inten    --      9.3588               150.7416                 8.9487

                     43                     44                     45
                      A                      A                      A
 Frequencies --    964.7040               969.4997               990.5989
 Red. masses --      1.9737                 2.1956                 2.1242
 Frc consts  --      1.0822                 1.2159                 1.2281
 IR Inten    --      6.1806                 0.3865                15.4272

                     46                     47                     48
                      A                      A                      A
 Frequencies --   1001.7299              1024.9577              1036.6129
 Red. masses --      1.6349                 2.5963                 1.7405
 Frc consts  --      0.9666                 1.6070                 1.1019
 IR Inten    --      6.6912                48.4984                19.6079

                     49                     50                     51
                      A                      A                      A
 Frequencies --   1062.0956              1076.8908              1078.8036
 Red. masses --      1.8634                 1.8064                 1.5261
 Frc consts  --      1.2385                 1.2342                 1.0464
 IR Inten    --      1.0592                12.0567                 5.2923

                     52                     53                     54
                      A                      A                      A
 Frequencies --   1080.6439              1094.7880              1100.3784
 Red. masses --      1.5427                 5.6895                 2.1541
 Frc consts  --      1.0615                 4.0178                 1.5367
 IR Inten    --      0.4730               111.7740                33.8808

                     55                     56                     57
                      A                      A                      A
 Frequencies --   1103.8473              1148.7451              1166.2156
 Red. masses --      3.9313                 3.4691                 3.9720
 Frc consts  --      2.8223                 2.6972                 3.1829
 IR Inten    --     37.2471                31.9277                23.5791

                     58                     59                     60
                      A                      A                      A
 Frequencies --   1191.9824              1197.1296              1247.1005
 Red. masses --      3.9734                 1.2282                 1.2290
 Frc consts  --      3.3262                 1.0370                 1.1261
 IR Inten    --     64.9062                 5.6701                 2.2130

                     61                     62                     63
                      A                      A                      A
 Frequencies --   1247.7779              1266.7610              1268.2201
 Red. masses --      1.3819                 1.4792                 1.9588
 Frc consts  --      1.2676                 1.3985                 1.8563
 IR Inten    --     26.1461                10.7373                15.4327

                     64                     65                     66
                      A                      A                      A
 Frequencies --   1296.9010              1327.7169              1327.8789
 Red. masses --      8.9836                 1.5015                 1.9326
 Frc consts  --      8.9026                 1.5595                 2.0078
 IR Inten    --    161.4534                 2.2950                16.6172

                     67                     68                     69
                      A                      A                      A
 Frequencies --   1338.7651              1389.7292              1391.8918
 Red. masses --      1.1951                 1.2154                 1.2148
 Frc consts  --      1.2620                 1.3830                 1.3866
 IR Inten    --     20.7939                 7.8367                 6.5073

                     70                     71                     72
                      A                      A                      A
 Frequencies --   1399.6788              1416.2561              1419.3848
 Red. masses --      1.3536                 1.3192                 1.2580
 Frc consts  --      1.5624                 1.5590                 1.4933
 IR Inten    --      9.8640                28.3469                 9.0023

                     73                     74                     75
                      A                      A                      A
 Frequencies --   1431.2227              1444.0772              1449.3254
 Red. masses --      2.2419                 1.3689                 1.5311
 Frc consts  --      2.7057                 1.6819                 1.8949
 IR Inten    --     20.9250                 4.2639                17.6738

                     76                     77                     78
                      A                      A                      A
 Frequencies --   1474.0768              1489.8609              1493.0438
 Red. masses --      1.9240                 1.0855                 1.2206
 Frc consts  --      2.4631                 1.4197                 1.6031
 IR Inten    --     88.0092                 2.2878               126.4680

                     79                     80                     81
                      A                      A                      A
 Frequencies --   1498.9732              1499.5780              1504.2295
 Red. masses --      1.1009                 1.0835                 1.0655
 Frc consts  --      1.4574                 1.4356                 1.4205
 IR Inten    --     16.3723                14.9611                 4.8876

                     82                     83                     84
                      A                      A                      A
 Frequencies --   1506.4781              1508.6185              1511.4541
 Red. masses --      1.5415                 1.1367                 1.0923
 Frc consts  --      2.0612                 1.5242                 1.4702
 IR Inten    --     10.5087                33.7766                14.7827

                     85                     86                     87
                      A                      A                      A
 Frequencies --   1523.1909              1528.6746              1532.2690
 Red. masses --      1.1002                 1.2318                 1.3138
 Frc consts  --      1.5039                 1.6960                 1.8174
 IR Inten    --      6.5854                 6.6045                 8.1812

                     88                     89                     90
                      A                      A                      A
 Frequencies --   1547.0087              1585.3680              2989.0879
 Red. masses --      3.2849                 4.9267                 1.0716
 Frc consts  --      4.6319                 7.2956                 5.6413
 IR Inten    --     20.3040                69.7181                55.1617

                     91                     92                     93
                      A                      A                      A
 Frequencies --   3057.7143              3062.1142              3071.5156
 Red. masses --      1.0421                 1.0599                 1.0671
 Frc consts  --      5.7403                 5.8552                 5.9314
 IR Inten    --     12.0285                19.8500                21.2940

                     94                     95                     96
                      A                      A                      A
 Frequencies --   3073.2587              3075.0713              3078.9219
 Red. masses --      1.0361                 1.0634                 1.0585
 Frc consts  --      5.7659                 5.9246                 5.9119
 IR Inten    --     12.1224                12.9739                11.2674

                     97                     98                     99
                      A                      A                      A
 Frequencies --   3088.3633              3097.9140              3107.6703
 Red. masses --      1.0613                 1.0920                 1.1036
 Frc consts  --      5.9639                 6.1745                 6.2794
 IR Inten    --     12.1808                64.8422                15.1201

                    100                    101                    102
                      A                      A                      A
 Frequencies --   3116.6780              3133.2012              3135.4470
 Red. masses --      1.0995                 1.1056                 1.0997
 Frc consts  --      6.2923                 6.3949                 6.3697
 IR Inten    --     12.8037                12.5297                 8.2176

                    103                    104                    105
                      A                      A                      A
 Frequencies --   3140.8647              3144.2558              3150.1342
 Red. masses --      1.1018                 1.1005                 1.1064
 Frc consts  --      6.4042                 6.4105                 6.4686
 IR Inten    --     11.9454                 2.7575                 4.3875

                    106                    107                    108
                      A                      A                      A
 Frequencies --   3159.5787              3176.5013              3609.9362
 Red. masses --      1.1045                 1.0982                 1.0652
 Frc consts  --      6.4967                 6.5290                 8.1788
 IR Inten    --     10.2808                 0.0471               246.4454

 - Thermochemistry -
 -------------------
 Temperature   298.150 Kelvin.  Pressure   1.00000 Atm.
 Atom     1 has atomic number  6 and mass  12.00000

 Molecular mass:   305.08679 amu.
 Principal axes and moments of inertia in atomic units:
                           1         2         3
     Eigenvalues --  2804.70545********************
           X            0.99999  -0.00050  -0.00539
           Y            0.00127   0.98953   0.14435
           Z            0.00526  -0.14436   0.98951
 This molecule is an asymmetric top.
 Rotational symmetry number  1.
 Warning -- assumption of classical behavior for rotation
           may cause significant error
 Rotational temperatures (Kelvin)      0.03088     0.00837     0.00809
 Rotational constants (GHZ):           0.64347     0.17443     0.16850
 Zero-point vibrational energy     822904.0 (Joules/Mol)
                                  196.67879 (Kcal/Mol)
 Warning -- explicit consideration of  31 degrees of freedom as
           vibrations may cause significant error
 Vibrational temperatures:     28.45    34.94    52.86    82.67   126.94
          (Kelvin)            141.85   161.54   191.97   204.98   219.29
                              254.03   274.44   312.64   342.95   372.09
                              390.29   409.88   429.43   468.12   481.72
                              513.03   549.05   591.60   606.89   664.03
                              688.34   716.71   815.97   833.18   841.51
                              876.09   905.23   937.98   948.08   967.12
                              985.42   994.41  1020.95  1192.24  1202.84
                             1263.27  1300.06  1387.99  1394.89  1425.25
                             1441.27  1474.69  1491.45  1528.12  1549.41
                             1552.16  1554.81  1575.16  1583.20  1588.19
                             1652.79  1677.92  1715.00  1722.40  1794.30
                             1795.27  1822.59  1824.69  1865.95  1910.29
                             1910.52  1926.18  1999.51  2002.62  2013.83
                             2037.68  2042.18  2059.21  2077.71  2085.26
                             2120.87  2143.58  2148.16  2156.69  2157.56
                             2164.25  2167.49  2170.57  2174.65  2191.53
                             2199.42  2204.59  2225.80  2280.99  4300.63
                             4399.37  4405.70  4419.23  4421.73  4424.34
                             4429.88  4443.47  4457.21  4471.24  4484.20
                             4507.98  4511.21  4519.00  4523.88  4532.34
                             4545.93  4570.28  5193.89

 Zero-point correction=                           0.313428 (Hartree/Particle)
 Thermal correction to Energy=                    0.333168
 Thermal correction to Enthalpy=                  0.334112
 Thermal correction to Gibbs Free Energy=         0.263486
 Sum of electronic and zero-point Energies=          -1616.607927
 Sum of electronic and thermal Energies=             -1616.588187
 Sum of electronic and thermal Enthalpies=           -1616.587243
 Sum of electronic and thermal Free Energies=        -1616.657869

                     E (Thermal)             CV                S
                      KCal/Mol        Cal/Mol-Kelvin    Cal/Mol-Kelvin
 Total                  209.066             73.632            148.646
 Electronic               0.000              0.000              0.000
 Translational            0.889              2.981             43.043
 Rotational               0.889              2.981             34.096
 Vibrational            207.289             67.670             71.507
 Vibration     1          0.593              1.986              6.657
 Vibration     2          0.593              1.985              6.249
 Vibration     3          0.594              1.982              5.428
 Vibration     4          0.596              1.975              4.543
 Vibration     5          0.601              1.957              3.699
 Vibration     6          0.604              1.950              3.482
 Vibration     7          0.607              1.939              3.229
 Vibration     8          0.613              1.920              2.896
 Vibration     9          0.616              1.911              2.770
 Vibration    10          0.619              1.900              2.642
 Vibration    11          0.628              1.871              2.364
 Vibration    12          0.634              1.853              2.221
 Vibration    13          0.646              1.815              1.981
 Vibration    14          0.656              1.782              1.815
 Vibration    15          0.667              1.748              1.671
 Vibration    16          0.675              1.726              1.588
 Vibration    17          0.683              1.702              1.504
 Vibration    18          0.692              1.677              1.425
 Vibration    19          0.709              1.625              1.283
 Vibration    20          0.716              1.606              1.237
 Vibration    21          0.732              1.562              1.137
 Vibration    22          0.751              1.509              1.033
 Vibration    23          0.775              1.446              0.922
 Vibration    24          0.784              1.423              0.886
 Vibration    25          0.819              1.335              0.762
 Vibration    26          0.835              1.298              0.714
 Vibration    27          0.854              1.254              0.663
 Vibration    28          0.923              1.102              0.510
 Vibration    29          0.936              1.077              0.487
 Vibration    30          0.942              1.064              0.476
 Vibration    31          0.968              1.013              0.435

                           ! Non-Optimized Parameters !
 Normal termination of Gaussian 16 at Sun Dec 13 16:46:42 2020.

 ----------------------------------------------------------------------
 # B3LYP/6-311++G(d,p) empiricaldispersion=gd3bj scf=xqc pop=npa geom=c
 heck
 ----------------------------------------------------------------------

 --------------------------------------
 CID_65751214_JID_9423_Energie_neutraal
 --------------------------------------
 Structure from the checkpoint file:  "JID_9423.chk"
 Charge =  0 Multiplicity = 1

 SCF Done:  E(RB3LYP) =  -1617.20848750     A.U. after   16 cycles
 Normal termination of Gaussian 16 at Sun Dec 13 16:57:20 2020.

 ----------------------------------------------------------------------
 # B3LYP/6-311++G(d,p) empiricaldispersion=gd3bj scf=xqc pop=npa geom=c
 heck
 ----------------------------------------------------------------------

 ------------------------------------
 CID_65751214_JID_9423_Energie_kation
 ------------------------------------
 Structure from the checkpoint file:  "JID_9423.chk"
 Charge =  1 Multiplicity = 2

 SCF Done:  E(UB3LYP) =  -1616.91022291     A.U. after   30 cycles
 Normal termination of Gaussian 16 at Sun Dec 13 17:24:38 2020.
 Gaussian 16:  ES64L-G16RevA.03 25-Dec-2016

 ----------------------------------------------------------------------
 # B3LYP/6-311++G(d,p) empiricaldispersion=gd3bj scf=xqc pop=npa geom=c
 heck
 ----------------------------------------------------------------------

 -----------------------------------
 CID_65751214_JID_9423_Energie_anion
 -----------------------------------
 Structure from the checkpoint file:  "JID_9423.chk"
 Charge = -1 Multiplicity = 2

                         Standard orientation:
 ---------------------------------------------------------------------
 Center     Atomic      Atomic             Coordinates (Angstroms)
 Number     Number       Type             X           Y           Z
 ---------------------------------------------------------------------
      1          6           0        1.388736   -2.456904   -0.402136
      2          6           0        1.643246   -1.065358    0.073617
      3          6           0        0.789070   -0.147621    0.687273
      4          6           0        1.552204    1.028932    0.918320
      5          7           0        2.792245    0.841726    0.475300
      6          7           0        2.828828   -0.425371   -0.037662
      7          6           0        4.082602   -0.914298   -0.606948
      8          6           0        4.733628    0.135149   -1.515243
      9          8           0        5.255451    1.227461   -0.797769
     10          6           0        1.153006    2.325100    1.545495
     11         16           0       -0.888834   -0.441577    1.091371
     12          8           0       -1.040502   -1.761044    1.717926
     13          8           0       -1.381073    0.753437    1.795660
     14          7           0       -1.569531   -0.597632   -0.455948
     15          6           0       -2.807639   -1.394408   -0.520704
     16          6           0       -4.060770   -0.628546   -0.094807
     17         16           0       -4.358091    0.836093   -1.158540
     18          6           0       -2.706889    1.607799   -0.949423
     19          6           0       -1.575419    0.629538   -1.270956
     20          1           0        2.191367   -3.135958   -0.097581
     21          1           0        1.305712   -2.494004   -1.494989
     22          1           0        0.453830   -2.819706    0.025965
     23          1           0        4.770930   -1.167204    0.207044
     24          1           0        3.854417   -1.821748   -1.170988
     25          1           0        5.572938   -0.338099   -2.036089
     26          1           0        3.998736    0.445316   -2.277448
     27          1           0        4.514271    1.561246   -0.254222
     28          1           0        0.337204    2.798738    0.990665
     29          1           0        0.788172    2.170166    2.564243
     30          1           0        2.013529    2.998111    1.563740
     31          1           0       -2.665303   -2.274685    0.109559
     32          1           0       -2.907486   -1.723497   -1.560993
     33          1           0       -4.944549   -1.265305   -0.197346
     34          1           0       -3.982558   -0.314314    0.950826
     35          1           0       -2.604572    1.984076    0.070930
     36          1           0       -2.675249    2.453535   -1.642958
     37          1           0       -0.604100    1.120150   -1.146077
     38          1           0       -1.648926    0.304740   -2.314873
 ---------------------------------------------------------------------

 SCF Done:  E(UB3LYP) =  -1617.20358332     A.U. after   33 cycles
 SCF Done:  E(UB3LYP) =  -1617.20358332     a.u. after    1 cycles

 The electronic state is 2-A.
 Alpha  occ. eigenvalues --  -88.98412 -88.76168 -19.03438 -19.03377 -19.02173
 Alpha  occ. eigenvalues --  -14.31531 -14.26419 -14.25510 -10.15080 -10.13660
 Alpha  occ. eigenvalues --  -10.13308 -10.13260 -10.12991 -10.12877 -10.12480
 Alpha  occ. eigenvalues --  -10.11964 -10.11159 -10.09152 -10.08769  -8.04510
 Alpha  occ. eigenvalues --   -7.84792  -6.00783  -6.00755  -6.00632  -5.81175
 Alpha  occ. eigenvalues --   -5.80845  -5.80149  -1.03666  -0.97863  -0.92886
 Alpha  occ. eigenvalues --   -0.92545  -0.86424  -0.78316  -0.74428  -0.72688
 Alpha  occ. eigenvalues --   -0.69996  -0.67773  -0.65181  -0.62426  -0.61248
 Alpha  occ. eigenvalues --   -0.57446  -0.56523  -0.54016  -0.52317  -0.48305
 Alpha  occ. eigenvalues --   -0.47252  -0.44042  -0.43550  -0.42658  -0.41218
 Alpha  occ. eigenvalues --   -0.39949  -0.38571  -0.38205  -0.37454  -0.36781
 Alpha  occ. eigenvalues --   -0.36417  -0.35334  -0.35052  -0.34175  -0.33842
 Alpha  occ. eigenvalues --   -0.33395  -0.32691  -0.32472  -0.32048  -0.31378
 Alpha  occ. eigenvalues --   -0.29707  -0.29613  -0.29344  -0.26912  -0.26442
 Alpha  occ. eigenvalues --   -0.26332  -0.25128  -0.24141  -0.22708  -0.22539
 Alpha  occ. eigenvalues --   -0.21612  -0.19219  -0.18497  -0.17372  -0.17117
 Alpha  occ. eigenvalues --   -0.14492   0.03766
 Alpha virt. eigenvalues --    0.06034   0.06295   0.07069   0.07118   0.07972
 Alpha virt. eigenvalues --    0.08062   0.08820   0.09078   0.09285   0.09449
 Alpha virt. eigenvalues --    0.10283   0.10398   0.11069   0.11187   0.11412

  Beta  occ. eigenvalues --  -88.98411 -88.76166 -19.03437 -19.03375 -19.02168
  Beta  occ. eigenvalues --  -14.31529 -14.26420 -14.25489 -10.15062 -10.13659
  Beta  occ. eigenvalues --  -10.13294 -10.13231 -10.12964 -10.12838 -10.12477
  Beta  occ. eigenvalues --  -10.11954 -10.11158 -10.09143 -10.08711  -8.04509
  Beta  occ. eigenvalues --   -7.84790  -6.00782  -6.00754  -6.00631  -5.81173
  Beta  occ. eigenvalues --   -5.80843  -5.80145  -1.03664  -0.97840  -0.92875
  Beta  occ. eigenvalues --   -0.92543  -0.86416  -0.78286  -0.74397  -0.72669
  Beta  occ. eigenvalues --   -0.69970  -0.67737  -0.65148  -0.62364  -0.61218
  Beta  occ. eigenvalues --   -0.57411  -0.56492  -0.53967  -0.52294  -0.48283
  Beta  occ. eigenvalues --   -0.47204  -0.44009  -0.43513  -0.42639  -0.41182
  Beta  occ. eigenvalues --   -0.39922  -0.38548  -0.38153  -0.37437  -0.36763
  Beta  occ. eigenvalues --   -0.36382  -0.35299  -0.35028  -0.34141  -0.33813
  Beta  occ. eigenvalues --   -0.33364  -0.32645  -0.32429  -0.32011  -0.31342
  Beta  occ. eigenvalues --   -0.29674  -0.29580  -0.29298  -0.26908  -0.26411
  Beta  occ. eigenvalues --   -0.26315  -0.25120  -0.24132  -0.22698  -0.22535
  Beta  occ. eigenvalues --   -0.21582  -0.19195  -0.18466  -0.17311  -0.17082
  Beta  occ. eigenvalues --   -0.14476
  Beta virt. eigenvalues --    0.06048   0.06406   0.06839   0.07369   0.07443
  Beta virt. eigenvalues --    0.08448   0.08507   0.09103   0.09190   0.09601
  Beta virt. eigenvalues --    0.09722   0.10360   0.10674   0.11184   0.11280

 Mulliken charges and spin densities:
               1          2
     1  C    1.718034  -2.220706
     2  C   -0.407075   0.823662
     3  C   -1.523553   0.719347
     4  C    0.193136   0.095863
     5  N   -0.270982   0.250400
     6  N    0.189809   0.017061
     7  C    0.353820  -0.431232
     8  C    0.654832  -1.118943
     9  O   -0.308108   0.033215
    10  C   -0.638907  -0.255158
    11  S    0.871397  -0.905249
    12  O   -0.153231   0.016548
    13  O   -0.038197  -0.002897
    14  N   -0.034745   0.111418
    15  C   -0.058147  -0.233701
    16  C   -0.380346  -0.015146
    17  S    0.102989  -0.146859
    18  C   -0.128962  -0.408507
    19  C   -0.167590  -0.165066
    20  H   -0.446648   0.622667
    21  H   -0.603856   0.841319
    22  H    0.169967   0.038081
    23  H   -0.078547   0.299782
    24  H   -0.584483   0.743599
    25  H   -0.212331   0.387838
    26  H   -0.196933   0.358567
    27  H    0.288054   0.002083
    28  H    0.092045   0.058282
    29  H    0.138702   0.051988
    30  H    0.088747   0.062190
    31  H    0.134423   0.065717
    32  H   -0.077238   0.248160
    33  H    0.143407   0.070499
    34  H    0.223912  -0.000011
    35  H    0.254761  -0.015054
    36  H   -0.079796   0.298182
    37  H    0.142206   0.138211
    38  H   -0.370566   0.563849
 Sum of Mulliken charges =  -1.00000   1.00000

 Dipole moment (field-independent basis, Debye):
    X=             -6.4732    Y=              3.7555    Z=              4.8640  Tot=              8.9255
 Quadrupole moment (field-independent basis, Debye-Ang):
   XX=           -218.1148   YY=           -173.8377   ZZ=           -180.3390
   XY=             12.1424   XZ=             11.6906   YZ=             -5.6415

 Summary of Natural Population Analysis:

                                       Natural Population
                Natural  -----------------------------------------------
    Atom  No    Charge         Core      Valence    Rydberg      Total
 -----------------------------------------------------------------------
      C    1   -0.30991      0.99962     2.30404    0.00624     3.30991
      C    2    0.13123      0.99946     1.85658    0.01273     2.86877
      C    3   -0.21810      0.99923     2.20351    0.01536     3.21810
      C    4    0.10017      0.99954     1.88537    0.01492     2.89983
      N    5   -0.17957      0.99967     2.66756    0.01234     3.67957
      N    6   -0.10214      0.99961     2.58919    0.01334     3.60214
      C    7   -0.09729      0.99960     2.08588    0.01182     3.09729
      C    8   -0.01378      0.99961     2.00065    0.01352     3.01378
      O    9   -0.37840      0.99990     3.37164    0.00686     4.37840
      C   10   -0.29782      0.99962     2.29387    0.00433     3.29782
      S   11    1.11663      4.99908     1.78204    0.10225     6.88337
      O   12   -0.46327      0.99991     3.45862    0.00474     4.46327
      O   13   -0.46936      0.99991     3.46459    0.00487     4.46936
      N   14   -0.37197      0.99974     2.85342    0.01881     3.87197
      C   15   -0.09764      0.99959     2.08479    0.01327     3.09764
      C   16   -0.25989      0.99958     2.25101    0.00929     3.25989
      S   17    0.08342      4.99965     2.89905    0.01788     7.91658
      C   18   -0.26099      0.99958     2.25137    0.01004     3.26099
      C   19   -0.09842      0.99958     2.08357    0.01527     3.09842
      H   20    0.11202      0.00000     0.38658    0.00139     0.38798
      H   21    0.12177      0.00000     0.37268    0.00555     0.37823
      H   22    0.12076      0.00000     0.37766    0.00157     0.37924
      H   23    0.10262      0.00000     0.39594    0.00144     0.39738
      H   24    0.11377      0.00000     0.38231    0.00392     0.38623
      H   25    0.09123      0.00000     0.40741    0.00135     0.40877
      H   26    0.08127      0.00000     0.41700    0.00174     0.41873
      H   27    0.24255      0.00000     0.25386    0.00359     0.25745
      H   28    0.10942      0.00000     0.38956    0.00101     0.39058
      H   29    0.11332      0.00000     0.38573    0.00095     0.38668
      H   30    0.10636      0.00000     0.39277    0.00087     0.39364
      H   31    0.11564      0.00000     0.38313    0.00123     0.38436
      H   32    0.10404      0.00000     0.39427    0.00168     0.39596
      H   33    0.10759      0.00000     0.39160    0.00081     0.39241
      H   34    0.10653      0.00000     0.39213    0.00133     0.39347
      H   35    0.11242      0.00000     0.38610    0.00148     0.38758
      H   36    0.10960      0.00000     0.38947    0.00093     0.39040
      H   37    0.10941      0.00000     0.38891    0.00168     0.39059
      H   38    0.10675      0.00000     0.39077    0.00247     0.39325
 =======================================================================
   * Total *   -0.00000     26.99247    53.66464    0.34290    81.00000

 Normal termination of Gaussian 16 at Sun Dec 13 17:53:49 2020.
