 Gaussian 16, Revision A.03,

 -----------------------------------------------------------
 # opt freq B3LYP/6-31G(d) empiricaldispersion=gd3bj scf=xqc
 -----------------------------------------------------------

 ------------------------------
 CID_30865669_JID_8343_neutraal
 ------------------------------
 Symbolic Z-matrix:
 Charge =  0 Multiplicity = 1

 SCF Done:  E(RB3LYP) =  -811.726375990     A.U. after   15 cycles
 SCF Done:  E(RB3LYP) =  -811.735648591     A.U. after   14 cycles
 SCF Done:  E(RB3LYP) =  -811.736751472     A.U. after   13 cycles
 SCF Done:  E(RB3LYP) =  -811.737114754     A.U. after   12 cycles
 SCF Done:  E(RB3LYP) =  -811.737604072     A.U. after   12 cycles
 SCF Done:  E(RB3LYP) =  -811.738083131     A.U. after   13 cycles
 SCF Done:  E(RB3LYP) =  -811.738906798     A.U. after   13 cycles
 SCF Done:  E(RB3LYP) =  -811.739362021     A.U. after   12 cycles
 SCF Done:  E(RB3LYP) =  -811.739419174     A.U. after   12 cycles
 SCF Done:  E(RB3LYP) =  -811.739537150     A.U. after   12 cycles
 SCF Done:  E(RB3LYP) =  -811.739598990     A.U. after    9 cycles
 SCF Done:  E(RB3LYP) =  -811.739604214     A.U. after    9 cycles
 SCF Done:  E(RB3LYP) =  -811.739609337     A.U. after   10 cycles
 SCF Done:  E(RB3LYP) =  -811.739611474     A.U. after    9 cycles
 SCF Done:  E(RB3LYP) =  -811.739612015     A.U. after    8 cycles
 SCF Done:  E(RB3LYP) =  -811.739612312     A.U. after    8 cycles
 Optimization completed.
    -- Stationary point found.
 Normal termination of Gaussian 16 at Fri Dec 11 20:09:24 2020.

 --------------------------------------------------------------------
 #N Geom=AllCheck Guess=TCheck SCRF=Check GenChk RB3LYP/6-31G(d) Freq
 --------------------------------------------------------------------

 Structure from the checkpoint file:  "JID_8343.chk"
 ------------------------------
 CID_30865669_JID_8343_neutraal
 ------------------------------
 Charge =  0 Multiplicity = 1

 SCF Done:  E(RB3LYP) =  -811.739612312     A.U. after    1 cycles

  Exact polarizability: 157.282 -12.363 185.706 -32.823   6.931 103.435
 Approx polarizability: 254.606 -30.098 337.103 -78.328  15.319 184.759

                      1                      2                      3
                      A                      A                      A
 Frequencies --     37.1089                48.2051                60.3854
 Red. masses --      6.0752                 6.7063                 5.6947
 Frc consts  --      0.0049                 0.0092                 0.0122
 IR Inten    --      0.9948                 1.1882                 4.2284

                      4                      5                      6
                      A                      A                      A
 Frequencies --     88.5182               121.3926               158.9191
 Red. masses --      9.5820                 5.5761                 5.4521
 Frc consts  --      0.0442                 0.0484                 0.0811
 IR Inten    --      0.3093                 2.2462                 0.4325

                      7                      8                      9
                      A                      A                      A
 Frequencies --    184.2716               207.7973               285.3337
 Red. masses --      4.5995                 4.5052                 6.2084
 Frc consts  --      0.0920                 0.1146                 0.2978
 IR Inten    --      4.4692                 3.5920                 0.5663

                     10                     11                     12
                      A                      A                      A
 Frequencies --    341.9018               385.6674               397.7960
 Red. masses --      7.8733                 6.7621                 3.0472
 Frc consts  --      0.5423                 0.5926                 0.2841
 IR Inten    --      8.8375                16.2201                13.7694

                     13                     14                     15
                      A                      A                      A
 Frequencies --    419.7287               471.4563               481.4504
 Red. masses --      4.8932                 2.2607                 3.0303
 Frc consts  --      0.5079                 0.2961                 0.4138
 IR Inten    --      0.7931                41.7926                15.7602

                     16                     17                     18
                      A                      A                      A
 Frequencies --    486.2461               501.6953               530.0628
 Red. masses --      4.7125                 1.4359                 5.2520
 Frc consts  --      0.6565                 0.2129                 0.8694
 IR Inten    --      0.8701                66.6687                17.7506

                     19                     20                     21
                      A                      A                      A
 Frequencies --    545.0941               564.5615               623.3383
 Red. masses --      3.0652                 6.5845                 4.3039
 Frc consts  --      0.5366                 1.2365                 0.9853
 IR Inten    --     30.1504                 5.5464                 6.1828

                     22                     23                     24
                      A                      A                      A
 Frequencies --    661.7060               681.2376               692.0336
 Red. masses --      4.1267                 4.7634                 3.9534
 Frc consts  --      1.0646                 1.3025                 1.1155
 IR Inten    --      9.8810                20.9223                23.7563

                     25                     26                     27
                      A                      A                      A
 Frequencies --    737.5192               746.5682               783.1552
 Red. masses --      5.1153                 3.2584                 1.6195
 Frc consts  --      1.6393                 1.0700                 0.5852
 IR Inten    --      6.7665                21.1085                 4.3448

                     28                     29                     30
                      A                      A                      A
 Frequencies --    813.2461               833.4732               852.5381
 Red. masses --      1.7707                 5.5033                 3.3386
 Frc consts  --      0.6900                 2.2525                 1.4297
 IR Inten    --     53.1548                 1.0398                 4.6632

                     31                     32                     33
                      A                      A                      A
 Frequencies --    861.2387               891.1066               900.1634
 Red. masses --      5.0335                 1.3621                 5.4933
 Frc consts  --      2.1997                 0.6373                 2.6226
 IR Inten    --      9.4464                 7.8254                21.0303

                     34                     35                     36
                      A                      A                      A
 Frequencies --    942.7409               966.2858               982.0076
 Red. masses --      1.3997                 1.4185                 7.0941
 Frc consts  --      0.7330                 0.7803                 4.0307
 IR Inten    --      0.5349                 0.8031                22.7081

                     37                     38                     39
                      A                      A                      A
 Frequencies --    985.6489               995.2276              1029.7269
 Red. masses --      1.3466                 1.3395                 5.6369
 Frc consts  --      0.7708                 0.7817                 3.5216
 IR Inten    --      0.4324                 1.1794                 2.2046

                     40                     41                     42
                      A                      A                      A
 Frequencies --   1066.4870              1075.1980              1104.5059
 Red. masses --      2.6730                 3.0253                 2.0966
 Frc consts  --      1.7913                 2.0606                 1.5070
 IR Inten    --      2.0200                22.0469                17.9135

                     43                     44                     45
                      A                      A                      A
 Frequencies --   1124.3586              1165.7742              1185.9604
 Red. masses --      4.5561                 1.3763                 1.3817
 Frc consts  --      3.3935                 1.1021                 1.1450
 IR Inten    --      9.6601                10.9526                10.9942

                     46                     47                     48
                      A                      A                      A
 Frequencies --   1231.2189              1240.6062              1254.8760
 Red. masses --      2.4106                 1.8537                 2.2658
 Frc consts  --      2.1530                 1.6810                 2.1022
 IR Inten    --     29.3320                31.5725                 2.7411

                     49                     50                     51
                      A                      A                      A
 Frequencies --   1275.9776              1282.6273              1312.3284
 Red. masses --      1.8511                 1.7572                 3.3623
 Frc consts  --      1.7757                 1.7033                 3.4117
 IR Inten    --      6.5608                 8.5983                20.5760

                     52                     53                     54
                      A                      A                      A
 Frequencies --   1348.9464              1378.1560              1403.3271
 Red. masses --      3.5751                 3.3997                 5.0756
 Frc consts  --      3.8329                 3.8045                 5.8891
 IR Inten    --    198.3074                97.5009                 6.9337

                     55                     56                     57
                      A                      A                      A
 Frequencies --   1435.2632              1438.9823              1448.2146
 Red. masses --      2.3048                 2.3048                 2.5179
 Frc consts  --      2.7973                 2.8119                 3.1114
 IR Inten    --      6.9927                14.5055                19.0708

                     58                     59                     60
                      A                      A                      A
 Frequencies --   1475.3437              1519.5666              1545.0456
 Red. masses --      2.0506                 2.7782                 3.7610
 Frc consts  --      2.6297                 3.7796                 5.2897
 IR Inten    --      6.0599                 2.7124                74.4095

                     61                     62                     63
                      A                      A                      A
 Frequencies --   1553.9767              1622.7324              1629.4214
 Red. masses --      3.9113                 5.6930                 6.7221
 Frc consts  --      5.5649                 8.8325                10.5153
 IR Inten    --     46.8008               133.8385                81.4068

                     64                     65                     66
                      A                      A                      A
 Frequencies --   1657.3897              1671.4003              1776.0320
 Red. masses --      5.2339                 6.3064                 8.9354
 Frc consts  --      8.4708                10.3800                16.6061
 IR Inten    --      7.7673                 9.9120               356.2265

                     67                     68                     69
                      A                      A                      A
 Frequencies --   3165.1295              3185.6857              3189.3689
 Red. masses --      1.0895                 1.0884                 1.0890
 Frc consts  --      6.4305                 6.5079                 6.5264
 IR Inten    --     24.8310                 0.8983                13.0776

                     70                     71                     72
                      A                      A                      A
 Frequencies --   3209.2515              3218.0778              3227.4918
 Red. masses --      1.0926                 1.0960                 1.0934
 Frc consts  --      6.6301                 6.6876                 6.7107
 IR Inten    --     18.4275                19.0632                 5.4268

                     73                     74                     75
                      A                      A                      A
 Frequencies --   3278.0504              3582.2593              3662.0617
 Red. masses --      1.0970                 1.0754                 1.0818
 Frc consts  --      6.9453                 8.1311                 8.5479
 IR Inten    --      6.7723                44.2641                71.4558

 - Thermochemistry -
 -------------------
 Temperature   298.150 Kelvin.  Pressure   1.00000 Atm.
 Atom     1 has atomic number  6 and mass  12.00000

 Molecular mass:   239.08071 amu.
 Principal axes and moments of inertia in atomic units:
                           1         2         3
     Eigenvalues --  3002.641134050.256255702.75708
           X            0.99981   0.00941  -0.01693
           Y           -0.00918   0.99986   0.01403
           Z            0.01706  -0.01387   0.99976
 This molecule is an asymmetric top.
 Rotational symmetry number  1.
 Warning -- assumption of classical behavior for rotation
           may cause significant error
 Rotational temperatures (Kelvin)      0.02885     0.02138     0.01519
 Rotational constants (GHZ):           0.60105     0.44559     0.31647
 Zero-point vibrational energy     533759.7 (Joules/Mol)
                                  127.57162 (Kcal/Mol)
 Warning -- explicit consideration of  20 degrees of freedom as
           vibrations may cause significant error
 Vibrational temperatures:     53.39    69.36    86.88   127.36   174.66
          (Kelvin)            228.65   265.13   298.97   410.53   491.92
                              554.89   572.34   603.90   678.32   692.70
                              699.60   721.83   762.64   784.27   812.28
                              896.84   952.05   980.15   995.68  1061.13
                             1074.15  1126.79  1170.08  1199.18  1226.61
                             1239.13  1282.10  1295.13  1356.39  1390.27
                             1412.89  1418.13  1431.91  1481.55  1534.44
                             1546.97  1589.14  1617.70  1677.29  1706.33
                             1771.45  1784.96  1805.49  1835.85  1845.41
                             1888.15  1940.83  1982.86  2019.07  2065.02
                             2070.37  2083.66  2122.69  2186.32  2222.98
                             2235.83  2334.75  2344.37  2384.61  2404.77
                             2555.31  4553.92  4583.49  4588.79  4617.40
                             4630.10  4643.64  4716.38  5154.07  5268.89

 Zero-point correction=                           0.203298 (Hartree/Particle)
 Thermal correction to Energy=                    0.216810
 Thermal correction to Enthalpy=                  0.217754
 Thermal correction to Gibbs Free Energy=         0.161765
 Sum of electronic and zero-point Energies=           -811.536314
 Sum of electronic and thermal Energies=              -811.522802
 Sum of electronic and thermal Enthalpies=            -811.521858
 Sum of electronic and thermal Free Energies=         -811.577847

                     E (Thermal)             CV                S
                      KCal/Mol        Cal/Mol-Kelvin    Cal/Mol-Kelvin
 Total                  136.050             52.845            117.839
 Electronic               0.000              0.000              0.000
 Translational            0.889              2.981             42.316
 Rotational               0.889              2.981             32.606
 Vibrational            134.273             46.883             42.917
 Vibration     1          0.594              1.982              5.408
 Vibration     2          0.595              1.978              4.890
 Vibration     3          0.597              1.973              4.445
 Vibration     4          0.601              1.957              3.693
 Vibration     5          0.609              1.931              3.078
 Vibration     6          0.621              1.893              2.563
 Vibration     7          0.631              1.861              2.285
 Vibration     8          0.641              1.829              2.063
 Vibration     9          0.683              1.701              1.501
 Vibration    10          0.721              1.592              1.203
 Vibration    11          0.754              1.501              1.017
 Vibration    12          0.764              1.475              0.971
 Vibration    13          0.782              1.427              0.893
 Vibration    14          0.828              1.313              0.733
 Vibration    15          0.838              1.291              0.706
 Vibration    16          0.842              1.281              0.693
 Vibration    17          0.857              1.246              0.654
 Vibration    18          0.885              1.183              0.587
 Vibration    19          0.900              1.150              0.554
 Vibration    20          0.920              1.108              0.515

 Optimization completed.
    -- Stationary point found.
 Normal termination of Gaussian 16 at Fri Dec 11 20:20:03 2020.

 ----------------------------------------------------------------------
 # B3LYP/6-311++G(d,p) empiricaldispersion=gd3bj scf=xqc pop=npa geom=c
 heck
 ----------------------------------------------------------------------

 --------------------------------------
 CID_30865669_JID_8343_Energie_neutraal
 --------------------------------------
 Structure from the checkpoint file:  "JID_8343.chk"
 Charge =  0 Multiplicity = 1

 SCF Done:  E(RB3LYP) =  -811.956802844     A.U. after   16 cycles
 Normal termination of Gaussian 16 at Fri Dec 11 20:23:54 2020.

 ----------------------------------------------------------------------
 # B3LYP/6-311++G(d,p) empiricaldispersion=gd3bj scf=xqc pop=npa geom=c
 heck
 ----------------------------------------------------------------------

 ------------------------------------
 CID_30865669_JID_8343_Energie_kation
 ------------------------------------
 Structure from the checkpoint file:  "JID_8343.chk"
 Charge =  1 Multiplicity = 2

 SCF Done:  E(UB3LYP) =  -811.646227866     A.U. after   31 cycles
 Normal termination of Gaussian 16 at Fri Dec 11 20:34:16 2020.
 Gaussian 16:  ES64L-G16RevA.03 25-Dec-2016

 ----------------------------------------------------------------------
 # B3LYP/6-311++G(d,p) empiricaldispersion=gd3bj scf=xqc pop=npa geom=c
 heck
 ----------------------------------------------------------------------

 -----------------------------------
 CID_30865669_JID_8343_Energie_anion
 -----------------------------------
 Structure from the checkpoint file:  "JID_8343.chk"
 Charge = -1 Multiplicity = 2

                         Standard orientation:
 ---------------------------------------------------------------------
 Center     Atomic      Atomic             Coordinates (Angstroms)
 Number     Number       Type             X           Y           Z
 ---------------------------------------------------------------------
      1          6           0       -2.922624    1.278672    1.046218
      2          6           0       -3.081229   -0.075720    0.867516
      3          6           0       -2.112698   -0.820583    0.149121
      4          6           0       -0.956598   -0.163025   -0.379297
      5          6           0       -0.798962    1.237289   -0.146581
      6          6           0       -1.784932    1.932431    0.527103
      7          6           0        0.350709    2.052785   -0.655634
      8          8           0        0.182456    3.168937   -1.124976
      9          7           0        1.638792    1.542150   -0.572202
     10          6           0        2.069039    0.465643    0.190428
     11          7           0        1.685152    0.133948    1.411787
     12          6           0        2.405305   -1.001132    1.651246
     13          7           0        3.225042   -1.376408    0.680494
     14          7           0        2.998946   -0.411166   -0.254567
     15          7           0       -0.018912   -0.831088   -1.108579
     16          6           0       -0.175919   -2.125630   -1.293423
     17          6           0       -1.269818   -2.873399   -0.795634
     18          6           0       -2.239107   -2.213346   -0.080687
     19          1           0       -3.668284    1.852494    1.587730
     20          1           0       -3.950934   -0.592237    1.265586
     21          1           0       -1.664043    3.002168    0.658947
     22          1           0        2.333802    2.178489   -0.945510
     23          1           0        2.335189   -1.554682    2.577312
     24          1           0        3.387924   -0.498047   -1.181811
     25          1           0        0.599904   -2.626510   -1.870965
     26          1           0       -1.330604   -3.939930   -0.986589
     27          1           0       -3.104735   -2.739208    0.314316
 ---------------------------------------------------------------------

 SCF Done:  E(UB3LYP) =  -811.981193485     A.U. after   26 cycles

 The electronic state is 2-A.
 Alpha  occ. eigenvalues --  -18.96044 -14.28766 -14.23460 -14.23341 -14.19414
 Alpha  occ. eigenvalues --  -14.14801 -10.17091 -10.14393 -10.11505 -10.06663
 Alpha  occ. eigenvalues --  -10.05487 -10.04082 -10.03291 -10.03084 -10.02723
 Alpha  occ. eigenvalues --  -10.02446 -10.02316 -10.02033  -0.97530  -0.91628
 Alpha  occ. eigenvalues --   -0.82789  -0.79556  -0.78651  -0.71230  -0.70241
 Alpha  occ. eigenvalues --   -0.66237  -0.60718  -0.60412  -0.54672  -0.52874
 Alpha  occ. eigenvalues --   -0.50496  -0.49096  -0.48593  -0.48261  -0.43767
 Alpha  occ. eigenvalues --   -0.39130  -0.38635  -0.37925  -0.36364  -0.35732
 Alpha  occ. eigenvalues --   -0.33410  -0.32839  -0.31179  -0.29637  -0.29073
 Alpha  occ. eigenvalues --   -0.27725  -0.26778  -0.26661  -0.25779  -0.23567
 Alpha  occ. eigenvalues --   -0.22603  -0.20618  -0.20261  -0.20058  -0.18913
 Alpha  occ. eigenvalues --   -0.17839  -0.16419  -0.13777  -0.13446  -0.11319
 Alpha  occ. eigenvalues --   -0.11042  -0.09621   0.03344
 Alpha virt. eigenvalues --    0.07561   0.08819   0.09338   0.09744   0.09961
 Alpha virt. eigenvalues --    0.10631   0.11079   0.11767   0.12206   0.12675
 Alpha virt. eigenvalues --    0.13182   0.14049   0.14549   0.15105   0.15443

  Beta  occ. eigenvalues --  -18.95911 -14.28764 -14.23454 -14.23335 -14.19414
  Beta  occ. eigenvalues --  -14.14535 -10.17083 -10.14299 -10.11505 -10.06709
  Beta  occ. eigenvalues --  -10.05319 -10.04187 -10.03303 -10.02740 -10.02724
  Beta  occ. eigenvalues --  -10.02244 -10.02123 -10.01673  -0.97522  -0.91401
  Beta  occ. eigenvalues --   -0.82710  -0.79152  -0.78641  -0.71193  -0.69838
  Beta  occ. eigenvalues --   -0.65752  -0.60319  -0.60019  -0.54582  -0.52812
  Beta  occ. eigenvalues --   -0.49971  -0.48728  -0.48467  -0.48210  -0.43530
  Beta  occ. eigenvalues --   -0.39021  -0.38449  -0.37658  -0.36185  -0.35651
  Beta  occ. eigenvalues --   -0.33329  -0.32713  -0.30985  -0.29375  -0.28721
  Beta  occ. eigenvalues --   -0.27437  -0.26569  -0.26040  -0.25541  -0.23444
  Beta  occ. eigenvalues --   -0.22431  -0.20445  -0.19888  -0.18984  -0.18793
  Beta  occ. eigenvalues --   -0.17696  -0.15260  -0.13474  -0.13221  -0.10923
  Beta  occ. eigenvalues --   -0.10349  -0.07852
  Beta virt. eigenvalues --    0.07517   0.08712   0.08953   0.09570   0.09860
  Beta virt. eigenvalues --    0.09944   0.10843   0.11125   0.12034   0.12641
  Beta virt. eigenvalues --    0.12764   0.13135   0.14261   0.14572   0.15085

 Mulliken charges and spin densities:
               1          2
     1  C   -0.281632   0.013863
     2  C   -0.399696   0.288960
     3  C    0.389951  -0.128424
     4  C   -0.291101  -0.075140
     5  C    0.256606   0.096684
     6  C   -0.526726   0.198010
     7  C   -0.507219   0.048535
     8  O   -0.345660   0.044962
     9  N   -0.277316   0.004167
    10  C   -0.462075   0.001236
    11  N    0.009088   0.002110
    12  C    0.075668  -0.005866
    13  N   -0.085328   0.003385
    14  N   -0.043861   0.002657
    15  N    0.033878   0.109676
    16  C    0.049182   0.150811
    17  C   -0.665268   0.026660
    18  C    0.631642   0.269763
    19  H    0.105471  -0.001687
    20  H    0.072127  -0.021794
    21  H    0.161130  -0.009097
    22  H    0.289819   0.005149
    23  H    0.149400   0.000884
    24  H    0.308246   0.006285
    25  H    0.121002  -0.012269
    26  H    0.109712   0.000800
    27  H    0.122960  -0.020319
 Sum of Mulliken charges =  -1.00000   1.00000

 Dipole moment (field-independent basis, Debye):
    X=              3.5895    Y=             -1.9838    Z=              0.2909  Tot=              4.1116
 Quadrupole moment (field-independent basis, Debye-Ang):
   XX=           -121.2204   YY=           -134.0815   ZZ=           -115.6238
   XY=              7.1039   XZ=             -8.2931   YZ=              2.8434

 Summary of Natural Population Analysis:

                                       Natural Population
                Natural  -----------------------------------------------
    Atom  No    Charge         Core      Valence    Rydberg      Total
 -----------------------------------------------------------------------
      C    1   -0.11526      0.99957     2.10655    0.00914     3.11526
      C    2   -0.01999      0.99954     2.01178    0.00867     3.01999
      C    3   -0.06659      0.99949     2.05917    0.00793     3.06659
      C    4    0.09264      0.99946     1.89423    0.01368     2.90736
      C    5   -0.04592      0.99942     2.03300    0.01349     3.04592
      C    6   -0.03494      0.99954     2.02739    0.00801     3.03494
      C    7    0.36855      0.99963     1.61011    0.02171     2.63145
      O    8   -0.30963      0.99988     3.30387    0.00587     4.30963
      N    9   -0.32677      0.99962     2.81549    0.01165     3.82677
      C   10    0.29157      0.99963     1.69242    0.01638     2.70843
      N   11   -0.26193      0.99969     2.75208    0.01017     3.76193
      C   12    0.09048      0.99971     1.89124    0.01856     2.90952
      N   13   -0.16762      0.99974     2.65613    0.01175     3.66762
      N   14   -0.19021      0.99964     2.67548    0.01509     3.69021
      N   15   -0.22552      0.99969     2.71129    0.01454     3.72552
      C   16    0.06479      0.99962     1.92151    0.01408     2.93521
      C   17   -0.14363      0.99956     2.13516    0.00891     3.14363
      C   18   -0.01070      0.99954     2.00278    0.00838     3.01070
      H   19    0.08989      0.00000     0.40909    0.00102     0.41011
      H   20    0.08409      0.00000     0.41426    0.00165     0.41591
      H   21    0.09811      0.00000     0.40088    0.00101     0.40189
      H   22    0.19516      0.00000     0.30299    0.00184     0.30484
      H   23    0.08989      0.00000     0.40920    0.00091     0.41011
      H   24    0.20056      0.00000     0.29779    0.00165     0.29944
      H   25    0.07545      0.00000     0.42325    0.00130     0.42455
      H   26    0.09176      0.00000     0.40707    0.00117     0.40824
      H   27    0.08575      0.00000     0.41267    0.00158     0.41425
 =======================================================================
   * Total *   -0.00000     17.99297    43.77687    0.23016    62.00000

 Normal termination of Gaussian 16 at Fri Dec 11 20:42:59 2020.
