 Gaussian 16, Revision A.03,

 -----------------------------------------------------------
 # opt freq B3LYP/6-31G(d) empiricaldispersion=gd3bj scf=xqc
 -----------------------------------------------------------

 -------------------------------
 CID_130845491_JID_2749_neutraal
 -------------------------------
 Symbolic Z-matrix:
 Charge =  0 Multiplicity = 1

 SCF Done:  E(RB3LYP) =  -552.202516348     A.U. after   15 cycles
 SCF Done:  E(RB3LYP) =  -552.208552473     A.U. after   12 cycles
 SCF Done:  E(RB3LYP) =  -552.206810345     A.U. after   12 cycles
 SCF Done:  E(RB3LYP) =  -552.208814913     A.U. after   12 cycles
 SCF Done:  E(RB3LYP) =  -552.209741053     A.U. after   12 cycles
 SCF Done:  E(RB3LYP) =  -552.209810367     A.U. after   10 cycles
 SCF Done:  E(RB3LYP) =  -552.209875535     A.U. after   11 cycles
 SCF Done:  E(RB3LYP) =  -552.209910794     A.U. after   10 cycles
 SCF Done:  E(RB3LYP) =  -552.209985654     A.U. after   12 cycles
 SCF Done:  E(RB3LYP) =  -552.209998762     A.U. after   11 cycles
 SCF Done:  E(RB3LYP) =  -552.210070683     A.U. after    8 cycles
 SCF Done:  E(RB3LYP) =  -552.210071524     A.U. after    9 cycles
 SCF Done:  E(RB3LYP) =  -552.210071577     A.U. after    8 cycles
 SCF Done:  E(RB3LYP) =  -552.210071617     A.U. after    7 cycles
 SCF Done:  E(RB3LYP) =  -552.210071623     A.U. after    6 cycles
 Optimization completed.
    -- Stationary point found.
 Normal termination of Gaussian 16 at Wed Dec  9 17:54:53 2020.

 --------------------------------------------------------------------
 #N Geom=AllCheck Guess=TCheck SCRF=Check GenChk RB3LYP/6-31G(d) Freq
 --------------------------------------------------------------------

 Structure from the checkpoint file:  "JID_2749.chk"
 -------------------------------
 CID_130845491_JID_2749_neutraal
 -------------------------------
 Charge =  0 Multiplicity = 1

 SCF Done:  E(RB3LYP) =  -552.210071623     A.U. after    1 cycles

  Exact polarizability: 143.556  -4.052 105.869  -3.802   2.404  65.668
 Approx polarizability: 189.516 -23.547 182.857 -11.329  10.015  98.623

                      1                      2                      3
                      A                      A                      A
 Frequencies --     33.5430                51.3601                90.5210
 Red. masses --      3.6734                 2.8014                 2.2266
 Frc consts  --      0.0024                 0.0044                 0.0107
 IR Inten    --      1.3321                 0.7858                 1.2394

                      4                      5                      6
                      A                      A                      A
 Frequencies --    127.4411               173.0593               177.9474
 Red. masses --      3.4276                 2.9034                 3.9670
 Frc consts  --      0.0328                 0.0512                 0.0740
 IR Inten    --      1.0318                 0.4721                 3.7893

                      7                      8                      9
                      A                      A                      A
 Frequencies --    213.1065               266.8600               279.1014
 Red. masses --      4.0972                 3.5663                 1.1982
 Frc consts  --      0.1096                 0.1496                 0.0550
 IR Inten    --      5.2216                 1.2936                 0.7144

                     10                     11                     12
                      A                      A                      A
 Frequencies --    343.3283               354.4642               416.8584
 Red. masses --      2.4924                 1.4352                 2.7536
 Frc consts  --      0.1731                 0.1062                 0.2819
 IR Inten    --     24.1456                57.9228                20.2670

                     13                     14                     15
                      A                      A                      A
 Frequencies --    430.9279               477.1276               516.5962
 Red. masses --      2.3352                 2.8989                 4.8525
 Frc consts  --      0.2555                 0.3888                 0.7630
 IR Inten    --      4.5999                 3.5375                15.0364

                     16                     17                     18
                      A                      A                      A
 Frequencies --    531.7683               606.7255               622.6167
 Red. masses --      3.8961                 6.2248                 3.0423
 Frc consts  --      0.6491                 1.3501                 0.6949
 IR Inten    --      0.1959                 3.7865                 0.1384

                     19                     20                     21
                      A                      A                      A
 Frequencies --    736.9128               764.4026               773.6987
 Red. masses --      3.3766                 4.0291                 5.4150
 Frc consts  --      1.0803                 1.3871                 1.9098
 IR Inten    --      6.8352                 6.4846                 2.1919

                     22                     23                     24
                      A                      A                      A
 Frequencies --    802.2234               878.6068               881.3876
 Red. masses --      1.4129                 1.8797                 1.4925
 Frc consts  --      0.5357                 0.8549                 0.6831
 IR Inten    --      2.5058                64.0086                40.6322

                     25                     26                     27
                      A                      A                      A
 Frequencies --    936.2452               938.9692               951.7769
 Red. masses --      2.0136                 1.7530                 1.4081
 Frc consts  --      1.0399                 0.9106                 0.7515
 IR Inten    --     40.9300                36.3753                 1.4256

                     28                     29                     30
                      A                      A                      A
 Frequencies --    982.2278              1018.3196              1066.4134
 Red. masses --      1.8793                 2.3013                 2.5517
 Frc consts  --      1.0683                 1.4060                 1.7097
 IR Inten    --     60.0223                 3.1462                27.8381

                     31                     32                     33
                      A                      A                      A
 Frequencies --   1100.1163              1120.4879              1131.0279
 Red. masses --      2.1235                 1.6065                 2.1108
 Frc consts  --      1.5142                 1.1883                 1.5909
 IR Inten    --      1.2448                 0.2239                 3.6509

                     34                     35                     36
                      A                      A                      A
 Frequencies --   1145.7862              1180.9032              1234.5734
 Red. masses --      4.4826                 2.0869                 1.5749
 Frc consts  --      3.4672                 1.7147                 1.4143
 IR Inten    --     27.4721                20.5764                 4.5921

                     37                     38                     39
                      A                      A                      A
 Frequencies --   1243.8345              1271.9610              1298.8188
 Red. masses --      1.2194                 2.1691                 1.1600
 Frc consts  --      1.1115                 2.0677                 1.1529
 IR Inten    --      5.7466                13.0871                 0.0001

                     40                     41                     42
                      A                      A                      A
 Frequencies --   1327.6970              1349.3309              1386.6216
 Red. masses --      1.9781                 1.4290                 1.2612
 Frc consts  --      2.0545                 1.5329                 1.4287
 IR Inten    --     33.7229                12.7005                 8.6867

                     43                     44                     45
                      A                      A                      A
 Frequencies --   1410.7509              1423.2264              1444.5482
 Red. masses --      1.9352                 1.4601                 1.2862
 Frc consts  --      2.2692                 1.7425                 1.5813
 IR Inten    --      0.9420                46.8967                 5.6253

                     46                     47                     48
                      A                      A                      A
 Frequencies --   1459.9552              1477.1557              1493.6637
 Red. masses --      1.3884                 2.6800                 1.0957
 Frc consts  --      1.7435                 3.4453                 1.4402
 IR Inten    --      7.2814                37.4623                12.0714

                     49                     50                     51
                      A                      A                      A
 Frequencies --   1506.7080              1531.1792              1538.4962
 Red. masses --      1.1263                 1.0394                 1.0551
 Frc consts  --      1.5065                 1.4357                 1.4714
 IR Inten    --      9.2402                 6.8133                 8.8289

                     52                     53                     54
                      A                      A                      A
 Frequencies --   1542.2884              1599.2312              1663.8069
 Red. masses --      1.0908                 5.1710                 6.0575
 Frc consts  --      1.5287                 7.7919                 9.8798
 IR Inten    --      2.3167                87.9632               129.5755

                     55                     56                     57
                      A                      A                      A
 Frequencies --   1689.1799              1773.2472              2950.3312
 Red. masses --      1.1714                 7.3102                 1.0743
 Frc consts  --      1.9692                13.5431                 5.5096
 IR Inten    --    161.8345               505.1557                76.0615

                     58                     59                     60
                      A                      A                      A
 Frequencies --   3042.2218              3055.6571              3057.1195
 Red. masses --      1.0614                 1.0360                 1.0870
 Frc consts  --      5.7879                 5.6993                 5.9854
 IR Inten    --     11.9325                21.3859                40.5695

                     61                     62                     63
                      A                      A                      A
 Frequencies --   3067.7889              3095.4935              3121.8754
 Red. masses --      1.1006                 1.0606                 1.1028
 Frc consts  --      6.1029                 5.9878                 6.3327
 IR Inten    --      6.7324                26.0236                31.0949

                     64                     65                     66
                      A                      A                      A
 Frequencies --   3128.5115              3147.7325              3181.6982
 Red. masses --      1.1019                 1.1066                 1.0914
 Frc consts  --      6.3543                 6.4600                 6.5093
 IR Inten    --     31.1668                 4.1193                17.4789

                     67                     68                     69
                      A                      A                      A
 Frequencies --   3249.2287              3469.0615              3561.2407
 Red. masses --      1.0912                 1.0496                 1.0932
 Frc consts  --      6.7879                 7.4421                 8.1689
 IR Inten    --      1.2011                41.8938                19.2667

 - Thermochemistry -
 -------------------
 Temperature   298.150 Kelvin.  Pressure   1.00000 Atm.
 Atom     1 has atomic number  6 and mass  12.00000

 Molecular mass:   167.10586 amu.
 Principal axes and moments of inertia in atomic units:
                           1         2         3
     Eigenvalues --   809.224513554.495604148.60680
           X            0.99983   0.01838   0.00212
           Y           -0.01834   0.99972  -0.01479
           Z           -0.00239   0.01475   0.99989
 This molecule is an asymmetric top.
 Rotational symmetry number  1.
 Warning -- assumption of classical behavior for rotation
           may cause significant error
 Rotational temperatures (Kelvin)      0.10703     0.02437     0.02088
 Rotational constants (GHZ):           2.23021     0.50773     0.43502
 Zero-point vibrational energy     561749.0 (Joules/Mol)
                                  134.26123 (Kcal/Mol)
 Warning -- explicit consideration of  17 degrees of freedom as
           vibrations may cause significant error
 Vibrational temperatures:     48.26    73.90   130.24   183.36   248.99
          (Kelvin)            256.03   306.61   383.95   401.56   493.97
                              509.99   599.77   620.01   686.48   743.27
                              765.10   872.94   895.81  1060.25  1099.80
                             1113.18  1154.22  1264.12  1268.12  1347.05
                             1350.97  1369.39  1413.21  1465.13  1534.33
                             1582.82  1612.13  1627.30  1648.53  1699.06
                             1776.28  1789.60  1830.07  1868.71  1910.26
                             1941.39  1995.04  2029.76  2047.71  2078.38
                             2100.55  2125.30  2149.05  2167.82  2203.03
                             2213.55  2219.01  2300.94  2393.85  2430.35
                             2551.31  4244.87  4377.08  4396.41  4398.51
                             4413.86  4453.72  4491.68  4501.23  4528.89
                             4577.75  4674.92  4991.21  5123.83

 Zero-point correction=                           0.213959 (Hartree/Particle)
 Thermal correction to Energy=                    0.225799
 Thermal correction to Enthalpy=                  0.226743
 Thermal correction to Gibbs Free Energy=         0.175250
 Sum of electronic and zero-point Energies=           -551.996113
 Sum of electronic and thermal Energies=              -551.984272
 Sum of electronic and thermal Enthalpies=            -551.983328
 Sum of electronic and thermal Free Energies=         -552.034821

                     E (Thermal)             CV                S
                      KCal/Mol        Cal/Mol-Kelvin    Cal/Mol-Kelvin
 Total                  141.691             44.039            108.377
 Electronic               0.000              0.000              0.000
 Translational            0.889              2.981             41.249
 Rotational               0.889              2.981             30.857
 Vibrational            139.914             38.078             36.271
 Vibration     1          0.594              1.983              5.608
 Vibration     2          0.596              1.977              4.764
 Vibration     3          0.602              1.956              3.649
 Vibration     4          0.611              1.926              2.984
 Vibration     5          0.627              1.876              2.402
 Vibration     6          0.628              1.869              2.350
 Vibration     7          0.644              1.821              2.017
 Vibration     8          0.672              1.734              1.616
 Vibration     9          0.679              1.712              1.539
 Vibration    10          0.722              1.589              1.197
 Vibration    11          0.730              1.566              1.146
 Vibration    12          0.780              1.434              0.903
 Vibration    13          0.792              1.403              0.856
 Vibration    14          0.834              1.301              0.718
 Vibration    15          0.872              1.213              0.618
 Vibration    16          0.887              1.180              0.583
 Vibration    17          0.965              1.018              0.438

 Optimization completed.
    -- Stationary point found.
 Normal termination of Gaussian 16 at Wed Dec  9 18:00:50 2020.

 ----------------------------------------------------------------------
 # B3LYP/6-311++G(d,p) empiricaldispersion=gd3bj scf=xqc pop=npa geom=c
 heck
 ----------------------------------------------------------------------

 ---------------------------------------
 CID_130845491_JID_2749_Energie_neutraal
 ---------------------------------------
 Structure from the checkpoint file:  "JID_2749.chk"
 Charge =  0 Multiplicity = 1

 SCF Done:  E(RB3LYP) =  -552.372220844     A.U. after   15 cycles
 Normal termination of Gaussian 16 at Wed Dec  9 18:04:01 2020.

 ----------------------------------------------------------------------
 # B3LYP/6-311++G(d,p) empiricaldispersion=gd3bj scf=xqc pop=npa geom=c
 heck
 ----------------------------------------------------------------------

 -------------------------------------
 CID_130845491_JID_2749_Energie_kation
 -------------------------------------
 Structure from the checkpoint file:  "JID_2749.chk"
 Charge =  1 Multiplicity = 2

 SCF Done:  E(UB3LYP) =  -552.061190379     A.U. after   25 cycles
 Normal termination of Gaussian 16 at Wed Dec  9 18:10:13 2020.
 Gaussian 16:  ES64L-G16RevA.03 25-Dec-2016

 ----------------------------------------------------------------------
 # B3LYP/6-311++G(d,p) empiricaldispersion=gd3bj scf=xqc pop=npa geom=c
 heck
 ----------------------------------------------------------------------

 ------------------------------------
 CID_130845491_JID_2749_Energie_anion
 ------------------------------------
 Structure from the checkpoint file:  "JID_2749.chk"
 Charge = -1 Multiplicity = 2

                         Standard orientation:
 ---------------------------------------------------------------------
 Center     Atomic      Atomic             Coordinates (Angstroms)
 Number     Number       Type             X           Y           Z
 ---------------------------------------------------------------------
      1          6           0       -4.050274   -1.030354    0.242067
      2          6           0       -3.369015    0.336322    0.256448
      3          6           0       -1.876921    0.335537    0.042473
      4          6           0       -1.132762   -0.793750   -0.153408
      5          6           0        0.295791   -0.732761   -0.337627
      6          8           0        1.049794   -1.692218   -0.494096
      7          7           0        0.806952    0.591249   -0.325248
      8          6           0       -0.021925    1.651955   -0.123317
      9          7           0       -1.305215    1.592691    0.060321
     10          6           0        2.250500    0.796864   -0.528053
     11          6           0        3.121799    0.352745    0.664396
     12          7           0        3.758705   -0.930071    0.382270
     13          1           0       -3.907895   -1.539676   -0.717389
     14          1           0       -5.126833   -0.919291    0.404383
     15          1           0       -3.659090   -1.682359    1.030845
     16          1           0       -3.805304    0.990566   -0.510335
     17          1           0       -3.559283    0.850044    1.208473
     18          1           0       -1.571985   -1.782804   -0.168441
     19          1           0        0.464456    2.625623   -0.123129
     20          1           0        2.555735    0.236409   -1.414896
     21          1           0        2.380923    1.862678   -0.729978
     22          1           0        3.911601    1.099922    0.812556
     23          1           0        2.491353    0.380080    1.572410
     24          1           0        4.275522   -1.247477    1.199951
     25          1           0        3.026183   -1.612410    0.189051
 ---------------------------------------------------------------------

 SCF Done:  E(UB3LYP) =  -552.367395335     A.U. after   33 cycles
 SCF Done:  E(UB3LYP) =  -552.367395335     a.u. after    1 cycles

 The electronic state is 2-A.
 Alpha  occ. eigenvalues --  -18.94937 -14.22255 -14.16861 -14.16363 -10.13234
 Alpha  occ. eigenvalues --  -10.09477 -10.08454 -10.07740 -10.06428 -10.06032
 Alpha  occ. eigenvalues --  -10.05581 -10.01904  -0.90619  -0.84301  -0.77488
 Alpha  occ. eigenvalues --   -0.75645  -0.67376  -0.62826  -0.60810  -0.54576
 Alpha  occ. eigenvalues --   -0.51718  -0.49974  -0.45420  -0.40145  -0.38494
 Alpha  occ. eigenvalues --   -0.37044  -0.34740  -0.34391  -0.33661  -0.32472
 Alpha  occ. eigenvalues --   -0.30793  -0.29161  -0.28199  -0.27398  -0.26055
 Alpha  occ. eigenvalues --   -0.25336  -0.25015  -0.24226  -0.23542  -0.22250
 Alpha  occ. eigenvalues --   -0.15790  -0.13803  -0.13022  -0.12377  -0.10207
 Alpha  occ. eigenvalues --    0.05291
 Alpha virt. eigenvalues --    0.07518   0.07775   0.08972   0.10059   0.10584
 Alpha virt. eigenvalues --    0.10975   0.11105   0.11863   0.12404   0.13168
 Alpha virt. eigenvalues --    0.13863   0.14216   0.14392   0.15844   0.16684

  Beta  occ. eigenvalues --  -18.94902 -14.21997 -14.16852 -14.16479 -10.13219
  Beta  occ. eigenvalues --  -10.09121 -10.08448 -10.07714 -10.06088 -10.06029
  Beta  occ. eigenvalues --  -10.05608 -10.01766  -0.90450  -0.83962  -0.77296
  Beta  occ. eigenvalues --   -0.75514  -0.67195  -0.62608  -0.60562  -0.54291
  Beta  occ. eigenvalues --   -0.51409  -0.49880  -0.45108  -0.39944  -0.38389
  Beta  occ. eigenvalues --   -0.36848  -0.34569  -0.34195  -0.33405  -0.32344
  Beta  occ. eigenvalues --   -0.30239  -0.29043  -0.28100  -0.27317  -0.25792
  Beta  occ. eigenvalues --   -0.25224  -0.24893  -0.24097  -0.23385  -0.21648
  Beta  occ. eigenvalues --   -0.14480  -0.13835  -0.12942  -0.12294  -0.09357
  Beta virt. eigenvalues --    0.07441   0.08220   0.09476   0.10005   0.10229
  Beta virt. eigenvalues --    0.10760   0.11255   0.11885   0.12211   0.12797
  Beta virt. eigenvalues --    0.13126   0.13922   0.14361   0.14629   0.15889

 Mulliken charges and spin densities:
               1          2
     1  C   -0.476933  -0.062424
     2  C   -0.222774  -0.110444
     3  C    0.020826  -0.182195
     4  C    0.530120   0.152158
     5  C   -0.634469   0.024317
     6  O   -0.421325   0.015739
     7  N    0.018098   0.116140
     8  C    0.078319   0.250420
     9  N   -0.078032  -0.063964
    10  C   -0.043409  -0.302628
    11  C    0.289183  -0.611449
    12  N   -0.395837   0.020053
    13  H    0.110395   0.019436
    14  H    0.104427   0.025988
    15  H    0.128647  -0.003432
    16  H    0.058415   0.092662
    17  H    0.138293   0.006192
    18  H    0.154859   0.024510
    19  H   -0.145470   0.282264
    20  H    0.204105   0.012197
    21  H   -0.529447   0.667766
    22  H   -0.424381   0.566026
    23  H    0.168655  -0.033164
    24  H    0.128998   0.071999
    25  H    0.238737   0.021834
 Sum of Mulliken charges =  -1.00000   1.00000

 Dipole moment (field-independent basis, Debye):
    X=             -4.2689    Y=             -2.3359    Z=              2.4119  Tot=              5.4312
 Quadrupole moment (field-independent basis, Debye-Ang):
   XX=           -123.5143   YY=           -105.5309   ZZ=            -85.7005
   XY=             -1.6577   XZ=              3.0741   YZ=             -0.5983

 Summary of Natural Population Analysis:

                                       Natural Population
                Natural  -----------------------------------------------
    Atom  No    Charge         Core      Valence    Rydberg      Total
 -----------------------------------------------------------------------
      C    1   -0.28690      0.99967     2.28275    0.00447     3.28690
      C    2   -0.20713      0.99961     2.19855    0.00897     3.20713
      C    3    0.16729      0.99951     1.81970    0.01350     2.83271
      C    4   -0.16574      0.99945     2.15728    0.00900     3.16574
      C    5    0.32492      0.99961     1.65220    0.02327     2.67508
      O    6   -0.35051      0.99987     3.34522    0.00542     4.35051
      N    7   -0.20323      0.99962     2.69387    0.00974     3.70323
      C    8    0.22483      0.99963     1.75856    0.01697     2.77517
      N    9   -0.29790      0.99968     2.78752    0.01070     3.79790
      C   10   -0.09082      0.99961     2.07867    0.01254     3.09082
      C   11   -0.09373      0.99964     2.08321    0.01087     3.09373
      N   12   -0.43246      0.99977     2.92175    0.01094     3.93246
      H   13    0.09725      0.00000     0.40140    0.00135     0.40275
      H   14    0.09322      0.00000     0.40589    0.00089     0.40678
      H   15    0.09640      0.00000     0.40253    0.00107     0.40360
      H   16    0.10474      0.00000     0.39369    0.00157     0.39526
      H   17    0.10243      0.00000     0.39643    0.00113     0.39757
      H   18    0.10055      0.00000     0.39829    0.00116     0.39945
      H   19    0.07886      0.00000     0.41938    0.00176     0.42114
      H   20    0.10767      0.00000     0.39084    0.00149     0.39233
      H   21    0.10115      0.00000     0.39613    0.00273     0.39885
      H   22    0.08969      0.00000     0.40824    0.00207     0.41031
      H   23    0.07905      0.00000     0.41957    0.00138     0.42095
      H   24    0.16689      0.00000     0.33179    0.00133     0.33311
      H   25    0.19347      0.00000     0.30448    0.00205     0.30653
 =======================================================================
   * Total *    0.00000     11.99569    32.84794    0.15637    45.00000

 Normal termination of Gaussian 16 at Wed Dec  9 18:19:01 2020.
