 Gaussian 16, Revision A.03,

 -----------------------------------------------------------
 # opt freq B3LYP/6-31G(d) empiricaldispersion=gd3bj scf=xqc
 -----------------------------------------------------------

 ------------------------------
 CID_82202413_JID_9192_neutraal
 ------------------------------
 Symbolic Z-matrix:
 Charge =  0 Multiplicity = 1

 SCF Done:  E(RB3LYP) =  -949.934878050     A.U. after   15 cycles
 SCF Done:  E(RB3LYP) =  -949.942433174     A.U. after   13 cycles
 SCF Done:  E(RB3LYP) =  -949.943973723     A.U. after   12 cycles
 SCF Done:  E(RB3LYP) =  -949.944734903     A.U. after   13 cycles
 SCF Done:  E(RB3LYP) =  -949.945135052     A.U. after   12 cycles
 SCF Done:  E(RB3LYP) =  -949.945276854     A.U. after   11 cycles
 SCF Done:  E(RB3LYP) =  -949.945315554     A.U. after   10 cycles
 SCF Done:  E(RB3LYP) =  -949.945333574     A.U. after   10 cycles
 SCF Done:  E(RB3LYP) =  -949.945345521     A.U. after   11 cycles
 SCF Done:  E(RB3LYP) =  -949.945352782     A.U. after   10 cycles
 SCF Done:  E(RB3LYP) =  -949.945385735     A.U. after   10 cycles
 SCF Done:  E(RB3LYP) =  -949.945386145     A.U. after    9 cycles
 SCF Done:  E(RB3LYP) =  -949.945386308     A.U. after    7 cycles
 SCF Done:  E(RB3LYP) =  -949.945386375     A.U. after    7 cycles
 SCF Done:  E(RB3LYP) =  -949.945386366     A.U. after    6 cycles
 Optimization completed.
    -- Stationary point found.
 Normal termination of Gaussian 16 at Mon Dec 14 13:34:23 2020.

 --------------------------------------------------------------------
 #N Geom=AllCheck Guess=TCheck SCRF=Check GenChk RB3LYP/6-31G(d) Freq
 --------------------------------------------------------------------

 Structure from the checkpoint file:  "JID_9192.chk"
 ------------------------------
 CID_82202413_JID_9192_neutraal
 ------------------------------
 Charge =  0 Multiplicity = 1

 SCF Done:  E(RB3LYP) =  -949.945386366     A.U. after    1 cycles

  Exact polarizability: 174.240   4.441 148.498 -11.655   0.867 128.769
 Approx polarizability: 235.455   8.521 225.080 -33.832   6.103 209.553

                      1                      2                      3
                      A                      A                      A
 Frequencies --     13.2527                33.8600                36.3724
 Red. masses --      4.7621                 4.0936                 4.0331
 Frc consts  --      0.0005                 0.0028                 0.0031
 IR Inten    --      0.2617                 1.0069                 0.5205

                      4                      5                      6
                      A                      A                      A
 Frequencies --     46.9476                61.7621                68.2104
 Red. masses --      4.5022                 6.9816                 2.6352
 Frc consts  --      0.0058                 0.0157                 0.0072
 IR Inten    --      1.0042                 1.0090                 0.9592

                      7                      8                      9
                      A                      A                      A
 Frequencies --     71.3507                97.7680               102.8115
 Red. masses --      2.7543                 5.3847                 4.2034
 Frc consts  --      0.0083                 0.0303                 0.0262
 IR Inten    --      0.0770                 3.8720                 4.4535

                     10                     11                     12
                      A                      A                      A
 Frequencies --    110.9176               135.4594               164.4292
 Red. masses --      4.5903                 4.3651                 4.0706
 Frc consts  --      0.0333                 0.0472                 0.0648
 IR Inten    --      1.0842                 2.4361                 3.4707

                     13                     14                     15
                      A                      A                      A
 Frequencies --    187.7729               221.9194               224.1550
 Red. masses --      4.7045                 1.4142                 1.0525
 Frc consts  --      0.0977                 0.0410                 0.0312
 IR Inten    --      2.2017                 1.8819                 0.0762

                     16                     17                     18
                      A                      A                      A
 Frequencies --    233.0919               258.9141               278.9908
 Red. masses --      1.5887                 1.9268                 3.8022
 Frc consts  --      0.0509                 0.0761                 0.1744
 IR Inten    --      0.9615                 3.9158                 3.1365

                     19                     20                     21
                      A                      A                      A
 Frequencies --    313.7315               320.8974               325.1648
 Red. masses --      2.0939                 4.3444                 3.2545
 Frc consts  --      0.1214                 0.2636                 0.2027
 IR Inten    --      2.9741                 1.7615                 2.7403

                     22                     23                     24
                      A                      A                      A
 Frequencies --    376.9770               402.2730               427.0600
 Red. masses --      3.8233                 2.5788                 3.1438
 Frc consts  --      0.3201                 0.2459                 0.3378
 IR Inten    --     10.9490                 3.9543                 0.6140

                     25                     26                     27
                      A                      A                      A
 Frequencies --    452.0646               488.7355               500.4293
 Red. masses --      2.7932                 4.7843                 3.9971
 Frc consts  --      0.3363                 0.6733                 0.5898
 IR Inten    --      5.8786                 3.2574                 9.2347

                     28                     29                     30
                      A                      A                      A
 Frequencies --    544.8074               597.5109               606.6631
 Red. masses --      5.4361                 3.9953                 1.4537
 Frc consts  --      0.9507                 0.8404                 0.3152
 IR Inten    --     16.1224                 9.5917                54.6695

                     31                     32                     33
                      A                      A                      A
 Frequencies --    645.8405               682.9609               709.6733
 Red. masses --      4.1984                 5.4159                 5.5790
 Frc consts  --      1.0318                 1.4884                 1.6555
 IR Inten    --     30.7551                 6.6075                32.3283

                     34                     35                     36
                      A                      A                      A
 Frequencies --    720.8290               751.7978               761.4807
 Red. masses --      3.7671                 3.4252                 5.2856
 Frc consts  --      1.1533                 1.1406                 1.8058
 IR Inten    --     43.7364                50.3340                28.2196

                     37                     38                     39
                      A                      A                      A
 Frequencies --    792.3318               800.2059               805.2154
 Red. masses --      1.2457                 1.3567                 3.3969
 Frc consts  --      0.4608                 0.5119                 1.2977
 IR Inten    --      1.6214                16.5503                 4.3030

                     40                     41                     42
                      A                      A                      A
 Frequencies --    818.7443               934.4136               943.7319
 Red. masses --      6.5214                 2.4330                 4.1097
 Frc consts  --      2.5756                 1.2516                 2.1566
 IR Inten    --     18.4433                 0.6342                20.1620

                     43                     44                     45
                      A                      A                      A
 Frequencies --    961.5341               982.0945               997.8490
 Red. masses --      2.1341                 2.0731                 2.7869
 Frc consts  --      1.1625                 1.1781                 1.6350
 IR Inten    --      1.0803                13.7231                19.4710

                     46                     47                     48
                      A                      A                      A
 Frequencies --   1046.0002              1090.8561              1097.0312
 Red. masses --      2.6390                 4.0715                 4.5078
 Frc consts  --      1.7012                 2.8546                 3.1964
 IR Inten    --      6.8053                90.0769                16.8535

                     49                     50                     51
                      A                      A                      A
 Frequencies --   1100.5802              1116.8568              1131.2975
 Red. masses --      2.0054                 1.7667                 1.7314
 Frc consts  --      1.4312                 1.2984                 1.3056
 IR Inten    --     11.3208                 6.2277                19.2425

                     52                     53                     54
                      A                      A                      A
 Frequencies --   1156.1161              1187.4110              1191.6822
 Red. masses --      4.4603                 2.0063                 1.4660
 Frc consts  --      3.5125                 1.6666                 1.2266
 IR Inten    --     77.7099               105.9066                36.6209

                     55                     56                     57
                      A                      A                      A
 Frequencies --   1196.1087              1228.8617              1255.0682
 Red. masses --      2.4953                 1.5870                 3.2255
 Frc consts  --      2.1033                 1.4120                 2.9935
 IR Inten    --    159.5618                43.3677                72.5098

                     58                     59                     60
                      A                      A                      A
 Frequencies --   1260.8410              1268.0660              1315.5816
 Red. masses --      2.6602                 1.5470                 2.3444
 Frc consts  --      2.4917                 1.4656                 2.3907
 IR Inten    --     33.2844                10.3985                21.6767

                     61                     62                     63
                      A                      A                      A
 Frequencies --   1322.2809              1336.1618              1350.5847
 Red. masses --      1.4663                 1.5899                 2.1619
 Frc consts  --      1.5105                 1.6724                 2.3234
 IR Inten    --     42.5932                 0.1744                39.4600

                     64                     65                     66
                      A                      A                      A
 Frequencies --   1353.1000              1380.7821              1397.5259
 Red. masses --      1.7833                 1.5405                 1.2884
 Frc consts  --      1.9237                 1.7304                 1.4826
 IR Inten    --      4.2678                10.6907                20.0217

                     67                     68                     69
                      A                      A                      A
 Frequencies --   1418.0554              1422.9108              1439.4482
 Red. masses --      1.2991                 1.3115                 1.2682
 Frc consts  --      1.5392                 1.5644                 1.5482
 IR Inten    --     14.6753                10.1031                 2.8930

                     70                     71                     72
                      A                      A                      A
 Frequencies --   1443.0688              1445.5319              1483.8370
 Red. masses --      1.2795                 3.5609                 2.4647
 Frc consts  --      1.5699                 4.3840                 3.1973
 IR Inten    --     12.6793                69.8757               113.7480

                     73                     74                     75
                      A                      A                      A
 Frequencies --   1495.3476              1499.3265              1508.5446
 Red. masses --      2.2010                 1.5093                 1.0983
 Frc consts  --      2.8997                 1.9991                 1.4727
 IR Inten    --     60.1279                29.1431                 4.2199

                     76                     77                     78
                      A                      A                      A
 Frequencies --   1509.5950              1516.1374              1519.4307
 Red. masses --      1.1125                 1.1153                 1.0453
 Frc consts  --      1.4937                 1.5104                 1.4218
 IR Inten    --     10.7109                21.8143                 1.2606

                     79                     80                     81
                      A                      A                      A
 Frequencies --   1520.9308              1522.7278              1529.8966
 Red. masses --      1.0705                 1.0466                 1.0698
 Frc consts  --      1.4590                 1.4298                 1.4752
 IR Inten    --      3.3290                13.7861                 2.5460

                     82                     83                     84
                      A                      A                      A
 Frequencies --   1531.8400              1539.7703              1546.2110
 Red. masses --      1.0779                 1.0582                 1.1414
 Frc consts  --      1.4903                 1.4782                 1.6077
 IR Inten    --     13.7789                12.0223                 7.0657

                     85                     86                     87
                      A                      A                      A
 Frequencies --   1608.4077              1773.8745              1813.1584
 Red. masses --      9.9115                 9.6386                 9.6185
 Frc consts  --     15.1071                17.8694                18.6306
 IR Inten    --     65.2745               320.3868               262.3704

                     88                     89                     90
                      A                      A                      A
 Frequencies --   2990.2255              2997.4390              3051.2438
 Red. masses --      1.0589                 1.0537                 1.1003
 Frc consts  --      5.5786                 5.5777                 6.0355
 IR Inten    --     28.1302                75.0388                41.4038

                     91                     92                     93
                      A                      A                      A
 Frequencies --   3052.5218              3057.3323              3071.6981
 Red. masses --      1.0360                 1.0367                 1.0688
 Frc consts  --      5.6878                 5.7092                 5.9418
 IR Inten    --     15.5788                17.2988                26.7756

                     94                     95                     96
                      A                      A                      A
 Frequencies --   3079.7490              3099.7594              3118.5793
 Red. masses --      1.0706                 1.0601                 1.1024
 Frc consts  --      5.9831                 6.0014                 6.3166
 IR Inten    --     20.2191                12.5501                22.4737

                     97                     98                     99
                      A                      A                      A
 Frequencies --   3120.5692              3125.9561              3143.2409
 Red. masses --      1.0997                 1.1027                 1.0974
 Frc consts  --      6.3092                 6.3484                 6.3880
 IR Inten    --     31.9616                20.0880                17.7257

                    100                    101                    102
                      A                      A                      A
 Frequencies --   3150.6115              3155.1202              3158.7922
 Red. masses --      1.0966                 1.1030                 1.1011
 Frc consts  --      6.4132                 6.4692                 6.4733
 IR Inten    --     29.9592                15.0495                 9.8038

                    103                    104                    105
                      A                      A                      A
 Frequencies --   3161.5018              3167.8227              3692.7222
 Red. masses --      1.0980                 1.0909                 1.0640
 Frc consts  --      6.4658                 6.4500                 8.5482
 IR Inten    --     16.4982                 0.6092                80.8988

 - Thermochemistry -
 -------------------
 Temperature   298.150 Kelvin.  Pressure   1.00000 Atm.
 Atom     1 has atomic number  6 and mass  12.00000

 Molecular mass:   270.13281 amu.
 Principal axes and moments of inertia in atomic units:
                           1         2         3
     Eigenvalues --  3250.923667791.957358865.61457
           X            0.99952  -0.02762   0.01413
           Y            0.02763   0.99962  -0.00092
           Z           -0.01410   0.00131   0.99990
 This molecule is an asymmetric top.
 Rotational symmetry number  1.
 Warning -- assumption of classical behavior for rotation
           may cause significant error
 Rotational temperatures (Kelvin)      0.02664     0.01112     0.00977
 Rotational constants (GHZ):           0.55515     0.23162     0.20357
 Zero-point vibrational energy     803165.2 (Joules/Mol)
                                  191.96108 (Kcal/Mol)
 Warning -- explicit consideration of  30 degrees of freedom as
           vibrations may cause significant error
 Vibrational temperatures:     19.07    48.72    52.33    67.55    88.86
          (Kelvin)             98.14   102.66   140.67   147.92   159.59
                              194.90   236.58   270.16   319.29   322.51
                              335.37   372.52   401.41   451.39   461.70
                              467.84   542.39   578.78   614.44   650.42
                              703.18   720.01   783.86   859.68   872.85
                              929.22   982.63  1021.06  1037.11  1081.67
                             1095.60  1139.99  1151.32  1158.53  1177.99
                             1344.41  1357.82  1383.43  1413.01  1435.68
                             1504.96  1569.50  1578.38  1583.49  1606.91
                             1627.68  1663.39  1708.42  1714.56  1720.93
                             1768.06  1805.76  1814.07  1824.46  1892.83
                             1902.47  1922.44  1943.19  1946.81  1986.64
                             2010.73  2040.27  2047.25  2071.04  2076.25
                             2079.80  2134.91  2151.47  2157.20  2170.46
                             2171.97  2181.38  2186.12  2188.28  2190.87
                             2201.18  2203.98  2215.39  2224.65  2314.14
                             2552.21  2608.73  4302.27  4312.65  4390.06
                             4391.90  4398.82  4419.49  4431.07  4459.86
                             4486.94  4489.80  4497.55  4522.42  4533.03
                             4539.51  4544.80  4548.70  4557.79  5313.00

 Zero-point correction=                           0.305909 (Hartree/Particle)
 Thermal correction to Energy=                    0.326117
 Thermal correction to Enthalpy=                  0.327061
 Thermal correction to Gibbs Free Energy=         0.253937
 Sum of electronic and zero-point Energies=           -949.639477
 Sum of electronic and thermal Energies=              -949.619269
 Sum of electronic and thermal Enthalpies=            -949.618325
 Sum of electronic and thermal Free Energies=         -949.691450

                     E (Thermal)             CV                S
                      KCal/Mol        Cal/Mol-Kelvin    Cal/Mol-Kelvin
 Total                  204.642             71.702            153.904
 Electronic               0.000              0.000              0.000
 Translational            0.889              2.981             42.680
 Rotational               0.889              2.981             33.773
 Vibrational            202.864             65.741             77.451
 Vibration     1          0.593              1.987              7.452
 Vibration     2          0.594              1.983              5.589
 Vibration     3          0.594              1.982              5.447
 Vibration     4          0.595              1.979              4.942
 Vibration     5          0.597              1.973              4.400
 Vibration     6          0.598              1.969              4.204
 Vibration     7          0.598              1.968              4.116
 Vibration     8          0.603              1.951              3.498
 Vibration     9          0.605              1.947              3.400
 Vibration    10          0.607              1.940              3.253
 Vibration    11          0.613              1.918              2.867
 Vibration    12          0.623              1.886              2.498
 Vibration    13          0.632              1.857              2.250
 Vibration    14          0.648              1.808              1.943
 Vibration    15          0.649              1.804              1.925
 Vibration    16          0.654              1.790              1.855
 Vibration    17          0.668              1.748              1.669
 Vibration    18          0.679              1.712              1.540
 Vibration    19          0.702              1.647              1.343
 Vibration    20          0.706              1.634              1.306
 Vibration    21          0.709              1.625              1.284
 Vibration    22          0.748              1.519              1.051
 Vibration    23          0.768              1.465              0.954
 Vibration    24          0.789              1.411              0.868
 Vibration    25          0.811              1.356              0.790
 Vibration    26          0.845              1.275              0.687
 Vibration    27          0.856              1.249              0.657
 Vibration    28          0.900              1.151              0.555
 Vibration    29          0.955              1.037              0.454
 Vibration    30          0.965              1.018              0.438

 Optimization completed.
    -- Stationary point found.
 Normal termination of Gaussian 16 at Mon Dec 14 13:54:20 2020.

 ----------------------------------------------------------------------
 # B3LYP/6-311++G(d,p) empiricaldispersion=gd3bj scf=xqc pop=npa geom=c
 heck
 ----------------------------------------------------------------------

 --------------------------------------
 CID_82202413_JID_9192_Energie_neutraal
 --------------------------------------
 Structure from the checkpoint file:  "JID_9192.chk"
 Charge =  0 Multiplicity = 1

 SCF Done:  E(RB3LYP) =  -950.223383799     A.U. after   16 cycles
 Normal termination of Gaussian 16 at Mon Dec 14 14:03:32 2020.

 ----------------------------------------------------------------------
 # B3LYP/6-311++G(d,p) empiricaldispersion=gd3bj scf=xqc pop=npa geom=c
 heck
 ----------------------------------------------------------------------

 ------------------------------------
 CID_82202413_JID_9192_Energie_kation
 ------------------------------------
 Structure from the checkpoint file:  "JID_9192.chk"
 Charge =  1 Multiplicity = 2

 SCF Done:  E(UB3LYP) =  -949.899739080     A.U. after   32 cycles
 Normal termination of Gaussian 16 at Mon Dec 14 14:29:39 2020.
 Gaussian 16:  ES64L-G16RevA.03 25-Dec-2016

 ----------------------------------------------------------------------
 # B3LYP/6-311++G(d,p) empiricaldispersion=gd3bj scf=xqc pop=npa geom=c
 heck
 ----------------------------------------------------------------------

 -----------------------------------
 CID_82202413_JID_9192_Energie_anion
 -----------------------------------
 Structure from the checkpoint file:  "JID_9192.chk"
 Charge = -1 Multiplicity = 2

                         Standard orientation:
 ---------------------------------------------------------------------
 Center     Atomic      Atomic             Coordinates (Angstroms)
 Number     Number       Type             X           Y           Z
 ---------------------------------------------------------------------
      1          6           0        3.978256   -1.906836   -0.684955
      2          6           0        4.085016   -0.576072    0.059304
      3          7           0        2.766016    0.023803    0.292970
      4          6           0        2.094751   -0.302736    1.549259
      5          6           0        2.501259    0.626273    2.695678
      6          6           0        2.238555    0.777701   -0.710118
      7          8           0        2.849432    1.060132   -1.733664
      8          6           0        0.817791    1.341621   -0.521229
      9          7           0       -0.201929    0.297205   -0.501229
     10          6           0       -1.411592    0.279352    0.116922
     11          6           0       -1.911494   -0.977752   -0.201371
     12          7           0       -0.999177   -1.641247   -0.972008
     13          7           0        0.033396   -0.877576   -1.154879
     14          6           0       -3.189190   -1.548227    0.249832
     15          8           0       -3.935137   -1.001872    1.041674
     16          8           0       -3.451623   -2.751517   -0.298336
     17          6           0       -2.029220    1.417471    0.878914
     18          8           0       -2.914558    2.195155    0.095145
     19          6           0       -2.281639    2.927447   -0.936037
     20          1           0        3.373279   -2.628485   -0.124948
     21          1           0        4.972901   -2.339726   -0.839196
     22          1           0        3.508902   -1.750847   -1.659798
     23          1           0        4.566746   -0.706345    1.034085
     24          1           0        4.676316    0.136636   -0.518053
     25          1           0        1.013712   -0.284157    1.410074
     26          1           0        2.343853   -1.340779    1.795096
     27          1           0        2.220047    1.662903    2.478537
     28          1           0        2.009802    0.324524    3.627265
     29          1           0        3.583766    0.602210    2.858484
     30          1           0        0.734335    1.915465    0.405180
     31          1           0        0.647279    2.008754   -1.366919
     32          1           0       -4.308332   -3.028773    0.076975
     33          1           0       -2.638049    0.997156    1.678786
     34          1           0       -1.242474    2.052103    1.318768
     35          1           0       -1.489098    3.582718   -0.539556
     36          1           0       -1.847880    2.271163   -1.704584
     37          1           0       -3.053125    3.545538   -1.399922
 ---------------------------------------------------------------------

 SCF Done:  E(UB3LYP) =  -950.227179448     A.U. after   33 cycles
 SCF Done:  E(UB3LYP) =  -950.227179448     a.u. after    1 cycles

 The electronic state is 2-A.
 Alpha  occ. eigenvalues --  -19.04547 -19.02837 -18.99455 -18.97705 -14.28718
 Alpha  occ. eigenvalues --  -14.25652 -14.24933 -14.22285 -10.18225 -10.16517
 Alpha  occ. eigenvalues --  -10.13246 -10.12410 -10.12393 -10.11595 -10.11174
 Alpha  occ. eigenvalues --  -10.09478 -10.07821 -10.07267 -10.07065  -0.98908
 Alpha  occ. eigenvalues --   -0.98162  -0.94803  -0.94271  -0.89017  -0.84745
 Alpha  occ. eigenvalues --   -0.81306  -0.70935  -0.68351  -0.66508  -0.64144
 Alpha  occ. eigenvalues --   -0.63176  -0.57354  -0.55410  -0.55245  -0.54479
 Alpha  occ. eigenvalues --   -0.49863  -0.47137  -0.44858  -0.43492  -0.40999
 Alpha  occ. eigenvalues --   -0.40242  -0.39716  -0.38508  -0.37928  -0.37100
 Alpha  occ. eigenvalues --   -0.36203  -0.35642  -0.34759  -0.34558  -0.33720
 Alpha  occ. eigenvalues --   -0.33393  -0.31607  -0.31401  -0.30877  -0.30231
 Alpha  occ. eigenvalues --   -0.29027  -0.28892  -0.28265  -0.27796  -0.27593
 Alpha  occ. eigenvalues --   -0.26244  -0.25694  -0.24015  -0.22321  -0.20620
 Alpha  occ. eigenvalues --   -0.18858  -0.17277  -0.16879  -0.16072  -0.15816
 Alpha  occ. eigenvalues --   -0.15449  -0.14705   0.03931
 Alpha virt. eigenvalues --    0.05683   0.06878   0.07562   0.08362   0.08809
 Alpha virt. eigenvalues --    0.08924   0.09331   0.10098   0.10232   0.10452
 Alpha virt. eigenvalues --    0.10862   0.11579   0.12084   0.12655   0.13256

  Beta  occ. eigenvalues --  -19.04477 -19.02735 -18.99455 -18.97515 -14.28540
  Beta  occ. eigenvalues --  -14.25717 -14.24930 -14.22268 -10.18222 -10.16259
  Beta  occ. eigenvalues --  -10.13247 -10.12408 -10.12396 -10.11585 -10.11159
  Beta  occ. eigenvalues --  -10.09154 -10.07766 -10.07216 -10.07059  -0.98730
  Beta  occ. eigenvalues --   -0.97954  -0.94798  -0.94058  -0.88712  -0.84732
  Beta  occ. eigenvalues --   -0.81092  -0.70578  -0.68317  -0.66451  -0.64059
  Beta  occ. eigenvalues --   -0.63100  -0.57010  -0.55349  -0.55186  -0.54266
  Beta  occ. eigenvalues --   -0.49731  -0.46959  -0.44785  -0.43362  -0.40814
  Beta  occ. eigenvalues --   -0.40127  -0.39544  -0.38392  -0.37760  -0.36938
  Beta  occ. eigenvalues --   -0.36039  -0.35538  -0.34631  -0.34409  -0.33652
  Beta  occ. eigenvalues --   -0.32771  -0.31553  -0.31054  -0.30765  -0.30070
  Beta  occ. eigenvalues --   -0.28963  -0.28841  -0.28113  -0.27740  -0.27548
  Beta  occ. eigenvalues --   -0.26208  -0.25677  -0.23930  -0.22242  -0.19766
  Beta  occ. eigenvalues --   -0.18152  -0.17138  -0.16782  -0.15994  -0.15663
  Beta  occ. eigenvalues --   -0.15285  -0.13935
  Beta virt. eigenvalues --    0.06291   0.06989   0.07664   0.08441   0.08946
  Beta virt. eigenvalues --    0.09003   0.09246   0.09729   0.10259   0.10331
  Beta virt. eigenvalues --    0.10633   0.10914   0.11656   0.12155   0.12791

 Mulliken charges and spin densities:
               1          2
     1  C   -0.245964  -0.165006
     2  C    0.092876  -0.300831
     3  N    0.291738  -0.007730
     4  C   -1.455224   0.989112
     5  C    1.386773  -1.850223
     6  C   -0.649313   0.100235
     7  O   -0.289704   0.000290
     8  C    0.395218  -0.272197
     9  N    0.308855   0.045167
    10  C   -0.019484   0.302268
    11  C    0.025936  -0.101234
    12  N   -0.066178   0.048727
    13  N   -0.141872  -0.050028
    14  C    0.029720   0.173461
    15  O   -0.379998   0.070661
    16  O   -0.172595   0.012045
    17  C   -0.865824   0.045195
    18  O   -0.032613  -0.016200
    19  C   -0.352976   0.017935
    20  H    0.129777   0.000469
    21  H    0.047969   0.083241
    22  H    0.174563   0.018197
    23  H   -0.176239   0.317031
    24  H    0.133504   0.037492
    25  H    0.353643  -0.096778
    26  H   -0.167119   0.316901
    27  H   -0.317791   0.455116
    28  H   -0.279440   0.429229
    29  H   -0.227474   0.378830
    30  H    0.196624  -0.032253
    31  H    0.247539  -0.010844
    32  H    0.277166   0.000679
    33  H    0.225389   0.015590
    34  H    0.098675   0.033970
    35  H    0.106655   0.006251
    36  H    0.164176  -0.001367
    37  H    0.153013   0.006601
 Sum of Mulliken charges =  -1.00000   1.00000

 Dipole moment (field-independent basis, Debye):
    X=             -0.0247    Y=              2.0644    Z=             -1.6413  Tot=              2.6375
 Quadrupole moment (field-independent basis, Debye-Ang):
   XX=           -179.8105   YY=           -134.8561   ZZ=           -153.4325
   XY=             -4.3775   XZ=             -0.2254   YZ=             -6.1067

 Summary of Natural Population Analysis:

                                       Natural Population
                Natural  -----------------------------------------------
    Atom  No    Charge         Core      Valence    Rydberg      Total
 -----------------------------------------------------------------------
      C    1   -0.29261      0.99966     2.28743    0.00552     3.29261
      C    2   -0.08598      0.99962     2.07598    0.01038     3.08598
      N    3   -0.25263      0.99963     2.74062    0.01238     3.75263
      C    4   -0.08790      0.99961     2.07794    0.01035     3.08790
      C    5   -0.28869      0.99966     2.28400    0.00503     3.28869
      C    6    0.34659      0.99964     1.62998    0.02379     2.65341
      O    7   -0.32448      0.99988     3.31939    0.00521     4.32448
      C    8   -0.12502      0.99957     2.11475    0.01070     3.12502
      N    9   -0.09376      0.99961     2.58065    0.01350     3.59376
      C   10    0.13531      0.99948     1.85257    0.01264     2.86469
      C   11   -0.00277      0.99938     1.98791    0.01549     3.00277
      N   12   -0.11418      0.99973     2.60195    0.01251     3.61418
      N   13   -0.06702      0.99978     2.55101    0.01623     3.56702
      C   14    0.41556      0.99967     1.55819    0.02658     2.58444
      O   15   -0.30795      0.99987     3.30154    0.00654     4.30795
      O   16   -0.33554      0.99988     3.33007    0.00559     4.33554
      C   17   -0.03381      0.99955     2.01874    0.01553     3.03381
      O   18   -0.28092      0.99989     3.27194    0.00909     4.28092
      C   19   -0.10148      0.99962     2.09364    0.00822     3.10148
      H   20    0.09880      0.00000     0.40032    0.00088     0.40120
      H   21    0.09532      0.00000     0.40400    0.00068     0.40468
      H   22    0.10930      0.00000     0.38987    0.00083     0.39070
      H   23    0.09437      0.00000     0.40440    0.00123     0.40563
      H   24    0.10700      0.00000     0.39190    0.00110     0.39300
      H   25    0.10708      0.00000     0.39111    0.00181     0.39292
      H   26    0.09724      0.00000     0.40159    0.00117     0.40276
      H   27    0.09708      0.00000     0.40161    0.00132     0.40292
      H   28    0.10316      0.00000     0.39556    0.00128     0.39684
      H   29    0.09933      0.00000     0.39893    0.00174     0.40067
      H   30    0.10841      0.00000     0.38981    0.00178     0.39159
      H   31    0.11094      0.00000     0.38801    0.00105     0.38906
      H   32    0.23186      0.00000     0.26563    0.00252     0.26814
      H   33    0.11702      0.00000     0.38167    0.00131     0.38298
      H   34    0.07782      0.00000     0.42064    0.00153     0.42218
      H   35    0.07350      0.00000     0.42534    0.00117     0.42650
      H   36    0.08105      0.00000     0.41773    0.00122     0.41895
      H   37    0.08803      0.00000     0.41117    0.00080     0.41197
 =======================================================================
   * Total *    0.00002     18.99372    52.75757    0.24869    71.99998

 Normal termination of Gaussian 16 at Mon Dec 14 14:56:46 2020.
