 Gaussian 16, Revision A.03,

 -----------------------------------------------------------
 # opt freq B3LYP/6-31G(d) empiricaldispersion=gd3bj scf=xqc
 -----------------------------------------------------------

 -------------------------------
 CID_143222857_JID_2173_neutraal
 -------------------------------
 Symbolic Z-matrix:
 Charge =  0 Multiplicity = 1

 SCF Done:  E(RB3LYP) =  -864.128836510     A.U. after   14 cycles
 SCF Done:  E(RB3LYP) =  -864.132070864     A.U. after   14 cycles
 SCF Done:  E(RB3LYP) =  -864.130117318     A.U. after   15 cycles
 SCF Done:  E(RB3LYP) =  -864.131925697     A.U. after   13 cycles
 SCF Done:  E(RB3LYP) =  -864.132474052     A.U. after    9 cycles
 SCF Done:  E(RB3LYP) =  -864.132682318     A.U. after   12 cycles
 SCF Done:  E(RB3LYP) =  -864.132686006     A.U. after   12 cycles
 SCF Done:  E(RB3LYP) =  -864.132780904     A.U. after   11 cycles
 SCF Done:  E(RB3LYP) =  -864.132814490     A.U. after   10 cycles
 SCF Done:  E(RB3LYP) =  -864.132833822     A.U. after   11 cycles
 SCF Done:  E(RB3LYP) =  -864.132924041     A.U. after    8 cycles
 SCF Done:  E(RB3LYP) =  -864.132924124     A.U. after    9 cycles
 SCF Done:  E(RB3LYP) =  -864.132924173     A.U. after    7 cycles
 SCF Done:  E(RB3LYP) =  -864.132924195     A.U. after    7 cycles
 SCF Done:  E(RB3LYP) =  -864.132924201     A.U. after    7 cycles
 Optimization completed.
    -- Stationary point found.
 Normal termination of Gaussian 16 at Wed Dec  9 17:12:55 2020.

 --------------------------------------------------------------------
 #N Geom=AllCheck Guess=TCheck SCRF=Check GenChk RB3LYP/6-31G(d) Freq
 --------------------------------------------------------------------

 Structure from the checkpoint file:  "JID_2173.chk"
 -------------------------------
 CID_143222857_JID_2173_neutraal
 -------------------------------
 Charge =  0 Multiplicity = 1

 SCF Done:  E(RB3LYP) =  -864.132924201     A.U. after    1 cycles

  Exact polarizability: 163.428 -18.648  96.720  -0.038   3.714 116.744
 Approx polarizability: 229.199 -37.972 134.251   1.940   4.568 203.189

                      1                      2                      3
                      A                      A                      A
 Frequencies --     10.6181                25.8313                32.3587
 Red. masses --      2.8352                 2.7313                 3.3672
 Frc consts  --      0.0002                 0.0011                 0.0021
 IR Inten    --      0.3525                 0.7110                 0.5604

                      4                      5                      6
                      A                      A                      A
 Frequencies --     37.4305                43.5067                58.8781
 Red. masses --      1.3888                 1.0428                 3.3680
 Frc consts  --      0.0011                 0.0012                 0.0069
 IR Inten    --      0.0415                 0.3784                 1.6760

                      7                      8                      9
                      A                      A                      A
 Frequencies --     73.1387                85.9194               100.7337
 Red. masses --      3.2182                 3.5767                 1.6084
 Frc consts  --      0.0101                 0.0156                 0.0096
 IR Inten    --      0.4024                 0.5347                 0.0162

                     10                     11                     12
                      A                      A                      A
 Frequencies --    134.3612               155.7291               216.2949
 Red. masses --      2.9665                 1.9618                 1.8714
 Frc consts  --      0.0316                 0.0280                 0.0516
 IR Inten    --      2.7548                 1.0708                 2.9397

                     13                     14                     15
                      A                      A                      A
 Frequencies --    294.3173               305.4488               319.5669
 Red. masses --      4.2307                 4.2937                 1.0098
 Frc consts  --      0.2159                 0.2360                 0.0608
 IR Inten    --      7.3311                 1.1534                 0.2809

                     16                     17                     18
                      A                      A                      A
 Frequencies --    361.5965               373.0665               413.7876
 Red. masses --      3.4977                 4.2841                 3.0883
 Frc consts  --      0.2694                 0.3513                 0.3115
 IR Inten    --      0.3435                 1.4208                 1.7442

                     19                     20                     21
                      A                      A                      A
 Frequencies --    441.5046               509.0068               634.4915
 Red. masses --      4.9762                 3.0832                 5.5748
 Frc consts  --      0.5715                 0.4707                 1.3223
 IR Inten    --      4.5089                12.8626                 0.4876

                     22                     23                     24
                      A                      A                      A
 Frequencies --    651.7714               704.9543               714.3167
 Red. masses --      6.9110                 8.9930                 3.9763
 Frc consts  --      1.7297                 2.6332                 1.1954
 IR Inten    --      0.7546                33.8842                 1.4596

                     25                     26                     27
                      A                      A                      A
 Frequencies --    816.1693               821.3648               832.9094
 Red. masses --      2.5259                 1.8409                 1.0575
 Frc consts  --      0.9914                 0.7317                 0.4322
 IR Inten    --     10.9296                22.8411                 3.8248

                     28                     29                     30
                      A                      A                      A
 Frequencies --    835.6491               853.9641               953.6310
 Red. masses --      1.0567                 1.2545                 1.2824
 Frc consts  --      0.4348                 0.5390                 0.6871
 IR Inten    --      7.5724                 0.9227                 0.3114

                     31                     32                     33
                      A                      A                      A
 Frequencies --    973.1898              1013.2468              1020.2284
 Red. masses --      1.2950                 3.2479                 1.4109
 Frc consts  --      0.7227                 1.9646                 0.8653
 IR Inten    --      1.0754                 0.1335                 0.4721

                     34                     35                     36
                      A                      A                      A
 Frequencies --   1029.7566              1039.2838              1075.7116
 Red. masses --      8.2026                 3.4261                 1.5206
 Frc consts  --      5.1247                 2.1803                 1.0367
 IR Inten    --    115.9547                 3.7975                10.4274

                     37                     38                     39
                      A                      A                      A
 Frequencies --   1110.6343              1150.3380              1185.5175
 Red. masses --      3.6376                 1.3145                 1.2607
 Frc consts  --      2.6437                 1.0249                 1.0440
 IR Inten    --      4.0822                 4.1318                 0.7980

                     40                     41                     42
                      A                      A                      A
 Frequencies --   1203.5302              1219.4929              1235.8943
 Red. masses --      1.3717                 1.1531                 1.4650
 Frc consts  --      1.1706                 1.0104                 1.3184
 IR Inten    --      5.8675                 0.8285                 0.1940

                     43                     44                     45
                      A                      A                      A
 Frequencies --   1237.5795              1244.8234              1335.0069
 Red. masses --      1.4636                 3.0279                 2.3315
 Frc consts  --      1.3207                 2.7644                 2.4482
 IR Inten    --      0.5208                 2.6682                 1.7456

                     46                     47                     48
                      A                      A                      A
 Frequencies --   1350.0258              1432.5244              1442.8046
 Red. masses --      2.1579                 1.1998                 1.2481
 Frc consts  --      2.3172                 1.4506                 1.5308
 IR Inten    --      0.3635                 0.6020                 0.0652

                     49                     50                     51
                      A                      A                      A
 Frequencies --   1448.1420              1454.3603              1485.6090
 Red. masses --      2.6003                 1.2573                 1.1380
 Frc consts  --      3.2130                 1.5668                 1.4798
 IR Inten    --      4.3534                 0.5585                 7.3071

                     52                     53                     54
                      A                      A                      A
 Frequencies --   1509.8319              1517.1855              1521.8820
 Red. masses --      1.0508                 1.0502                 1.0944
 Frc consts  --      1.4113                 1.4242                 1.4935
 IR Inten    --      6.7512                 4.7664                 7.7389

                     55                     56                     57
                      A                      A                      A
 Frequencies --   1528.9749              1529.8400              1532.8449
 Red. masses --      1.0217                 1.0526                 1.0308
 Frc consts  --      1.4073                 1.4515                 1.4270
 IR Inten    --      3.3434                 4.4807                 0.1421

                     58                     59                     60
                      A                      A                      A
 Frequencies --   1535.7452              1538.4562              1543.7402
 Red. masses --      1.0572                 1.0629                 2.2413
 Frc consts  --      1.4691                 1.4822                 3.1471
 IR Inten    --     15.2308                 6.0674                30.3705

                     61                     62                     63
                      A                      A                      A
 Frequencies --   1623.1277              1661.7869              3039.8563
 Red. masses --      5.6191                 5.5862                 1.0295
 Frc consts  --      8.7221                 9.0890                 5.6050
 IR Inten    --      1.1202                 0.2372                50.4927

                     64                     65                     66
                      A                      A                      A
 Frequencies --   3042.2326              3049.2318              3049.7444
 Red. masses --      1.0402                 1.0374                 1.0374
 Frc consts  --      5.6721                 5.6832                 5.6847
 IR Inten    --     29.4210                16.6006                35.9238

                     67                     68                     69
                      A                      A                      A
 Frequencies --   3097.8615              3099.2262              3105.8905
 Red. masses --      1.1015                 1.0962                 1.1001
 Frc consts  --      6.2279                 6.2036                 6.2525
 IR Inten    --     14.8445                20.0068                14.7979

                     70                     71                     72
                      A                      A                      A
 Frequencies --   3110.9112              3126.5877              3129.2067
 Red. masses --      1.1076                 1.1026                 1.1014
 Frc consts  --      6.3158                 6.3503                 6.3540
 IR Inten    --     35.8202                13.9612                49.4275

                     73                     74                     75
                      A                      A                      A
 Frequencies --   3136.2795              3142.6613              3179.5976
 Red. masses --      1.1014                 1.1047                 1.0872
 Frc consts  --      6.3830                 6.4284                 6.4760
 IR Inten    --     57.6460                20.9488                11.6456

                     76                     77                     78
                      A                      A                      A
 Frequencies --   3179.8877              3198.0331              3217.5818
 Red. masses --      1.0890                 1.0940                 1.0922
 Frc consts  --      6.4876                 6.5925                 6.6621
 IR Inten    --     16.3855                13.6296                 3.0379

 - Thermochemistry -
 -------------------
 Temperature   298.150 Kelvin.  Pressure   1.00000 Atm.
 Atom     1 has atomic number  6 and mass  12.00000

 Molecular mass:   184.09219 amu.
 Principal axes and moments of inertia in atomic units:
                           1         2         3
     Eigenvalues --  1884.665133456.731394429.60535
           X            0.99951   0.03118   0.00317
           Y           -0.03117   0.99951  -0.00246
           Z           -0.00324   0.00236   0.99999
 This molecule is an asymmetric top.
 Rotational symmetry number  1.
 Warning -- assumption of classical behavior for rotation
           may cause significant error
 Rotational temperatures (Kelvin)      0.04596     0.02506     0.01955
 Rotational constants (GHZ):           0.95759     0.52209     0.40743
 Zero-point vibrational energy     624739.1 (Joules/Mol)
                                  149.31623 (Kcal/Mol)
 Warning -- explicit consideration of  20 degrees of freedom as
           vibrations may cause significant error
 Vibrational temperatures:     15.28    37.17    46.56    53.85    62.60
          (Kelvin)             84.71   105.23   123.62   144.93   193.32
                              224.06   311.20   423.46   439.47   459.79
                              520.26   536.76   595.35   635.23   732.35
                              912.89   937.75  1014.27  1027.74  1174.29
                             1181.76  1198.37  1202.31  1228.66  1372.06
                             1400.20  1457.84  1467.88  1481.59  1495.30
                             1547.71  1597.96  1655.08  1705.70  1731.61
                             1754.58  1778.18  1780.60  1791.02  1920.78
                             1942.39  2061.08  2075.87  2083.55  2092.50
                             2137.46  2172.31  2182.89  2189.65  2199.85
                             2201.10  2205.42  2209.59  2213.50  2221.10
                             2335.32  2390.94  4373.68  4377.09  4387.16
                             4387.90  4457.13  4459.10  4468.68  4475.91
                             4498.46  4502.23  4512.41  4521.59  4574.73
                             4575.15  4601.26  4629.38

 Zero-point correction=                           0.237951 (Hartree/Particle)
 Thermal correction to Energy=                    0.254136
 Thermal correction to Enthalpy=                  0.255081
 Thermal correction to Gibbs Free Energy=         0.189116
 Sum of electronic and zero-point Energies=           -863.894974
 Sum of electronic and thermal Energies=              -863.878788
 Sum of electronic and thermal Enthalpies=            -863.877844
 Sum of electronic and thermal Free Energies=         -863.943808

                     E (Thermal)             CV                S
                      KCal/Mol        Cal/Mol-Kelvin    Cal/Mol-Kelvin
 Total                  159.473             53.578            138.834
 Electronic               0.000              0.000              0.000
 Translational            0.889              2.981             41.537
 Rotational               0.889              2.981             31.734
 Vibrational            157.696             47.616             65.563
 Vibration     1          0.593              1.987              7.892
 Vibration     2          0.593              1.985              6.126
 Vibration     3          0.594              1.983              5.679
 Vibration     4          0.594              1.982              5.391
 Vibration     5          0.595              1.980              5.093
 Vibration     6          0.596              1.974              4.494
 Vibration     7          0.599              1.967              4.067
 Vibration     8          0.601              1.959              3.751
 Vibration     9          0.604              1.949              3.440
 Vibration    10          0.613              1.919              2.883
 Vibration    11          0.620              1.896              2.601
 Vibration    12          0.645              1.816              1.990
 Vibration    13          0.689              1.684              1.449
 Vibration    14          0.696              1.663              1.387
 Vibration    15          0.705              1.636              1.312
 Vibration    16          0.736              1.551              1.115
 Vibration    17          0.744              1.527              1.067
 Vibration    18          0.777              1.440              0.913
 Vibration    19          0.801              1.380              0.822
 Vibration    20          0.864              1.230              0.636

                           ! Non-Optimized Parameters !
 Normal termination of Gaussian 16 at Wed Dec  9 17:19:30 2020.

 ----------------------------------------------------------------------
 # B3LYP/6-311++G(d,p) empiricaldispersion=gd3bj scf=xqc pop=npa geom=c
 heck
 ----------------------------------------------------------------------

 ---------------------------------------
 CID_143222857_JID_2173_Energie_neutraal
 ---------------------------------------
 Structure from the checkpoint file:  "JID_2173.chk"
 Charge =  0 Multiplicity = 1

 SCF Done:  E(RB3LYP) =  -864.289999595     A.U. after   15 cycles
 Normal termination of Gaussian 16 at Wed Dec  9 17:23:21 2020.

 ----------------------------------------------------------------------
 # B3LYP/6-311++G(d,p) empiricaldispersion=gd3bj scf=xqc pop=npa geom=c
 heck
 ----------------------------------------------------------------------

 -------------------------------------
 CID_143222857_JID_2173_Energie_kation
 -------------------------------------
 Structure from the checkpoint file:  "JID_2173.chk"
 Charge =  1 Multiplicity = 2

 SCF Done:  E(UB3LYP) =  -864.001833885     A.U. after   23 cycles
 Normal termination of Gaussian 16 at Wed Dec  9 17:30:27 2020.
 Gaussian 16:  ES64L-G16RevA.03 25-Dec-2016

 ----------------------------------------------------------------------
 # B3LYP/6-311++G(d,p) empiricaldispersion=gd3bj scf=xqc pop=npa geom=c
 heck
 ----------------------------------------------------------------------

 ------------------------------------
 CID_143222857_JID_2173_Energie_anion
 ------------------------------------
 Structure from the checkpoint file:  "JID_2173.chk"
 Charge = -1 Multiplicity = 2

                         Standard orientation:
 ---------------------------------------------------------------------
 Center     Atomic      Atomic             Coordinates (Angstroms)
 Number     Number       Type             X           Y           Z
 ---------------------------------------------------------------------
      1          6           0        2.084346    2.513659   -0.186409
      2          6           0        0.745385    3.246735   -0.278357
      3          6           0        3.463047   -1.788765   -0.317817
      4          6           0        2.068068   -1.271592   -0.069591
      5          6           0        1.580889   -1.099799    1.230660
      6          6           0        0.300147   -0.599768    1.463806
      7          6           0       -0.508853   -0.228678    0.385412
      8          6           0       -0.036765   -0.390423   -0.922471
      9          6           0        1.230652   -0.922074   -1.137911
     10         16           0       -2.103664    0.494830    0.713812
     11          8           0       -2.977368    0.008767   -0.647093
     12          6           0       -3.417408   -1.354134   -0.591964
     13          1           0        2.029166    1.679328    0.519670
     14          1           0        2.885658    3.185148    0.144629
     15          1           0        2.377267    2.098514   -1.157325
     16          1           0        0.795324    4.087389   -0.980459
     17          1           0       -0.051373    2.575242   -0.613584
     18          1           0        0.444014    3.647884    0.696366
     19          1           0        4.163673   -0.961528   -0.492253
     20          1           0        3.837285   -2.359214    0.538226
     21          1           0        3.500402   -2.436425   -1.200351
     22          1           0        2.204554   -1.379650    2.076182
     23          1           0       -0.071220   -0.507066    2.480710
     24          1           0       -0.670130   -0.107986   -1.756850
     25          1           0        1.585221   -1.053000   -2.157658
     26          1           0       -2.563729   -2.041717   -0.566653
     27          1           0       -4.054795   -1.529816    0.281941
     28          1           0       -3.990787   -1.515490   -1.508979
 ---------------------------------------------------------------------

 SCF Done:  E(UB3LYP) =  -864.278977448     A.U. after   33 cycles
 SCF Done:  E(UB3LYP) =  -864.278977448     a.u. after    1 cycles

 The electronic state is 2-A.
 Alpha  occ. eigenvalues --  -88.74592 -19.01943 -10.10106 -10.07242 -10.05474
 Alpha  occ. eigenvalues --  -10.05452 -10.05355 -10.05300 -10.05218 -10.05108
 Alpha  occ. eigenvalues --  -10.05027 -10.04990  -7.82828  -5.79449  -5.78826
 Alpha  occ. eigenvalues --   -5.78093  -0.91525  -0.74210  -0.66954  -0.64671
 Alpha  occ. eigenvalues --   -0.62757  -0.61476  -0.57060  -0.52032  -0.51006
 Alpha  occ. eigenvalues --   -0.49047  -0.45558  -0.38969  -0.35718  -0.34395
 Alpha  occ. eigenvalues --   -0.33915  -0.33349  -0.33066  -0.32966  -0.32171
 Alpha  occ. eigenvalues --   -0.30666  -0.30285  -0.27318  -0.26508  -0.26410
 Alpha  occ. eigenvalues --   -0.24826  -0.23963  -0.23789  -0.22693  -0.22431
 Alpha  occ. eigenvalues --   -0.21939  -0.16176  -0.14997  -0.13877  -0.08830
 Alpha  occ. eigenvalues --    0.05094
 Alpha virt. eigenvalues --    0.07051   0.07938   0.08075   0.08471   0.09576
 Alpha virt. eigenvalues --    0.09904   0.10142   0.10425   0.11054   0.11372
 Alpha virt. eigenvalues --    0.12025   0.12571   0.13076   0.13271   0.14351

  Beta  occ. eigenvalues --  -88.74515 -19.01667 -10.10077 -10.07176 -10.05420
  Beta  occ. eigenvalues --  -10.05397 -10.05317 -10.05280 -10.05216 -10.05105
  Beta  occ. eigenvalues --  -10.04994 -10.04902  -7.82752  -5.79231  -5.78779
  Beta  occ. eigenvalues --   -5.78042  -0.90922  -0.74039  -0.66679  -0.64666
  Beta  occ. eigenvalues --   -0.62627  -0.61197  -0.56885  -0.51767  -0.50999
  Beta  occ. eigenvalues --   -0.48952  -0.45356  -0.38711  -0.35517  -0.34188
  Beta  occ. eigenvalues --   -0.33750  -0.33250  -0.33038  -0.32961  -0.31986
  Beta  occ. eigenvalues --   -0.30482  -0.30226  -0.27248  -0.26408  -0.26315
  Beta  occ. eigenvalues --   -0.24562  -0.23935  -0.23736  -0.22518  -0.22248
  Beta  occ. eigenvalues --   -0.21616  -0.15879  -0.14562  -0.13561  -0.08352
  Beta virt. eigenvalues --    0.07316   0.08005   0.08248   0.08790   0.09302
  Beta virt. eigenvalues --    0.09718   0.10001   0.10337   0.10741   0.11067
  Beta virt. eigenvalues --    0.11671   0.12207   0.12838   0.13263   0.13569

 Mulliken charges and spin densities:
               1          2
     1  C   -0.244130  -0.039916
     2  C   -0.538945  -0.020989
     3  C    2.361580  -3.045259
     4  C   -1.046940   1.539580
     5  C   -0.172762  -0.210105
     6  C   -0.666928   0.189066
     7  C    1.701971  -1.391448
     8  C   -0.066793   0.074721
     9  C   -1.468974   0.933658
    10  S   -0.082796   0.275668
    11  O   -0.112998  -0.037784
    12  C   -0.243931  -0.027532
    13  H    0.227627  -0.045009
    14  H    0.099894   0.016121
    15  H    0.069595   0.036624
    16  H    0.098045   0.003390
    17  H    0.224218  -0.014061
    18  H    0.071491   0.037634
    19  H    0.126789   0.033183
    20  H   -0.454063   0.593424
    21  H   -0.314492   0.449794
    22  H   -0.317456   0.483482
    23  H   -0.417139   0.595822
    24  H    0.200174  -0.004168
    25  H   -0.219284   0.387654
    26  H    0.086199   0.054625
    27  H    0.085214   0.027885
    28  H    0.014832   0.103938
 Sum of Mulliken charges =  -1.00000   1.00000

 Dipole moment (field-independent basis, Debye):
    X=             -1.7110    Y=              4.0539    Z=             -1.2392  Tot=              4.5714
 Quadrupole moment (field-independent basis, Debye-Ang):
   XX=           -135.0214   YY=           -120.1819   ZZ=           -108.9736
   XY=             16.2320   XZ=             -0.5976   YZ=              0.4310

 Summary of Natural Population Analysis:

                                       Natural Population
                Natural  -----------------------------------------------
    Atom  No    Charge         Core      Valence    Rydberg      Total
 -----------------------------------------------------------------------
      C    1   -0.28818      0.99968     2.28390    0.00459     3.28818
      C    2   -0.28618      0.99968     2.28289    0.00361     3.28618
      C    3   -0.29232      0.99964     2.28677    0.00591     3.29232
      C    4   -0.00232      0.99951     1.99274    0.01006     3.00232
      C    5   -0.09949      0.99951     2.08969    0.01029     3.09949
      C    6   -0.10494      0.99949     2.09331    0.01214     3.10494
      C    7   -0.10130      0.99940     2.08845    0.01345     3.10130
      C    8   -0.09568      0.99949     2.08492    0.01127     3.09568
      C    9   -0.10647      0.99951     2.09668    0.01028     3.10647
      S   10    0.28163      4.99945     2.69371    0.02521     7.71837
      O   11   -0.33215      0.99992     3.32307    0.00916     4.33215
      C   12   -0.10164      0.99964     2.09113    0.01087     3.10164
      H   13    0.10659      0.00000     0.39216    0.00125     0.39341
      H   14    0.08656      0.00000     0.41244    0.00100     0.41344
      H   15    0.09535      0.00000     0.40364    0.00101     0.40465
      H   16    0.08605      0.00000     0.41307    0.00088     0.41395
      H   17    0.10706      0.00000     0.39179    0.00115     0.39294
      H   18    0.09284      0.00000     0.40608    0.00108     0.40716
      H   19    0.09957      0.00000     0.39946    0.00097     0.40043
      H   20    0.10292      0.00000     0.39532    0.00176     0.39708
      H   21    0.10247      0.00000     0.39580    0.00172     0.39753
      H   22    0.09756      0.00000     0.40139    0.00105     0.40244
      H   23    0.10173      0.00000     0.39672    0.00155     0.39827
      H   24    0.10416      0.00000     0.39414    0.00170     0.39584
      H   25    0.09610      0.00000     0.40296    0.00094     0.40390
      H   26    0.08544      0.00000     0.41301    0.00155     0.41456
      H   27    0.07916      0.00000     0.41952    0.00132     0.42084
      H   28    0.08545      0.00000     0.41347    0.00108     0.41455
 =======================================================================
   * Total *    0.00000     15.99492    33.85820    0.14687    50.00000

 Normal termination of Gaussian 16 at Wed Dec  9 17:40:11 2020.
