 Gaussian 16, Revision A.03,

 -----------------------------------------------------------
 # opt freq B3LYP/6-31G(d) empiricaldispersion=gd3bj scf=xqc
 -----------------------------------------------------------

 ------------------------------
 CID_17752573_JID_4357_neutraal
 ------------------------------
 Symbolic Z-matrix:
 Charge =  0 Multiplicity = 1

 SCF Done:  E(RB3LYP) =  -653.260971590     A.U. after   14 cycles
 SCF Done:  E(RB3LYP) =  -653.262980957     A.U. after   13 cycles
 SCF Done:  E(RB3LYP) =  -653.261786832     A.U. after   13 cycles
 SCF Done:  E(RB3LYP) =  -653.264209460     A.U. after   11 cycles
 SCF Done:  E(RB3LYP) =  -653.264882112     A.U. after   12 cycles
 SCF Done:  E(RB3LYP) =  -653.265078738     A.U. after   12 cycles
 SCF Done:  E(RB3LYP) =  -653.265152137     A.U. after   11 cycles
 SCF Done:  E(RB3LYP) =  -653.265176168     A.U. after   11 cycles
 SCF Done:  E(RB3LYP) =  -653.265184539     A.U. after   10 cycles
 SCF Done:  E(RB3LYP) =  -653.265186801     A.U. after    9 cycles
 SCF Done:  E(RB3LYP) =  -653.265187206     A.U. after    8 cycles
 SCF Done:  E(RB3LYP) =  -653.265187364     A.U. after    7 cycles
 SCF Done:  E(RB3LYP) =  -653.265187392     A.U. after    7 cycles
 Optimization completed.
    -- Stationary point found.
 Normal termination of Gaussian 16 at Thu Dec 10 09:23:41 2020.

 --------------------------------------------------------------------
 #N Geom=AllCheck Guess=TCheck SCRF=Check GenChk RB3LYP/6-31G(d) Freq
 --------------------------------------------------------------------

 Structure from the checkpoint file:  "JID_4357.chk"
 ------------------------------
 CID_17752573_JID_4357_neutraal
 ------------------------------
 Charge =  0 Multiplicity = 1

 SCF Done:  E(RB3LYP) =  -653.265187392     A.U. after    1 cycles

  Exact polarizability: 219.932 -13.058 118.556   4.301   9.824  67.847
 Approx polarizability: 293.938 -25.768 202.921   3.242  24.013 102.457

                      1                      2                      3
                      A                      A                      A
 Frequencies --     29.9558                42.5427                68.3804
 Red. masses --      4.2873                 4.0177                 4.8458
 Frc consts  --      0.0023                 0.0043                 0.0133
 IR Inten    --      0.6878                 1.2087                 0.1682

                      4                      5                      6
                      A                      A                      A
 Frequencies --     89.9071               110.0104               136.0680
 Red. masses --      3.1661                 3.4668                 5.1750
 Frc consts  --      0.0151                 0.0247                 0.0565
 IR Inten    --      0.7541                 5.8157                 0.0199

                      7                      8                      9
                      A                      A                      A
 Frequencies --    185.2053               222.7112               235.4196
 Red. masses --      3.0376                 2.8602                 2.1561
 Frc consts  --      0.0614                 0.0836                 0.0704
 IR Inten    --      0.2486                 3.8307                 1.4011

                     10                     11                     12
                      A                      A                      A
 Frequencies --    252.0433               273.9399               344.7685
 Red. masses --      2.8741                 1.5601                 3.0777
 Frc consts  --      0.1076                 0.0690                 0.2155
 IR Inten    --     11.9652                 0.8982                 1.1056

                     13                     14                     15
                      A                      A                      A
 Frequencies --    392.8669               414.7367               425.3419
 Red. masses --      4.7513                 3.4940                 3.1332
 Frc consts  --      0.4321                 0.3541                 0.3340
 IR Inten    --      6.5825                14.0846                 5.0592

                     16                     17                     18
                      A                      A                      A
 Frequencies --    437.6112               453.0336               511.0778
 Red. masses --      4.4291                 1.2402                 3.2497
 Frc consts  --      0.4997                 0.1500                 0.5001
 IR Inten    --      1.5644               217.0975                 2.3426

                     19                     20                     21
                      A                      A                      A
 Frequencies --    539.5548               545.4865               612.6809
 Red. masses --      2.3876                 2.4370                 4.9641
 Frc consts  --      0.4095                 0.4272                 1.0979
 IR Inten    --      2.8138                 5.4522                48.8951

                     22                     23                     24
                      A                      A                      A
 Frequencies --    656.7080               727.3671               795.6505
 Red. masses --      6.9894                 4.1492                 4.8612
 Frc consts  --      1.7760                 1.2934                 1.8132
 IR Inten    --      1.4786                 1.0426                 3.6546

                     25                     26                     27
                      A                      A                      A
 Frequencies --    818.6019               829.0543               836.5037
 Red. masses --      1.3716                 2.2166                 1.6692
 Frc consts  --      0.5415                 0.8976                 0.6882
 IR Inten    --     10.3067                19.4155                10.3256

                     28                     29                     30
                      A                      A                      A
 Frequencies --    859.7359               887.4785               915.6167
 Red. masses --      1.8791                 3.6576                 2.3308
 Frc consts  --      0.8183                 1.6973                 1.1513
 IR Inten    --     27.5059                16.8253                24.3756

                     31                     32                     33
                      A                      A                      A
 Frequencies --    940.1610               954.7747               981.5166
 Red. masses --      1.3415                 1.2945                 1.1097
 Frc consts  --      0.6986                 0.6953                 0.6299
 IR Inten    --      0.8378                 1.1361                38.1566

                     34                     35                     36
                      A                      A                      A
 Frequencies --   1012.6397              1032.5816              1085.0494
 Red. masses --      2.4709                 2.7418                 5.9411
 Frc consts  --      1.4929                 1.7224                 4.1211
 IR Inten    --     18.8080                 0.6090                62.4428

                     37                     38                     39
                      A                      A                      A
 Frequencies --   1095.7908              1138.3085              1147.1716
 Red. masses --      2.7996                 2.3661                 1.4297
 Frc consts  --      1.9806                 1.8064                 1.1086
 IR Inten    --     29.1680                37.2537                 6.3877

                     40                     41                     42
                      A                      A                      A
 Frequencies --   1186.9134              1196.8646              1216.2227
 Red. masses --      1.2718                 2.9285                 1.1888
 Frc consts  --      1.0557                 2.4717                 1.0361
 IR Inten    --      0.7752               356.4789                 5.3495

                     43                     44                     45
                      A                      A                      A
 Frequencies --   1220.2345              1240.6536              1269.9071
 Red. masses --      1.3839                 1.1727                 2.1835
 Frc consts  --      1.2141                 1.0635                 2.0746
 IR Inten    --     10.3595                16.1986                31.2843

                     46                     47                     48
                      A                      A                      A
 Frequencies --   1301.8174              1319.6346              1335.7909
 Red. masses --      5.3614                 1.3465                 1.9906
 Frc consts  --      5.3534                 1.3815                 2.0928
 IR Inten    --    236.3681               182.8436                12.0414

                     49                     50                     51
                      A                      A                      A
 Frequencies --   1353.1359              1375.0336              1392.9102
 Red. masses --      1.8964                 1.6095                 1.4335
 Frc consts  --      2.0458                 1.7930                 1.6386
 IR Inten    --     32.7737                99.6391                 5.6408

                     52                     53                     54
                      A                      A                      A
 Frequencies --   1416.3651              1418.8635              1445.9709
 Red. masses --      1.2143                 1.2803                 1.3158
 Frc consts  --      1.4352                 1.5186                 1.6209
 IR Inten    --     10.9838                 2.5789                26.1923

                     55                     56                     57
                      A                      A                      A
 Frequencies --   1472.5341              1500.3364              1517.7191
 Red. masses --      2.9402                 1.1927                 1.0995
 Frc consts  --      3.7562                 1.5818                 1.4922
 IR Inten    --      0.1117                15.4841                 5.3135

                     58                     59                     60
                      A                      A                      A
 Frequencies --   1520.5570              1521.3532              1536.4722
 Red. masses --      1.0478                 1.0947                 1.0625
 Frc consts  --      1.4274                 1.4928                 1.4779
 IR Inten    --      5.3233                 0.7234                47.8321

                     61                     62                     63
                      A                      A                      A
 Frequencies --   1569.4062              1626.8104              1676.8090
 Red. masses --      2.4591                 6.3429                 5.7459
 Frc consts  --      3.5685                 9.8903                 9.5186
 IR Inten    --    110.9947                 2.6590                50.2536

                     64                     65                     66
                      A                      A                      A
 Frequencies --   1709.7305              3013.9133              3023.5266
 Red. masses --      4.9311                 1.0687                 1.0349
 Frc consts  --      8.4927                 5.7194                 5.5741
 IR Inten    --    229.1877                59.9258                66.1011

                     67                     68                     69
                      A                      A                      A
 Frequencies --   3058.2061              3081.1221              3096.0474
 Red. masses --      1.0586                 1.1065                 1.0953
 Frc consts  --      5.8333                 6.1890                 6.1859
 IR Inten    --     34.2223                45.7073                55.2105

                     70                     71                     72
                      A                      A                      A
 Frequencies --   3113.0214              3157.9089              3181.6860
 Red. masses --      1.1086                 1.0995                 1.0892
 Frc consts  --      6.3299                 6.4603                 6.4963
 IR Inten    --     32.8668                30.7521                12.6210

                     73                     74                     75
                      A                      A                      A
 Frequencies --   3192.2683              3205.0056              3210.1555
 Red. masses --      1.0881                 1.0910                 1.0873
 Frc consts  --      6.5333                 6.6027                 6.6014
 IR Inten    --     10.7923                10.2517                11.4772

                     76                     77                     78
                      A                      A                      A
 Frequencies --   3216.2575              3226.8588              3732.3670
 Red. masses --      1.0936                 1.0912                 1.0662
 Frc consts  --      6.6652                 6.6945                 8.7513
 IR Inten    --     17.1790                14.0681                40.2779

 - Thermochemistry -
 -------------------
 Temperature   298.150 Kelvin.  Pressure   1.00000 Atm.
 Atom     1 has atomic number  6 and mass  12.00000

 Molecular mass:   194.09429 amu.
 Principal axes and moments of inertia in atomic units:
                           1         2         3
     Eigenvalues --   867.401377271.665007971.81174
           X            0.99998  -0.00541   0.00163
           Y            0.00539   0.99991   0.01245
           Z           -0.00170  -0.01244   0.99992
 This molecule is an asymmetric top.
 Rotational symmetry number  1.
 Warning -- assumption of classical behavior for rotation
           may cause significant error
 Rotational temperatures (Kelvin)      0.09985     0.01191     0.01087
 Rotational constants (GHZ):           2.08063     0.24819     0.22639
 Zero-point vibrational energy     615409.6 (Joules/Mol)
                                  147.08641 (Kcal/Mol)
 Warning -- explicit consideration of  21 degrees of freedom as
           vibrations may cause significant error
 Vibrational temperatures:     43.10    61.21    98.38   129.36   158.28
          (Kelvin)            195.77   266.47   320.43   338.72   362.63
                              394.14   496.04   565.25   596.71   611.97
                              629.62   651.81   735.33   776.30   784.83
                              881.51   944.86  1046.52  1144.76  1177.79
                             1192.82  1203.54  1236.97  1276.88  1317.37
                             1352.68  1373.71  1412.18  1456.96  1485.65
                             1561.14  1576.60  1637.77  1650.52  1707.70
                             1722.02  1749.87  1755.65  1785.02  1827.11
                             1873.02  1898.66  1921.91  1946.86  1978.37
                             2004.09  2037.83  2041.43  2080.43  2118.65
                             2158.65  2183.66  2187.74  2188.89  2210.64
                             2258.03  2340.62  2412.55  2459.92  4336.35
                             4350.18  4400.08  4433.05  4454.52  4478.94
                             4543.53  4577.74  4592.96  4611.29  4618.70
                             4627.48  4642.73  5370.04

 Zero-point correction=                           0.234397 (Hartree/Particle)
 Thermal correction to Energy=                    0.248200
 Thermal correction to Enthalpy=                  0.249144
 Thermal correction to Gibbs Free Energy=         0.192542
 Sum of electronic and zero-point Energies=           -653.030790
 Sum of electronic and thermal Energies=              -653.016987
 Sum of electronic and thermal Enthalpies=            -653.016043
 Sum of electronic and thermal Free Energies=         -653.072645

                     E (Thermal)             CV                S
                      KCal/Mol        Cal/Mol-Kelvin    Cal/Mol-Kelvin
 Total                  155.748             51.443            119.129
 Electronic               0.000              0.000              0.000
 Translational            0.889              2.981             41.695
 Rotational               0.889              2.981             32.286
 Vibrational            153.971             45.482             45.148
 Vibration     1          0.594              1.984              5.832
 Vibration     2          0.595              1.980              5.137
 Vibration     3          0.598              1.969              4.199
 Vibration     4          0.602              1.956              3.662
 Vibration     5          0.606              1.941              3.269
 Vibration     6          0.614              1.917              2.858
 Vibration     7          0.631              1.860              2.275
 Vibration     8          0.648              1.806              1.937
 Vibration     9          0.655              1.787              1.837
 Vibration    10          0.664              1.759              1.716
 Vibration    11          0.676              1.721              1.571
 Vibration    12          0.723              1.586              1.190
 Vibration    13          0.760              1.485              0.989
 Vibration    14          0.778              1.438              0.910
 Vibration    15          0.787              1.415              0.874
 Vibration    16          0.798              1.388              0.834
 Vibration    17          0.812              1.354              0.787
 Vibration    18          0.866              1.225              0.631
 Vibration    19          0.895              1.163              0.566
 Vibration    20          0.901              1.150              0.554
 Vibration    21          0.972              1.005              0.428

 Optimization completed.
    -- Stationary point found.
 Normal termination of Gaussian 16 at Thu Dec 10 09:30:35 2020.

 ----------------------------------------------------------------------
 # B3LYP/6-311++G(d,p) empiricaldispersion=gd3bj scf=xqc pop=npa geom=c
 heck
 ----------------------------------------------------------------------

 --------------------------------------
 CID_17752573_JID_4357_Energie_neutraal
 --------------------------------------
 Structure from the checkpoint file:  "JID_4357.chk"
 Charge =  0 Multiplicity = 1

 SCF Done:  E(RB3LYP) =  -653.457529852     A.U. after   14 cycles
 Normal termination of Gaussian 16 at Thu Dec 10 09:33:46 2020.

 ----------------------------------------------------------------------
 # B3LYP/6-311++G(d,p) empiricaldispersion=gd3bj scf=xqc pop=npa geom=c
 heck
 ----------------------------------------------------------------------

 ------------------------------------
 CID_17752573_JID_4357_Energie_kation
 ------------------------------------
 Structure from the checkpoint file:  "JID_4357.chk"
 Charge =  1 Multiplicity = 2

 SCF Done:  E(UB3LYP) =  -653.193377346     A.U. after   20 cycles
 Normal termination of Gaussian 16 at Thu Dec 10 09:40:12 2020.
 Gaussian 16:  ES64L-G16RevA.03 25-Dec-2016

 ----------------------------------------------------------------------
 # B3LYP/6-311++G(d,p) empiricaldispersion=gd3bj scf=xqc pop=npa geom=c
 heck
 ----------------------------------------------------------------------

 -----------------------------------
 CID_17752573_JID_4357_Energie_anion
 -----------------------------------
 Structure from the checkpoint file:  "JID_4357.chk"
 Charge = -1 Multiplicity = 2

                         Standard orientation:
 ---------------------------------------------------------------------
 Center     Atomic      Atomic             Coordinates (Angstroms)
 Number     Number       Type             X           Y           Z
 ---------------------------------------------------------------------
      1          6           0       -5.196149    0.933459   -0.016752
      2          8           0       -4.446292   -0.260000   -0.160574
      3          6           0       -3.088362   -0.175861   -0.041001
      4          6           0       -2.386818   -1.382815   -0.176834
      5          6           0       -1.005936   -1.407572   -0.065868
      6          6           0       -0.266254   -0.230380    0.167247
      7          6           0       -0.989347    0.961452    0.313654
      8          6           0       -2.380472    1.002357    0.212771
      9          6           0        1.197242   -0.198457    0.266556
     10          6           0        2.010742   -1.165075   -0.195961
     11          8           0        3.366198   -1.255000   -0.120417
     12          6           0        4.101615   -0.290662    0.641689
     13          6           0        4.520935    0.909663   -0.198615
     14          8           0        3.459717    1.788417   -0.536878
     15          1           0       -6.242022    0.649324   -0.145030
     16          1           0       -4.924639    1.674698   -0.780245
     17          1           0       -5.059534    1.377943    0.978165
     18          1           0       -2.952474   -2.292217   -0.352915
     19          1           0       -0.493229   -2.361945   -0.141058
     20          1           0       -0.449848    1.886109    0.503966
     21          1           0       -2.893486    1.949422    0.331601
     22          1           0        1.620602    0.694062    0.716049
     23          1           0        1.628029   -2.038770   -0.715240
     24          1           0        3.525149    0.021383    1.520400
     25          1           0        4.997840   -0.822215    0.979131
     26          1           0        5.234644    1.506377    0.380703
     27          1           0        5.042123    0.542831   -1.096500
     28          1           0        2.826689    1.289000   -1.077396
 ---------------------------------------------------------------------

 SCF Done:  E(UB3LYP) =  -653.444159443     A.U. after   33 cycles
 SCF Done:  E(UB3LYP) =  -653.444159443     a.u. after    1 cycles

 The electronic state is 2-A.
 Alpha  occ. eigenvalues --  -19.06870 -19.06043 -19.03909 -10.13835 -10.13692
 Alpha  occ. eigenvalues --  -10.13610 -10.13296 -10.12682 -10.08769 -10.08229
 Alpha  occ. eigenvalues --  -10.08182 -10.08025 -10.07955 -10.07441  -0.98183
 Alpha  occ. eigenvalues --   -0.97646  -0.93991  -0.76709  -0.70367  -0.67448
 Alpha  occ. eigenvalues --   -0.66003  -0.63643  -0.59912  -0.56358  -0.52372
 Alpha  occ. eigenvalues --   -0.50561  -0.47046  -0.44639  -0.43915  -0.42616
 Alpha  occ. eigenvalues --   -0.41243  -0.38387  -0.37748  -0.37646  -0.36135
 Alpha  occ. eigenvalues --   -0.34869  -0.33419  -0.33210  -0.32003  -0.30577
 Alpha  occ. eigenvalues --   -0.29259  -0.28427  -0.27881  -0.27013  -0.26462
 Alpha  occ. eigenvalues --   -0.24236  -0.23773  -0.23541  -0.19895  -0.16911
 Alpha  occ. eigenvalues --   -0.16566  -0.10750   0.04120
 Alpha virt. eigenvalues --    0.05240   0.06336   0.07311   0.07522   0.07638
 Alpha virt. eigenvalues --    0.08151   0.08629   0.09342   0.09490   0.10095
 Alpha virt. eigenvalues --    0.11016   0.11450   0.12002   0.12740   0.13423

  Beta  occ. eigenvalues --  -19.06868 -19.06024 -19.03901 -10.13796 -10.13666
  Beta  occ. eigenvalues --  -10.13553 -10.13267 -10.12630 -10.08750 -10.08195
  Beta  occ. eigenvalues --  -10.08172 -10.08035 -10.07942 -10.07429  -0.98155
  Beta  occ. eigenvalues --   -0.97599  -0.93972  -0.76661  -0.70295  -0.67387
  Beta  occ. eigenvalues --   -0.65960  -0.63574  -0.59840  -0.56292  -0.52331
  Beta  occ. eigenvalues --   -0.50485  -0.46984  -0.44595  -0.43881  -0.42583
  Beta  occ. eigenvalues --   -0.41191  -0.38344  -0.37677  -0.37574  -0.36094
  Beta  occ. eigenvalues --   -0.34831  -0.33390  -0.33175  -0.31955  -0.30522
  Beta  occ. eigenvalues --   -0.29149  -0.28373  -0.27839  -0.26961  -0.26408
  Beta  occ. eigenvalues --   -0.24184  -0.23691  -0.23497  -0.19845  -0.16806
  Beta  occ. eigenvalues --   -0.16477  -0.10587
  Beta virt. eigenvalues --    0.06342   0.06639   0.06816   0.07460   0.07570
  Beta virt. eigenvalues --    0.08219   0.08485   0.09066   0.09751   0.10180
  Beta virt. eigenvalues --    0.10479   0.11358   0.11668   0.12003   0.12759

 Mulliken charges and spin densities:
               1          2
     1  C    0.928290  -1.256848
     2  O   -0.217484   0.063663
     3  C   -1.000629   0.439631
     4  C   -0.310476  -0.175276
     5  C   -1.543113   0.435725
     6  C    2.499156  -1.062866
     7  C    1.189523  -0.955585
     8  C   -0.373259   0.434876
     9  C    0.194340  -0.499454
    10  C   -0.697197   0.462443
    11  O   -0.071882   0.015072
    12  C   -0.068689  -0.217666
    13  C    0.923318  -1.192430
    14  O   -0.301624   0.037232
    15  H   -0.750778   0.925768
    16  H   -0.266807   0.421497
    17  H   -0.246994   0.399784
    18  H    0.129941   0.053321
    19  H   -0.052703   0.127092
    20  H   -0.175695   0.339541
    21  H   -0.062050   0.243158
    22  H    0.321719  -0.163541
    23  H    0.053177   0.102185
    24  H    0.026857   0.133528
    25  H   -0.946651   1.139539
    26  H   -0.375442   0.537191
    27  H    0.028605   0.134928
    28  H    0.166544   0.077494
 Sum of Mulliken charges =  -1.00000   1.00000

 Dipole moment (field-independent basis, Debye):
    X=              0.7735    Y=             -2.7688    Z=             -1.7270  Tot=              3.3536
 Quadrupole moment (field-independent basis, Debye-Ang):
   XX=           -234.4797   YY=           -117.4220   ZZ=           -108.9049
   XY=             11.1700   XZ=             -9.0931   YZ=              1.9300

 Summary of Natural Population Analysis:

                                       Natural Population
                Natural  -----------------------------------------------
    Atom  No    Charge         Core      Valence    Rydberg      Total
 -----------------------------------------------------------------------
      C    1   -0.10082      0.99960     2.09195    0.00927     3.10082
      O    2   -0.27300      0.99986     3.26301    0.01013     4.27300
      C    3    0.16191      0.99938     1.82470    0.01401     2.83809
      C    4   -0.12014      0.99953     2.11130    0.00931     3.12014
      C    5   -0.08570      0.99954     2.07841    0.00776     3.08570
      C    6   -0.04346      0.99951     2.03488    0.00906     3.04346
      C    7   -0.08494      0.99954     2.07636    0.00903     3.08494
      C    8   -0.14326      0.99952     2.13509    0.00865     3.14326
      C    9   -0.16948      0.99952     2.16153    0.00843     3.16948
      C   10    0.10004      0.99943     1.88768    0.01284     2.89996
      O   11   -0.27838      0.99987     3.26806    0.01045     4.27838
      C   12   -0.02826      0.99957     2.01536    0.01333     3.02826
      C   13   -0.02305      0.99960     2.01077    0.01268     3.02305
      O   14   -0.36891      0.99990     3.36193    0.00708     4.36891
      H   15    0.09537      0.00000     0.40285    0.00178     0.40463
      H   16    0.08558      0.00000     0.41227    0.00215     0.41442
      H   17    0.08455      0.00000     0.41368    0.00177     0.41545
      H   18    0.10433      0.00000     0.39463    0.00104     0.39567
      H   19    0.09699      0.00000     0.40154    0.00146     0.40301
      H   20    0.09933      0.00000     0.39925    0.00142     0.40067
      H   21    0.10723      0.00000     0.39151    0.00127     0.39277
      H   22    0.10686      0.00000     0.39081    0.00233     0.39314
      H   23    0.08623      0.00000     0.41249    0.00128     0.41377
      H   24    0.08895      0.00000     0.40955    0.00151     0.41105
      H   25    0.09934      0.00000     0.39718    0.00347     0.40066
      H   26    0.09180      0.00000     0.40612    0.00208     0.40820
      H   27    0.07919      0.00000     0.41941    0.00140     0.42081
      H   28    0.23169      0.00000     0.26521    0.00311     0.26831
 =======================================================================
   * Total *   -0.00000     13.99437    37.83751    0.16812    52.00000

 Normal termination of Gaussian 16 at Thu Dec 10 09:51:02 2020.
