 Gaussian 16, Revision A.03,

 -----------------------------------------------------------
 # opt freq B3LYP/6-31G(d) empiricaldispersion=gd3bj scf=xqc
 -----------------------------------------------------------

 ------------------------------
 CID_81852974_JID_1435_neutraal
 ------------------------------
 Symbolic Z-matrix:
 Charge =  0 Multiplicity = 1

 SCF Done:  E(RB3LYP) =  -517.881998440     A.U. after   14 cycles
 SCF Done:  E(RB3LYP) =  -517.884928811     A.U. after   12 cycles
 SCF Done:  E(RB3LYP) =  -517.885166829     A.U. after   12 cycles
 SCF Done:  E(RB3LYP) =  -517.885293158     A.U. after   11 cycles
 SCF Done:  E(RB3LYP) =  -517.885354122     A.U. after   10 cycles
 SCF Done:  E(RB3LYP) =  -517.885366472     A.U. after   10 cycles
 SCF Done:  E(RB3LYP) =  -517.885368683     A.U. after    8 cycles
 SCF Done:  E(RB3LYP) =  -517.885369390     A.U. after    7 cycles
 SCF Done:  E(RB3LYP) =  -517.885369346     A.U. after    7 cycles
 Optimization completed.
    -- Stationary point found.
 Normal termination of Gaussian 16 at Tue Dec  8 19:59:05 2020.

 --------------------------------------------------------------------
 #N Geom=AllCheck Guess=TCheck SCRF=Check GenChk RB3LYP/6-31G(d) Freq
 --------------------------------------------------------------------

 Structure from the checkpoint file:  "JID_1435.chk"
 ------------------------------
 CID_81852974_JID_1435_neutraal
 ------------------------------
 Charge =  0 Multiplicity = 1

 SCF Done:  E(RB3LYP) =  -517.885369346     A.U. after    1 cycles

  Exact polarizability:  87.906  -1.743  88.598   0.019   0.558  89.354
 Approx polarizability: 120.061  -2.348 121.434  -5.136   3.791 143.642

                      1                      2                      3
                      A                      A                      A
 Frequencies --    110.8126               119.2366               175.1050
 Red. masses --      4.2277                 4.7245                 3.4906
 Frc consts  --      0.0306                 0.0396                 0.0631
 IR Inten    --      3.1176                 4.6119                 1.6048

                      4                      5                      6
                      A                      A                      A
 Frequencies --    179.0512               210.5726               220.8092
 Red. masses --      3.2230                 1.0738                 3.2335
 Frc consts  --      0.0609                 0.0281                 0.0929
 IR Inten    --      3.1156                 0.1936                 1.4577

                      7                      8                      9
                      A                      A                      A
 Frequencies --    288.6976               294.2703               324.3073
 Red. masses --      1.1466                 3.2329                 1.7458
 Frc consts  --      0.0563                 0.1649                 0.1082
 IR Inten    --      0.8941                 6.2290                37.5613

                     10                     11                     12
                      A                      A                      A
 Frequencies --    343.5361               350.2784               366.6841
 Red. masses --      2.3262                 1.8529                 4.8427
 Frc consts  --      0.1617                 0.1339                 0.3836
 IR Inten    --     10.6526                62.4336                 6.8836

                     13                     14                     15
                      A                      A                      A
 Frequencies --    386.6611               446.3277               500.9048
 Red. masses --      2.8625                 2.4031                 3.5698
 Frc consts  --      0.2522                 0.2821                 0.5277
 IR Inten    --     14.8547                 2.7457                13.4875

                     16                     17                     18
                      A                      A                      A
 Frequencies --    541.4593               607.3919               632.8255
 Red. masses --      4.3942                 6.3165                 3.6554
 Frc consts  --      0.7590                 1.3730                 0.8625
 IR Inten    --      1.5359                 3.4980                 3.0474

                     19                     20                     21
                      A                      A                      A
 Frequencies --    662.6988               770.0379               781.7288
 Red. masses --      4.7672                 3.3168                 2.5525
 Frc consts  --      1.2335                 1.1588                 0.9190
 IR Inten    --      1.3558                17.5666                 5.0383

                     22                     23                     24
                      A                      A                      A
 Frequencies --    828.5092               899.2633               929.8886
 Red. masses --      2.7094                 1.5746                 2.4029
 Frc consts  --      1.0958                 0.7502                 1.2242
 IR Inten    --      2.5781                 0.3532                 4.8538

                     25                     26                     27
                      A                      A                      A
 Frequencies --    936.1507               972.3828               993.9012
 Red. masses --      2.2004                 1.6887                 2.0360
 Frc consts  --      1.1362                 0.9408                 1.1850
 IR Inten    --      3.7630                 5.5993                 0.8008

                     28                     29                     30
                      A                      A                      A
 Frequencies --   1036.6713              1056.1520              1102.2136
 Red. masses --      2.2651                 2.2360                 1.5651
 Frc consts  --      1.4342                 1.4695                 1.1203
 IR Inten    --     34.6854                78.3541                 3.0993

                     31                     32                     33
                      A                      A                      A
 Frequencies --   1117.0472              1159.1151              1168.7686
 Red. masses --      2.3668                 1.9746                 2.2396
 Frc consts  --      1.7400                 1.5631                 1.8025
 IR Inten    --     14.7132                22.6303                15.5070

                     34                     35                     36
                      A                      A                      A
 Frequencies --   1184.6667              1196.1250              1263.7430
 Red. masses --      2.8553                 2.6854                 1.3798
 Frc consts  --      2.3610                 2.2637                 1.2983
 IR Inten    --     75.8817                62.7975                44.3081

                     37                     38                     39
                      A                      A                      A
 Frequencies --   1314.7462              1338.5793              1370.7836
 Red. masses --      1.5219                 1.4902                 1.6937
 Frc consts  --      1.5500                 1.5732                 1.8751
 IR Inten    --     38.9432                 6.8611                41.5046

                     40                     41                     42
                      A                      A                      A
 Frequencies --   1379.8728              1396.6646              1406.6308
 Red. masses --      1.3079                 1.3795                 1.2725
 Frc consts  --      1.4673                 1.5855                 1.4834
 IR Inten    --     12.4974                11.6554                 5.5731

                     43                     44                     45
                      A                      A                      A
 Frequencies --   1410.9006              1430.6798              1438.2830
 Red. masses --      1.3083                 1.3148                 1.2646
 Frc consts  --      1.5344                 1.5856                 1.5414
 IR Inten    --      9.0536                 5.9483                11.8853

                     46                     47                     48
                      A                      A                      A
 Frequencies --   1444.1589              1500.3682              1517.4612
 Red. masses --      1.2494                 1.0824                 1.0543
 Frc consts  --      1.5353                 1.4357                 1.4304
 IR Inten    --     13.9144                 2.7927                 1.0296

                     49                     50                     51
                      A                      A                      A
 Frequencies --   1519.4664              1523.2654              1533.9343
 Red. masses --      1.0893                 1.0472                 1.0563
 Frc consts  --      1.4817                 1.4317                 1.4644
 IR Inten    --      4.1072                 3.0758                 5.4634

                     52                     53                     54
                      A                      A                      A
 Frequencies --   1545.3095              2353.2494              3054.6096
 Red. masses --      1.0544                12.7041                 1.0717
 Frc consts  --      1.4835                41.4505                 5.8916
 IR Inten    --      3.4812                 1.6662                 9.3690

                     55                     56                     57
                      A                      A                      A
 Frequencies --   3059.5766              3060.6993              3065.1423
 Red. masses --      1.0593                 1.0688                 1.0520
 Frc consts  --      5.8422                 5.8992                 5.8232
 IR Inten    --      6.1587                25.8486                41.4348

                     58                     59                     60
                      A                      A                      A
 Frequencies --   3068.9067              3080.6724              3109.5650
 Red. masses --      1.0613                 1.0634                 1.1038
 Frc consts  --      5.8890                 5.9464                 6.2885
 IR Inten    --     33.4540                16.8526                15.5691

                     61                     62                     63
                      A                      A                      A
 Frequencies --   3125.7135              3128.5191              3131.2235
 Red. masses --      1.1037                 1.1002                 1.0992
 Frc consts  --      6.3531                 6.3447                 6.3498
 IR Inten    --      7.1440                33.1502                22.9331

                     64                     65                     66
                      A                      A                      A
 Frequencies --   3166.7125              3181.0613              3719.6453
 Red. masses --      1.1003                 1.0968                 1.0662
 Frc consts  --      6.5007                 6.5394                 8.6917
 IR Inten    --     13.1541                16.6418                18.1414

 - Thermochemistry -
 -------------------
 Temperature   298.150 Kelvin.  Pressure   1.00000 Atm.
 Atom     1 has atomic number  6 and mass  12.00000

 Molecular mass:   155.09463 amu.
 Principal axes and moments of inertia in atomic units:
                           1         2         3
     Eigenvalues --  1289.686251830.824861847.57704
           X            0.99683   0.03201   0.07282
           Y            0.00661   0.87895  -0.47687
           Z           -0.07927   0.47584   0.87595
 This molecule is an asymmetric top.
 Rotational symmetry number  1.
 Warning -- assumption of classical behavior for rotation
           may cause significant error
 Rotational temperatures (Kelvin)      0.06716     0.04731     0.04688
 Rotational constants (GHZ):           1.39936     0.98575     0.97682
 Zero-point vibrational energy     541515.9 (Joules/Mol)
                                  129.42542 (Kcal/Mol)
 Warning -- explicit consideration of  17 degrees of freedom as
           vibrations may cause significant error
 Vibrational temperatures:    159.43   171.55   251.94   257.61   302.97
          (Kelvin)            317.70   415.37   423.39   466.61   494.27
                              503.97   527.58   556.32   642.17   720.69
                              779.04   873.90   910.49   953.48  1107.91
                             1124.73  1192.04  1293.84  1337.90  1346.91
                             1399.04  1430.00  1491.54  1519.57  1585.84
                             1607.18  1667.71  1681.60  1704.47  1720.96
                             1818.24  1891.63  1925.92  1972.25  1985.33
                             2009.49  2023.83  2029.97  2058.43  2069.37
                             2077.82  2158.70  2183.29  2186.17  2191.64
                             2206.99  2223.36  3385.80  4394.90  4402.05
                             4403.66  4410.06  4415.47  4432.40  4473.97
                             4497.20  4501.24  4505.13  4556.19  4576.84
                             5351.74

 Zero-point correction=                           0.206253 (Hartree/Particle)
 Thermal correction to Energy=                    0.217297
 Thermal correction to Enthalpy=                  0.218241
 Thermal correction to Gibbs Free Energy=         0.170811
 Sum of electronic and zero-point Energies=           -517.679117
 Sum of electronic and thermal Energies=              -517.668072
 Sum of electronic and thermal Enthalpies=            -517.667128
 Sum of electronic and thermal Free Energies=         -517.714559

                     E (Thermal)             CV                S
                      KCal/Mol        Cal/Mol-Kelvin    Cal/Mol-Kelvin
 Total                  136.356             43.033             99.826
 Electronic               0.000              0.000              0.000
 Translational            0.889              2.981             41.026
 Rotational               0.889              2.981             29.857
 Vibrational            134.579             37.071             28.943
 Vibration     1          0.607              1.941              3.255
 Vibration     2          0.609              1.933              3.113
 Vibration     3          0.627              1.873              2.380
 Vibration     4          0.629              1.868              2.338
 Vibration     5          0.643              1.825              2.039
 Vibration     6          0.648              1.809              1.952
 Vibration     7          0.685              1.695              1.482
 Vibration     8          0.689              1.684              1.449
 Vibration     9          0.709              1.627              1.288
 Vibration    10          0.722              1.588              1.196
 Vibration    11          0.727              1.575              1.165
 Vibration    12          0.740              1.541              1.094
 Vibration    13          0.755              1.499              1.013
 Vibration    14          0.806              1.369              0.807
 Vibration    15          0.856              1.248              0.656
 Vibration    16          0.897              1.158              0.562
 Vibration    17          0.966              1.016              0.437

 Optimization completed.
    -- Stationary point found.
 Normal termination of Gaussian 16 at Tue Dec  8 20:04:52 2020.

 ----------------------------------------------------------------------
 # B3LYP/6-311++G(d,p) empiricaldispersion=gd3bj scf=xqc pop=npa geom=c
 heck
 ----------------------------------------------------------------------

 --------------------------------------
 CID_81852974_JID_1435_Energie_neutraal
 --------------------------------------
 Structure from the checkpoint file:  "JID_1435.chk"
 Charge =  0 Multiplicity = 1

 SCF Done:  E(RB3LYP) =  -518.041459291     A.U. after   14 cycles
 Normal termination of Gaussian 16 at Tue Dec  8 20:07:16 2020.

 ----------------------------------------------------------------------
 # B3LYP/6-311++G(d,p) empiricaldispersion=gd3bj scf=xqc pop=npa geom=c
 heck
 ----------------------------------------------------------------------

 ------------------------------------
 CID_81852974_JID_1435_Energie_kation
 ------------------------------------
 Structure from the checkpoint file:  "JID_1435.chk"
 Charge =  1 Multiplicity = 2

 SCF Done:  E(UB3LYP) =  -517.690342872     A.U. after   22 cycles
 Normal termination of Gaussian 16 at Tue Dec  8 20:12:33 2020.
 Gaussian 16:  ES64L-G16RevA.03 25-Dec-2016

 ----------------------------------------------------------------------
 # B3LYP/6-311++G(d,p) empiricaldispersion=gd3bj scf=xqc pop=npa geom=c
 heck
 ----------------------------------------------------------------------

 -----------------------------------
 CID_81852974_JID_1435_Energie_anion
 -----------------------------------
 Structure from the checkpoint file:  "JID_1435.chk"
 Charge = -1 Multiplicity = 2

                         Standard orientation:
 ---------------------------------------------------------------------
 Center     Atomic      Atomic             Coordinates (Angstroms)
 Number     Number       Type             X           Y           Z
 ---------------------------------------------------------------------
      1          6           0        1.469572   -1.561968    1.030577
      2          6           0        1.104792   -1.259652   -0.427362
      3          6           0       -0.401288   -1.318283   -0.735058
      4          6           0       -1.167411   -0.045953   -0.349140
      5          6           0       -0.422361    1.176199   -0.917121
      6          6           0        1.086577    1.196364   -0.608527
      7          8           0        1.694304   -0.056244   -0.928358
      8          6           0        1.446175    1.718842    0.787179
      9          6           0       -1.361860    0.067382    1.117013
     10          7           0       -1.578383    0.186232    2.251511
     11          8           0       -2.460331   -0.176193   -0.943337
     12          1           0        2.545271   -1.420616    1.170831
     13          1           0        1.226863   -2.606452    1.258157
     14          1           0        0.940545   -0.937691    1.751774
     15          1           0        1.580293   -2.033982   -1.039489
     16          1           0       -0.542664   -1.416247   -1.816322
     17          1           0       -0.861424   -2.189407   -0.259044
     18          1           0       -0.891390    2.104994   -0.570475
     19          1           0       -0.561747    1.112635   -2.001415
     20          1           0        1.545642    1.880985   -1.330602
     21          1           0        2.524776    1.621559    0.941436
     22          1           0        1.182947    2.780728    0.858861
     23          1           0        0.931532    1.197352    1.594978
     24          1           0       -2.968915    0.624425   -0.731071
 ---------------------------------------------------------------------

 SCF Done:  E(UB3LYP) =  -518.028976448     A.U. after   29 cycles

 The electronic state is 2-A.
 Alpha  occ. eigenvalues --  -19.03957 -19.02001 -14.21990 -10.17460 -10.12819
 Alpha  occ. eigenvalues --  -10.12459 -10.11474 -10.08111 -10.07629 -10.06102
 Alpha  occ. eigenvalues --  -10.05648  -0.94844  -0.93272  -0.81422  -0.71495
 Alpha  occ. eigenvalues --   -0.69855  -0.63270  -0.59381  -0.56266  -0.53206
 Alpha  occ. eigenvalues --   -0.47714  -0.43901  -0.40106  -0.38309  -0.36185
 Alpha  occ. eigenvalues --   -0.35122  -0.34426  -0.32941  -0.31827  -0.30361
 Alpha  occ. eigenvalues --   -0.29521  -0.28793  -0.28241  -0.26710  -0.26110
 Alpha  occ. eigenvalues --   -0.25422  -0.24725  -0.24010  -0.22099  -0.20362
 Alpha  occ. eigenvalues --   -0.19098  -0.16144   0.04610
 Alpha virt. eigenvalues --    0.06725   0.07571   0.08336   0.09780   0.10115
 Alpha virt. eigenvalues --    0.10357   0.10853   0.11195   0.12257   0.12655
 Alpha virt. eigenvalues --    0.12926   0.13329   0.13750   0.14598   0.16339

  Beta  occ. eigenvalues --  -19.03908 -19.01998 -14.21981 -10.17457 -10.12806
  Beta  occ. eigenvalues --  -10.12445 -10.11476 -10.08088 -10.07581 -10.06080
  Beta  occ. eigenvalues --  -10.05623  -0.94766  -0.93248  -0.81405  -0.71443
  Beta  occ. eigenvalues --   -0.69811  -0.63227  -0.59316  -0.56211  -0.53156
  Beta  occ. eigenvalues --   -0.47646  -0.43811  -0.40016  -0.38275  -0.36126
  Beta  occ. eigenvalues --   -0.35071  -0.34383  -0.32900  -0.31795  -0.30325
  Beta  occ. eigenvalues --   -0.29486  -0.28760  -0.28209  -0.26670  -0.26078
  Beta  occ. eigenvalues --   -0.25389  -0.24690  -0.23990  -0.22063  -0.20315
  Beta  occ. eigenvalues --   -0.19051  -0.16128
  Beta virt. eigenvalues --    0.07048   0.08104   0.08438   0.08814   0.10286
  Beta virt. eigenvalues --    0.10540   0.11043   0.11260   0.11725   0.12373
  Beta virt. eigenvalues --    0.13004   0.13226   0.13817   0.14278   0.14765

 Mulliken charges and spin densities:
               1          2
     1  C    0.366288  -0.876022
     2  C   -0.517590   0.532916
     3  C    0.391550  -0.897698
     4  C    0.025068   0.409891
     5  C   -0.006827  -0.540071
     6  C   -0.255936   0.244190
     7  O   -0.114673   0.017585
     8  C    0.814736  -1.327524
     9  C    1.224544  -1.501885
    10  N   -0.303913   0.026806
    11  O   -0.178759   0.028073
    12  H   -0.065116   0.221670
    13  H   -0.098883   0.230812
    14  H    0.129932   0.012398
    15  H   -0.345002   0.568101
    16  H   -0.116085   0.335561
    17  H   -0.058617   0.254521
    18  H   -0.818679   1.019273
    19  H   -0.252674   0.483237
    20  H   -0.514218   0.744117
    21  H   -0.019951   0.174166
    22  H   -0.125737   0.267422
    23  H    0.087441   0.051480
    24  H   -0.246898   0.520979
 Sum of Mulliken charges =  -1.00000   1.00000

 Dipole moment (field-independent basis, Debye):
    X=              1.9137    Y=             -2.7115    Z=              1.7427  Tot=              3.7485
 Quadrupole moment (field-independent basis, Debye-Ang):
   XX=           -113.1544   YY=           -112.0453   ZZ=           -106.6282
   XY=              4.9708   XZ=              2.4925   YZ=              2.7380

 Summary of Natural Population Analysis:

                                       Natural Population
                Natural  -----------------------------------------------
    Atom  No    Charge         Core      Valence    Rydberg      Total
 -----------------------------------------------------------------------
      C    1   -0.30095      0.99963     2.29531    0.00601     3.30095
      C    2    0.06574      0.99954     1.91907    0.01565     2.93426
      C    3   -0.19953      0.99957     2.18856    0.01140     3.19953
      C    4    0.08035      0.99942     1.90240    0.01783     2.91965
      C    5   -0.20739      0.99957     2.19411    0.01370     3.20739
      C    6    0.06464      0.99955     1.91959    0.01622     2.93536
      O    7   -0.30634      0.99988     3.29658    0.00988     4.30634
      C    8   -0.30020      0.99963     2.29468    0.00589     3.30020
      C    9    0.15277      0.99961     1.82799    0.01963     2.84723
      N   10   -0.17915      0.99979     2.66776    0.01159     3.67915
      O   11   -0.35761      0.99989     3.35089    0.00683     4.35761
      H   12    0.10397      0.00000     0.39504    0.00099     0.39603
      H   13    0.10056      0.00000     0.39833    0.00111     0.39944
      H   14    0.10230      0.00000     0.39650    0.00119     0.39770
      H   15    0.09338      0.00000     0.40492    0.00170     0.40662
      H   16    0.11303      0.00000     0.38538    0.00159     0.38697
      H   17    0.10939      0.00000     0.38921    0.00139     0.39061
      H   18    0.11230      0.00000     0.38229    0.00540     0.38770
      H   19    0.11316      0.00000     0.38426    0.00258     0.38684
      H   20    0.09510      0.00000     0.40275    0.00215     0.40490
      H   21    0.10280      0.00000     0.39619    0.00101     0.39720
      H   22    0.10340      0.00000     0.39535    0.00126     0.39660
      H   23    0.10105      0.00000     0.39764    0.00131     0.39895
      H   24    0.23721      0.00000     0.25524    0.00754     0.26279
 =======================================================================
   * Total *    0.00000     10.99608    30.84007    0.16385    42.00000

 Normal termination of Gaussian 16 at Tue Dec  8 20:19:45 2020.
