 Gaussian 16, Revision A.03,

 -----------------------------------------------------------
 # opt freq B3LYP/6-31G(d) empiricaldispersion=gd3bj scf=xqc
 -----------------------------------------------------------

 ------------------------------
 CID_81889780_JID_9025_neutraal
 ------------------------------
 Symbolic Z-matrix:
 Charge =  0 Multiplicity = 1

 SCF Done:  E(RB3LYP) =  -828.821537966     A.U. after   15 cycles
 SCF Done:  E(RB3LYP) =  -828.826896186     A.U. after   13 cycles
 SCF Done:  E(RB3LYP) =  -828.827529647     A.U. after   13 cycles
 SCF Done:  E(RB3LYP) =  -828.828328220     A.U. after   11 cycles
 SCF Done:  E(RB3LYP) =  -828.827904301     A.U. after   12 cycles
 SCF Done:  E(RB3LYP) =  -828.829061068     A.U. after   13 cycles
 SCF Done:  E(RB3LYP) =  -828.829296538     A.U. after   12 cycles
 SCF Done:  E(RB3LYP) =  -828.829421372     A.U. after   12 cycles
 SCF Done:  E(RB3LYP) =  -828.829477334     A.U. after   12 cycles
 SCF Done:  E(RB3LYP) =  -828.829558367     A.U. after   12 cycles
 SCF Done:  E(RB3LYP) =  -828.836388524     A.U. after    9 cycles
 SCF Done:  E(RB3LYP) =  -828.836388941     A.U. after    9 cycles
 SCF Done:  E(RB3LYP) =  -828.836389266     A.U. after    9 cycles
 SCF Done:  E(RB3LYP) =  -828.836389440     A.U. after    8 cycles
 SCF Done:  E(RB3LYP) =  -828.836389458     A.U. after    7 cycles
 Optimization completed.
    -- Stationary point found.
 Normal termination of Gaussian 16 at Sun Dec 13 20:57:04 2020.

 --------------------------------------------------------------------
 #N Geom=AllCheck Guess=TCheck SCRF=Check GenChk RB3LYP/6-31G(d) Freq
 --------------------------------------------------------------------

 Structure from the checkpoint file:  "JID_9025.chk"
 ------------------------------
 CID_81889780_JID_9025_neutraal
 ------------------------------
 Charge =  0 Multiplicity = 1

 SCF Done:  E(RB3LYP) =  -828.836389458     A.U. after    1 cycles

  Exact polarizability: 215.863  -5.960 193.035  -3.297   2.912 123.433
 Approx polarizability: 304.209 -17.186 291.915  -6.204   9.532 182.498

                      1                      2                      3
                      A                      A                      A
 Frequencies --     11.2655                34.1537                40.2055
 Red. masses --      5.3367                 3.3469                 3.5500
 Frc consts  --      0.0004                 0.0023                 0.0034
 IR Inten    --      0.4042                 0.1632                 0.0648

                      4                      5                      6
                      A                      A                      A
 Frequencies --     56.1048                69.4519                93.3140
 Red. masses --      2.8495                 4.0111                 3.4124
 Frc consts  --      0.0053                 0.0114                 0.0175
 IR Inten    --      0.0460                 0.4484                 0.2088

                      7                      8                      9
                      A                      A                      A
 Frequencies --    118.5505               156.0302               168.2831
 Red. masses --      4.1406                 3.4559                 1.9744
 Frc consts  --      0.0343                 0.0496                 0.0329
 IR Inten    --      2.5466                 2.4598                 0.4126

                     10                     11                     12
                      A                      A                      A
 Frequencies --    198.6018               212.2081               219.4652
 Red. masses --      1.2464                 3.4027                 2.0879
 Frc consts  --      0.0290                 0.0903                 0.0592
 IR Inten    --      0.0293                 0.1107                 1.1472

                     13                     14                     15
                      A                      A                      A
 Frequencies --    229.5743               238.2836               256.8507
 Red. masses --      2.8858                 1.8832                 3.5261
 Frc consts  --      0.0896                 0.0630                 0.1371
 IR Inten    --      0.4694                 0.3727                 0.6788

                     16                     17                     18
                      A                      A                      A
 Frequencies --    258.5558               298.2239               358.5411
 Red. masses --      3.6479                 1.9568                 4.3196
 Frc consts  --      0.1437                 0.1025                 0.3272
 IR Inten    --      0.9220                 1.5574                 3.9395

                     19                     20                     21
                      A                      A                      A
 Frequencies --    372.2346               384.3859               399.2292
 Red. masses --      1.8830                 2.5904                 1.9969
 Frc consts  --      0.1537                 0.2255                 0.1875
 IR Inten    --      0.0002                 0.8053                 0.6090

                     22                     23                     24
                      A                      A                      A
 Frequencies --    447.2104               458.1975               462.2355
 Red. masses --      2.8218                 4.4309                 3.6504
 Frc consts  --      0.3325                 0.5481                 0.4595
 IR Inten    --      0.6618                 1.6089                 0.1742

                     25                     26                     27
                      A                      A                      A
 Frequencies --    465.0282               536.9262               566.3531
 Red. masses --      3.1947                 4.9853                 3.6691
 Frc consts  --      0.4070                 0.8468                 0.6934
 IR Inten    --      0.5178                 0.6064                 2.4190

                     28                     29                     30
                      A                      A                      A
 Frequencies --    602.6201               622.4297               678.5946
 Red. masses --      3.2773                 5.0970                 3.7024
 Frc consts  --      0.7012                 1.1635                 1.0045
 IR Inten    --     14.3262                 6.7997                 7.3091

                     31                     32                     33
                      A                      A                      A
 Frequencies --    713.6997               725.6707               760.1837
 Red. masses --      3.0317                 3.5816                 4.4309
 Frc consts  --      0.9099                 1.1112                 1.5086
 IR Inten    --      4.6592                24.8883                 9.1605

                     34                     35                     36
                      A                      A                      A
 Frequencies --    770.2967               784.4817               800.4791
 Red. masses --      2.8221                 1.4106                 1.4894
 Frc consts  --      0.9866                 0.5115                 0.5623
 IR Inten    --      0.2493                 0.3359                 0.2782

                     37                     38                     39
                      A                      A                      A
 Frequencies --    857.0630               892.1100               900.5317
 Red. masses --      2.5615                 1.7595                 2.4743
 Frc consts  --      1.1086                 0.8251                 1.1822
 IR Inten    --      9.7611                12.9757                 1.3451

                     40                     41                     42
                      A                      A                      A
 Frequencies --    905.6196               921.5256               927.3921
 Red. masses --      1.9823                 2.7925                 1.3751
 Frc consts  --      0.9579                 1.3972                 0.6968
 IR Inten    --      3.8053                 4.2434                 3.5753

                     43                     44                     45
                      A                      A                      A
 Frequencies --    949.1861               962.1776               965.2887
 Red. masses --      1.2609                 1.4447                 2.0586
 Frc consts  --      0.6693                 0.7880                 1.1302
 IR Inten    --      4.2299                 0.3653                12.0666

                     46                     47                     48
                      A                      A                      A
 Frequencies --    970.7147               997.8149               999.4657
 Red. masses --      1.4592                 2.3288                 1.7513
 Frc consts  --      0.8101                 1.3661                 1.0307
 IR Inten    --      0.3644                54.8631                 2.5283

                     49                     50                     51
                      A                      A                      A
 Frequencies --   1013.7413              1031.3358              1042.3029
 Red. masses --      1.6051                 2.2568                 4.7806
 Frc consts  --      0.9718                 1.4143                 3.0600
 IR Inten    --      2.1562                29.9791                 6.7922

                     52                     53                     54
                      A                      A                      A
 Frequencies --   1073.7715              1087.2894              1096.3965
 Red. masses --      1.6488                 2.6643                 2.8129
 Frc consts  --      1.1201                 1.8558                 1.9922
 IR Inten    --     11.0185                 0.0681                61.4289

                     55                     56                     57
                      A                      A                      A
 Frequencies --   1108.0232              1118.0435              1143.8720
 Red. masses --      2.3513                 1.1962                 2.0704
 Frc consts  --      1.7008                 0.8810                 1.5961
 IR Inten    --      1.4497                 0.0031                13.3814

                     58                     59                     60
                      A                      A                      A
 Frequencies --   1170.6543              1187.3927              1206.1957
 Red. masses --      2.3089                 1.7547                 1.2595
 Frc consts  --      1.8643                 1.4576                 1.0796
 IR Inten    --      6.2013                 4.2818                 0.9727

                     61                     62                     63
                      A                      A                      A
 Frequencies --   1209.7058              1217.1546              1240.0743
 Red. masses --      2.0385                 1.6332                 2.1605
 Frc consts  --      1.7576                 1.4256                 1.9575
 IR Inten    --     41.5075                 2.6173                48.7699

                     64                     65                     66
                      A                      A                      A
 Frequencies --   1282.7437              1288.5405              1296.5755
 Red. masses --      1.4444                 1.1907                 2.1078
 Frc consts  --      1.4003                 1.1648                 2.0877
 IR Inten    --     54.6142                 3.3875                61.2293

                     67                     68                     69
                      A                      A                      A
 Frequencies --   1312.9872              1324.6337              1335.8785
 Red. masses --      1.9341                 1.2122                 1.6256
 Frc consts  --      1.9645                 1.2531                 1.7092
 IR Inten    --     10.6154                21.8288               150.5784

                     70                     71                     72
                      A                      A                      A
 Frequencies --   1348.2818              1351.7331              1361.7515
 Red. masses --      2.1415                 1.2740                 1.4933
 Frc consts  --      2.2936                 1.3715                 1.6315
 IR Inten    --    224.4954                 0.3759                18.6465

                     73                     74                     75
                      A                      A                      A
 Frequencies --   1367.7592              1386.6727              1392.0050
 Red. masses --      1.6069                 1.5024                 1.3371
 Frc consts  --      1.7712                 1.7021                 1.5265
 IR Inten    --      0.0142                 2.1991                 0.2463

                     76                     77                     78
                      A                      A                      A
 Frequencies --   1401.1824              1401.5753              1405.1578
 Red. masses --      1.3880                 1.3010                 1.3944
 Frc consts  --      1.6056                 1.5058                 1.6221
 IR Inten    --      2.4149                 0.2167                 4.6535

                     79                     80                     81
                      A                      A                      A
 Frequencies --   1419.3821              1434.2628              1443.3548
 Red. masses --      1.4378                 1.3819                 1.2773
 Frc consts  --      1.7066                 1.6749                 1.5677
 IR Inten    --      0.6904                 5.1722                 8.0774

                     82                     83                     84
                      A                      A                      A
 Frequencies --   1447.9371              1478.2157              1499.4974
 Red. masses --      1.2835                 2.8859                 2.9878
 Frc consts  --      1.5854                 3.7154                 3.9582
 IR Inten    --     22.1051                46.6717                48.9891

                     85                     86                     87
                      A                      A                      A
 Frequencies --   1509.7095              1510.9687              1514.9377
 Red. masses --      1.0933                 1.0860                 1.0687
 Frc consts  --      1.4682                 1.4608                 1.4452
 IR Inten    --      0.8334                 1.3079                 2.8689

                     88                     89                     90
                      A                      A                      A
 Frequencies --   1520.5560              1526.3341              1533.0627
 Red. masses --      1.0788                 1.0504                 1.0755
 Frc consts  --      1.4696                 1.4418                 1.4893
 IR Inten    --      4.0241                 6.0455                 3.8632

                     91                     92                     93
                      A                      A                      A
 Frequencies --   1538.8355              1539.6083              1539.7966
 Red. masses --      1.0875                 1.0649                 1.0605
 Frc consts  --      1.5172                 1.4872                 1.4814
 IR Inten    --      4.8400                 0.2235                 5.4756

                     94                     95                     96
                      A                      A                      A
 Frequencies --   1546.8194              1616.3157              1655.2594
 Red. masses --      1.1115                 5.1289                 5.7956
 Frc consts  --      1.5669                 7.8946                 9.3558
 IR Inten    --      8.3442               108.1697                18.8765

                     97                     98                     99
                      A                      A                      A
 Frequencies --   1762.2444              3016.3358              3022.4792
 Red. masses --     11.3682                 1.0561                 1.0754
 Frc consts  --     20.8005                 5.6611                 5.7884
 IR Inten    --    166.4114                27.6202                 6.5983

                    100                    101                    102
                      A                      A                      A
 Frequencies --   3030.1607              3040.9396              3047.2939
 Red. masses --      1.0620                 1.0678                 1.0706
 Frc consts  --      5.7454                 5.8176                 5.8575
 IR Inten    --     21.5612                83.1881                17.0607

                    103                    104                    105
                      A                      A                      A
 Frequencies --   3048.3401              3049.0682              3053.3225
 Red. masses --      1.0720                 1.0524                 1.0388
 Frc consts  --      5.8688                 5.7643                 5.7057
 IR Inten    --      9.1760                16.8360                19.2546

                    106                    107                    108
                      A                      A                      A
 Frequencies --   3060.8378              3062.3839              3063.1512
 Red. masses --      1.0684                 1.0706                 1.0963
 Frc consts  --      5.8976                 5.9157                 6.0606
 IR Inten    --     20.6495                 7.9634                56.9786

                    109                    110                    111
                      A                      A                      A
 Frequencies --   3071.3177              3073.7259              3088.8908
 Red. masses --      1.0981                 1.0978                 1.1018
 Frc consts  --      6.1030                 6.1111                 6.1939
 IR Inten    --     61.6363                15.6568                20.9362

                    112                    113                    114
                      A                      A                      A
 Frequencies --   3108.2134              3109.4501              3111.5276
 Red. masses --      1.0994                 1.0974                 1.1023
 Frc consts  --      6.2578                 6.2516                 6.2880
 IR Inten    --     65.4254                 2.8876                29.8940

                    115                    116                    117
                      A                      A                      A
 Frequencies --   3119.2108              3121.1013              3138.8819
 Red. masses --      1.1010                 1.0971                 1.1022
 Frc consts  --      6.3117                 6.2968                 6.3982
 IR Inten    --     41.0930                85.2537                34.6493

                    118                    119                    120
                      A                      A                      A
 Frequencies --   3203.6767              3222.8926              3258.0090
 Red. masses --      1.0893                 1.0910                 1.0893
 Frc consts  --      6.5870                 6.6767                 6.8125
 IR Inten    --     25.2414                 1.4545                 2.7035

 - Thermochemistry -
 -------------------
 Temperature   298.150 Kelvin.  Pressure   1.00000 Atm.
 Atom     1 has atomic number  6 and mass  12.00000

 Molecular mass:   261.17288 amu.
 Principal axes and moments of inertia in atomic units:
                           1         2         3
     Eigenvalues --  4036.057367559.62827**********
           X            0.99999  -0.00444   0.00271
           Y            0.00445   0.99998  -0.00441
           Z           -0.00269   0.00442   0.99999
 This molecule is an asymmetric top.
 Rotational symmetry number  1.
 Warning -- assumption of classical behavior for rotation
           may cause significant error
 Rotational temperatures (Kelvin)      0.02146     0.01146     0.00811
 Rotational constants (GHZ):           0.44715     0.23873     0.16889
 Zero-point vibrational energy     970043.2 (Joules/Mol)
                                  231.84588 (Kcal/Mol)
 Warning -- explicit consideration of  28 degrees of freedom as
           vibrations may cause significant error
 Vibrational temperatures:     16.21    49.14    57.85    80.72    99.93
          (Kelvin)            134.26   170.57   224.49   242.12   285.74
                              305.32   315.76   330.31   342.84   369.55
                              372.00   429.08   515.86   535.56   553.05
                              574.40   643.44   659.24   665.05   669.07
                              772.52   814.86   867.04   895.54   976.35
                             1026.85  1044.08  1093.73  1108.29  1128.69
                             1151.71  1233.12  1283.55  1295.66  1302.98
                             1325.87  1334.31  1365.67  1384.36  1388.84
                             1396.64  1435.63  1438.01  1458.55  1483.86
                             1499.64  1544.92  1564.37  1577.47  1594.20
                             1608.62  1645.78  1684.31  1708.39  1735.45
                             1740.50  1751.21  1784.19  1845.58  1853.92
                             1865.48  1889.10  1905.85  1922.03  1939.88
                             1944.84  1959.26  1967.90  1995.11  2002.78
                             2015.99  2016.55  2021.71  2042.17  2063.58
                             2076.67  2083.26  2126.82  2157.44  2172.14
                             2173.95  2179.66  2187.74  2196.05  2205.74
                             2214.04  2215.15  2215.42  2225.53  2325.52
                             2381.55  2535.48  4339.83  4348.67  4359.73
                             4375.23  4384.38  4385.88  4386.93  4393.05
                             4403.86  4406.09  4407.19  4418.94  4422.41
                             4444.22  4472.03  4473.81  4476.79  4487.85
                             4490.57  4516.15  4609.38  4637.02  4687.55

 Zero-point correction=                           0.369470 (Hartree/Particle)
 Thermal correction to Energy=                    0.388130
 Thermal correction to Enthalpy=                  0.389074
 Thermal correction to Gibbs Free Energy=         0.320492
 Sum of electronic and zero-point Energies=           -828.466920
 Sum of electronic and thermal Energies=              -828.448259
 Sum of electronic and thermal Enthalpies=            -828.447315
 Sum of electronic and thermal Free Energies=         -828.515897

                     E (Thermal)             CV                S
                      KCal/Mol        Cal/Mol-Kelvin    Cal/Mol-Kelvin
 Total                  243.555             71.248            144.343
 Electronic               0.000              0.000              0.000
 Translational            0.889              2.981             42.580
 Rotational               0.889              2.981             34.144
 Vibrational            241.778             65.286             67.620
 Vibration     1          0.593              1.987              7.774
 Vibration     2          0.594              1.983              5.572
 Vibration     3          0.594              1.981              5.249
 Vibration     4          0.596              1.975              4.590
 Vibration     5          0.598              1.969              4.169
 Vibration     6          0.602              1.954              3.589
 Vibration     7          0.609              1.934              3.124
 Vibration     8          0.620              1.896              2.597
 Vibration     9          0.625              1.882              2.455
 Vibration    10          0.637              1.842              2.146
 Vibration    11          0.643              1.822              2.025
 Vibration    12          0.647              1.811              1.963
 Vibration    13          0.652              1.796              1.882
 Vibration    14          0.656              1.782              1.816
 Vibration    15          0.666              1.751              1.683
 Vibration    16          0.667              1.748              1.672
 Vibration    17          0.691              1.677              1.427
 Vibration    18          0.733              1.558              1.128
 Vibration    19          0.744              1.529              1.071
 Vibration    20          0.753              1.504              1.022
 Vibration    21          0.765              1.472              0.965
 Vibration    22          0.806              1.367              0.804
 Vibration    23          0.816              1.343              0.771
 Vibration    24          0.820              1.334              0.760
 Vibration    25          0.822              1.328              0.752
 Vibration    26          0.892              1.168              0.572
 Vibration    27          0.922              1.104              0.511
 Vibration    28          0.961              1.026              0.445

 Optimization completed.
    -- Stationary point found.
 Normal termination of Gaussian 16 at Sun Dec 13 21:18:35 2020.

 ----------------------------------------------------------------------
 # B3LYP/6-311++G(d,p) empiricaldispersion=gd3bj scf=xqc pop=npa geom=c
 heck
 ----------------------------------------------------------------------

 --------------------------------------
 CID_81889780_JID_9025_Energie_neutraal
 --------------------------------------
 Structure from the checkpoint file:  "JID_9025.chk"
 Charge =  0 Multiplicity = 1

 SCF Done:  E(RB3LYP) =  -829.059331413     A.U. after   15 cycles
 Normal termination of Gaussian 16 at Sun Dec 13 21:28:40 2020.

 ----------------------------------------------------------------------
 # B3LYP/6-311++G(d,p) empiricaldispersion=gd3bj scf=xqc pop=npa geom=c
 heck
 ----------------------------------------------------------------------

 ------------------------------------
 CID_81889780_JID_9025_Energie_kation
 ------------------------------------
 Structure from the checkpoint file:  "JID_9025.chk"
 Charge =  1 Multiplicity = 2

 SCF Done:  E(UB3LYP) =  -828.749159129     A.U. after   29 cycles
 Normal termination of Gaussian 16 at Sun Dec 13 21:57:35 2020.
 Gaussian 16:  ES64L-G16RevA.03 25-Dec-2016

 ----------------------------------------------------------------------
 # B3LYP/6-311++G(d,p) empiricaldispersion=gd3bj scf=xqc pop=npa geom=c
 heck
 ----------------------------------------------------------------------

 -----------------------------------
 CID_81889780_JID_9025_Energie_anion
 -----------------------------------
 Structure from the checkpoint file:  "JID_9025.chk"
 Charge = -1 Multiplicity = 2

                         Standard orientation:
 ---------------------------------------------------------------------
 Center     Atomic      Atomic             Coordinates (Angstroms)
 Number     Number       Type             X           Y           Z
 ---------------------------------------------------------------------
      1          6           0       -4.088905    2.802511   -0.829068
      2          6           0       -4.510029    1.971977    0.385336
      3          6           0       -4.061523    0.521537    0.298440
      4          8           0       -2.631571    0.510388    0.271068
      5          6           0       -1.995786   -0.683631    0.142705
      6          6           0       -2.623962   -1.932417    0.069543
      7          7           0       -1.943118   -3.081224   -0.055258
      8          6           0       -0.614841   -3.025607   -0.110138
      9          6           0        0.120423   -1.825565   -0.045362
     10          6           0       -0.599441   -0.638773    0.083410
     11          6           0        1.618885   -1.923362   -0.120913
     12          8           0        2.135048   -3.028247   -0.216999
     13          6           0        2.514867   -0.687661   -0.083194
     14          6           0        2.321942    0.255093   -1.291831
     15          6           0        3.339955    1.403384   -1.245428
     16          6           0        3.290151    2.191188    0.078384
     17          6           0        3.476989    1.225617    1.265186
     18          6           0        2.461490    0.074207    1.259924
     19          6           0        2.012637    3.033048    0.207556
     20          1           0       -4.517469    2.394026   -1.752337
     21          1           0       -3.000359    2.806009   -0.936994
     22          1           0       -4.426823    3.839407   -0.732012
     23          1           0       -4.100605    2.408859    1.304371
     24          1           0       -5.602478    1.976678    0.490816
     25          1           0       -4.417754   -0.055339    1.162951
     26          1           0       -4.450072    0.047355   -0.614420
     27          1           0       -3.705228   -2.022553    0.112542
     28          1           0       -0.080054   -3.964454   -0.210660
     29          1           0       -0.126212    0.331801    0.141214
     30          1           0        3.524081   -1.109945   -0.167825
     31          1           0        2.446527   -0.316234   -2.219476
     32          1           0        1.306066    0.660522   -1.317556
     33          1           0        3.173848    2.080692   -2.092734
     34          1           0        4.348357    0.985137   -1.369803
     35          1           0        4.138369    2.889451    0.081565
     36          1           0        3.408801    1.775881    2.212190
     37          1           0        4.489712    0.801849    1.219549
     38          1           0        1.457576    0.464051    1.452899
     39          1           0        2.682010   -0.621092    2.078657
     40          1           0        2.019978    3.612758    1.137807
     41          1           0        1.923774    3.737465   -0.627558
     42          1           0        1.104845    2.419852    0.213762
 ---------------------------------------------------------------------

 SCF Done:  E(UB3LYP) =  -829.073918225     A.U. after   33 cycles
 SCF Done:  E(UB3LYP) =  -829.073918225     a.u. after    1 cycles

 The electronic state is 2-A.
 Alpha  occ. eigenvalues --  -19.03370 -18.91901 -14.15513 -10.12560 -10.09202
 Alpha  occ. eigenvalues --  -10.08704 -10.07782 -10.07684 -10.06698 -10.06617
 Alpha  occ. eigenvalues --  -10.06416 -10.06371 -10.05044 -10.04992 -10.04251
 Alpha  occ. eigenvalues --  -10.04109 -10.04044 -10.02042 -10.01615  -0.95079
 Alpha  occ. eigenvalues --   -0.86249  -0.78592  -0.73339  -0.70500  -0.66236
 Alpha  occ. eigenvalues --   -0.64747  -0.63714  -0.61443  -0.58704  -0.58421
 Alpha  occ. eigenvalues --   -0.52130  -0.50458  -0.50355  -0.48464  -0.47321
 Alpha  occ. eigenvalues --   -0.43211  -0.42932  -0.38970  -0.38566  -0.37247
 Alpha  occ. eigenvalues --   -0.36351  -0.36079  -0.35170  -0.33838  -0.33584
 Alpha  occ. eigenvalues --   -0.32142  -0.30824  -0.30607  -0.30363  -0.28939
 Alpha  occ. eigenvalues --   -0.27801  -0.27612  -0.27331  -0.26885  -0.26496
 Alpha  occ. eigenvalues --   -0.25964  -0.25236  -0.24944  -0.23957  -0.23878
 Alpha  occ. eigenvalues --   -0.23016  -0.22192  -0.21923  -0.20654  -0.20245
 Alpha  occ. eigenvalues --   -0.19607  -0.18669  -0.13217  -0.11298  -0.09640
 Alpha  occ. eigenvalues --   -0.07848   0.04308
 Alpha virt. eigenvalues --    0.05962   0.06599   0.07890   0.08520   0.08893
 Alpha virt. eigenvalues --    0.09106   0.09778   0.10523   0.11100   0.11331
 Alpha virt. eigenvalues --    0.11541   0.11833   0.12341   0.12583   0.12881

  Beta  occ. eigenvalues --  -19.03378 -18.91330 -14.15498 -10.12557 -10.09302
  Beta  occ. eigenvalues --  -10.08702 -10.07782 -10.07678 -10.06697 -10.06411
  Beta  occ. eigenvalues --  -10.06365 -10.06308 -10.05024 -10.04972 -10.04277
  Beta  occ. eigenvalues --  -10.04002 -10.03781 -10.01728 -10.01461  -0.95099
  Beta  occ. eigenvalues --   -0.85229  -0.78348  -0.73309  -0.70477  -0.66023
  Beta  occ. eigenvalues --   -0.64452  -0.63683  -0.61143  -0.58491  -0.58369
  Beta  occ. eigenvalues --   -0.51842  -0.50420  -0.50174  -0.48051  -0.47104
  Beta  occ. eigenvalues --   -0.43187  -0.42689  -0.38865  -0.38543  -0.37087
  Beta  occ. eigenvalues --   -0.36203  -0.35870  -0.35155  -0.33777  -0.33515
  Beta  occ. eigenvalues --   -0.31988  -0.30741  -0.30465  -0.30272  -0.28827
  Beta  occ. eigenvalues --   -0.27641  -0.27487  -0.27099  -0.26559  -0.26373
  Beta  occ. eigenvalues --   -0.25788  -0.24846  -0.24806  -0.23814  -0.23792
  Beta  occ. eigenvalues --   -0.22939  -0.21792  -0.21333  -0.20084  -0.20016
  Beta  occ. eigenvalues --   -0.19520  -0.17584  -0.11355  -0.11165  -0.08489
  Beta  occ. eigenvalues --   -0.07400
  Beta virt. eigenvalues --    0.05920   0.06539   0.07808   0.08412   0.08800
  Beta virt. eigenvalues --    0.09009   0.09707   0.10454   0.10878   0.11138
  Beta virt. eigenvalues --    0.11246   0.11471   0.12041   0.12284   0.12538

 Mulliken charges and spin densities:
               1          2
     1  C   -0.314529  -0.157398
     2  C   -0.529916   0.097073
     3  C    0.020757  -0.065974
     4  O   -0.062251   0.003401
     5  C    0.307919  -0.056623
     6  C   -0.721348   0.215494
     7  N   -0.049963  -0.002361
     8  C   -0.283618   0.057367
     9  C    0.250260   0.073658
    10  C   -0.064758   0.296124
    11  C   -0.919061   0.190922
    12  O   -0.382216   0.202426
    13  C    0.397682  -0.033352
    14  C   -0.307043   0.031386
    15  C   -0.460273  -0.056421
    16  C    0.307461   0.024528
    17  C   -0.499231  -0.002829
    18  C   -0.326746   0.019769
    19  C   -0.720456  -0.023894
    20  H    0.090495   0.021693
    21  H    0.150642   0.012127
    22  H    0.038091   0.087493
    23  H    0.112491   0.022930
    24  H    0.103661   0.027276
    25  H    0.115952   0.024297
    26  H    0.152785  -0.007982
    27  H    0.132029  -0.015450
    28  H    0.212692  -0.003916
    29  H    0.389035  -0.028762
    30  H    0.196740  -0.002827
    31  H    0.193059   0.004025
    32  H    0.095057   0.003427
    33  H    0.118166   0.027975
    34  H    0.123554  -0.001793
    35  H    0.182263   0.002926
    36  H    0.143306   0.001881
    37  H    0.121704  -0.000119
    38  H    0.095425   0.000243
    39  H    0.198930  -0.000731
    40  H    0.115832   0.003727
    41  H    0.099454   0.020345
    42  H    0.175971  -0.012082
 Sum of Mulliken charges =  -1.00000   1.00000

 Dipole moment (field-independent basis, Debye):
    X=             -0.7256    Y=              9.6945    Z=              0.6385  Tot=              9.7425
 Quadrupole moment (field-independent basis, Debye-Ang):
   XX=           -148.5607   YY=           -170.6410   ZZ=           -126.5218
   XY=              3.6950   XZ=              0.6156   YZ=             -0.5705

 Summary of Natural Population Analysis:

                                       Natural Population
                Natural  -----------------------------------------------
    Atom  No    Charge         Core      Valence    Rydberg      Total
 -----------------------------------------------------------------------
      C    1   -0.28816      0.99967     2.28368    0.00481     3.28816
      C    2   -0.19805      0.99964     2.19043    0.00798     3.19805
      C    3   -0.00898      0.99958     1.99863    0.01077     3.00898
      O    4   -0.28675      0.99985     3.27703    0.00988     4.28675
      C    5    0.11432      0.99938     1.87315    0.01315     2.88568
      C    6    0.03344      0.99955     1.95346    0.01355     2.96656
      N    7   -0.24292      0.99971     2.73026    0.01295     3.74292
      C    8    0.04293      0.99957     1.94309    0.01442     2.95707
      C    9   -0.05368      0.99947     2.04489    0.00931     3.05368
      C   10   -0.04184      0.99950     2.03528    0.00706     3.04184
      C   11    0.31191      0.99960     1.66726    0.02122     2.68809
      O   12   -0.24797      0.99988     3.24173    0.00636     4.24797
      C   13   -0.14952      0.99957     2.13506    0.01489     3.14952
      C   14   -0.18628      0.99961     2.17987    0.00680     3.18628
      C   15   -0.18488      0.99962     2.17815    0.00711     3.18488
      C   16   -0.10920      0.99961     2.10200    0.00759     3.10920
      C   17   -0.18508      0.99962     2.17811    0.00735     3.18508
      C   18   -0.18624      0.99961     2.17962    0.00700     3.18624
      C   19   -0.28754      0.99965     2.28246    0.00543     3.28754
      H   20    0.09380      0.00000     0.40487    0.00133     0.40620
      H   21    0.10677      0.00000     0.39164    0.00159     0.39323
      H   22    0.09354      0.00000     0.40534    0.00112     0.40646
      H   23    0.09713      0.00000     0.40124    0.00163     0.40287
      H   24    0.09249      0.00000     0.40607    0.00144     0.40751
      H   25    0.08328      0.00000     0.41424    0.00248     0.41672
      H   26    0.08101      0.00000     0.41708    0.00191     0.41899
      H   27    0.07722      0.00000     0.42103    0.00175     0.42278
      H   28    0.09544      0.00000     0.40321    0.00136     0.40456
      H   29    0.08930      0.00000     0.40805    0.00265     0.41070
      H   30    0.09873      0.00000     0.39949    0.00178     0.40127
      H   31    0.10012      0.00000     0.39892    0.00096     0.39988
      H   32    0.09805      0.00000     0.40003    0.00192     0.40195
      H   33    0.09216      0.00000     0.40635    0.00149     0.40784
      H   34    0.09287      0.00000     0.40601    0.00111     0.40713
      H   35    0.08798      0.00000     0.41022    0.00180     0.41202
      H   36    0.09227      0.00000     0.40662    0.00111     0.40773
      H   37    0.09287      0.00000     0.40598    0.00115     0.40713
      H   38    0.09813      0.00000     0.40071    0.00117     0.40187
      H   39    0.10020      0.00000     0.39880    0.00100     0.39980
      H   40    0.09488      0.00000     0.40431    0.00080     0.40512
      H   41    0.09508      0.00000     0.40381    0.00111     0.40492
      H   42    0.10119      0.00000     0.39750    0.00131     0.39881
 =======================================================================
   * Total *    0.00000     18.99270    51.78569    0.22161    71.00000

 Normal termination of Gaussian 16 at Sun Dec 13 22:30:50 2020.
