 Gaussian 16, Revision A.03,

 -----------------------------------------------------------
 # opt freq B3LYP/6-31G(d) empiricaldispersion=gd3bj scf=xqc
 -----------------------------------------------------------

 ------------------------------
 CID_77110255_JID_3313_neutraal
 ------------------------------
 Symbolic Z-matrix:
 Charge =  0 Multiplicity = 1

 SCF Done:  E(RB3LYP) =  -898.377863906     A.U. after   14 cycles
 SCF Done:  E(RB3LYP) =  -898.370686268     A.U. after   13 cycles
 SCF Done:  E(RB3LYP) =  -898.382318135     A.U. after   12 cycles
 SCF Done:  E(RB3LYP) =  -898.382806596     A.U. after   11 cycles
 SCF Done:  E(RB3LYP) =  -898.382847047     A.U. after   11 cycles
 SCF Done:  E(RB3LYP) =  -898.382877790     A.U. after   10 cycles
 SCF Done:  E(RB3LYP) =  -898.382885120     A.U. after    9 cycles
 SCF Done:  E(RB3LYP) =  -898.382887510     A.U. after    9 cycles
 SCF Done:  E(RB3LYP) =  -898.382888598     A.U. after    8 cycles
 SCF Done:  E(RB3LYP) =  -898.382888999     A.U. after    8 cycles
 SCF Done:  E(RB3LYP) =  -898.382889153     A.U. after    7 cycles
 SCF Done:  E(RB3LYP) =  -898.382889190     A.U. after    7 cycles
 Optimization completed.
    -- Stationary point found.
 Normal termination of Gaussian 16 at Wed Dec  9 22:56:23 2020.

 --------------------------------------------------------------------
 #N Geom=AllCheck Guess=TCheck SCRF=Check GenChk RB3LYP/6-31G(d) Freq
 --------------------------------------------------------------------

 Structure from the checkpoint file:  "JID_3313.chk"
 ------------------------------
 CID_77110255_JID_3313_neutraal
 ------------------------------
 Charge =  0 Multiplicity = 1

 SCF Done:  E(RB3LYP) =  -898.382889190     A.U. after    1 cycles

  Exact polarizability: 128.879   6.089 152.970 -16.921  -0.046 103.931
 Approx polarizability: 187.220  10.610 231.769 -43.603  -0.248 176.903

                      1                      2                      3
                      A                      A                      A
 Frequencies --     23.2280                41.6590                72.9859
 Red. masses --      5.2534                 2.9801                 3.6692
 Frc consts  --      0.0017                 0.0030                 0.0115
 IR Inten    --      0.9463                 1.3789                 0.5166

                      4                      5                      6
                      A                      A                      A
 Frequencies --    100.4477               114.3781               132.7367
 Red. masses --      4.6363                 4.1809                 2.6397
 Frc consts  --      0.0276                 0.0322                 0.0274
 IR Inten    --      1.3538                 0.1432                 1.5477

                      7                      8                      9
                      A                      A                      A
 Frequencies --    141.8899               196.1202               250.7367
 Red. masses --      2.5260                 3.0222                 3.1304
 Frc consts  --      0.0300                 0.0685                 0.1160
 IR Inten    --      3.5584                 1.2853                12.1087

                     10                     11                     12
                      A                      A                      A
 Frequencies --    273.2524               276.2235               314.1302
 Red. masses --      1.3129                 2.1368                 2.7228
 Frc consts  --      0.0578                 0.0961                 0.1583
 IR Inten    --      0.0876                 1.9028                15.5954

                     13                     14                     15
                      A                      A                      A
 Frequencies --    334.4404               406.1582               435.5604
 Red. masses --      1.2298                 2.4814                 2.7894
 Frc consts  --      0.0810                 0.2412                 0.3118
 IR Inten    --     66.1415                 3.8048                 0.7045

                     16                     17                     18
                      A                      A                      A
 Frequencies --    448.7554               467.2975               488.3771
 Red. masses --      2.8622                 4.1261                 2.1012
 Frc consts  --      0.3396                 0.5309                 0.2953
 IR Inten    --     14.9397                 2.9949                 6.6939

                     19                     20                     21
                      A                      A                      A
 Frequencies --    532.9861               573.1232               644.3690
 Red. masses --      2.8344                 4.6319                 4.9206
 Frc consts  --      0.4744                 0.8964                 1.2037
 IR Inten    --      3.2807                17.1290                 7.9552

                     22                     23                     24
                      A                      A                      A
 Frequencies --    690.3753               717.4140               785.4820
 Red. masses --      1.2594                 2.8794                 1.7020
 Frc consts  --      0.3537                 0.8732                 0.6187
 IR Inten    --     15.3324                27.8463                56.6987

                     25                     26                     27
                      A                      A                      A
 Frequencies --    810.4336               838.1294               857.2777
 Red. masses --      1.8003                 4.4966                 2.5226
 Frc consts  --      0.6967                 1.8611                 1.0923
 IR Inten    --     12.9189                19.4746                21.6902

                     28                     29                     30
                      A                      A                      A
 Frequencies --    865.8680               895.3434               898.7643
 Red. masses --      3.9798                 1.3797                 1.3192
 Frc consts  --      1.7580                 0.6516                 0.6279
 IR Inten    --     13.7892                33.2190                24.5265

                     31                     32                     33
                      A                      A                      A
 Frequencies --    918.1518               949.9140               970.2310
 Red. masses --      1.7576                 2.4237                 2.0690
 Frc consts  --      0.8730                 1.2885                 1.1475
 IR Inten    --     28.1351                 5.1165                 4.4298

                     34                     35                     36
                      A                      A                      A
 Frequencies --    994.4184              1014.6713              1028.4123
 Red. masses --      1.9484                 1.3180                 2.5727
 Frc consts  --      1.1352                 0.7995                 1.6031
 IR Inten    --      4.0212                27.2273                 9.9481

                     37                     38                     39
                      A                      A                      A
 Frequencies --   1070.2293              1099.5924              1119.1269
 Red. masses --      2.3574                 2.6046                 1.1172
 Frc consts  --      1.5909                 1.8554                 0.8244
 IR Inten    --     51.6491                11.9098                 3.1828

                     40                     41                     42
                      A                      A                      A
 Frequencies --   1138.3593              1163.2577              1173.1869
 Red. masses --      2.2121                 1.4820                 1.5426
 Frc consts  --      1.6889                 1.1816                 1.2509
 IR Inten    --     24.3828                 4.8109                 4.3797

                     43                     44                     45
                      A                      A                      A
 Frequencies --   1186.0358              1189.4181              1222.7370
 Red. masses --      1.5292                 1.3188                 1.5384
 Frc consts  --      1.2674                 1.0993                 1.3551
 IR Inten    --      7.0389                 3.5253                 5.9981

                     46                     47                     48
                      A                      A                      A
 Frequencies --   1272.6109              1295.4757              1335.5809
 Red. masses --      1.5495                 1.3577                 1.2745
 Frc consts  --      1.4786                 1.3425                 1.3395
 IR Inten    --     16.8238                 8.4645                 1.9105

                     49                     50                     51
                      A                      A                      A
 Frequencies --   1349.4675              1367.7529              1383.4429
 Red. masses --      1.3151                 1.5044                 1.6301
 Frc consts  --      1.4110                 1.6582                 1.8381
 IR Inten    --     14.2187                 7.9400                14.8618

                     52                     53                     54
                      A                      A                      A
 Frequencies --   1394.3962              1409.9939              1434.4441
 Red. masses --      1.2319                 1.2971                 2.3996
 Frc consts  --      1.4113                 1.5194                 2.9091
 IR Inten    --     17.8191                 8.6779                 2.8015

                     55                     56                     57
                      A                      A                      A
 Frequencies --   1442.1708              1470.6140              1477.7480
 Red. masses --      1.4309                 5.0892                 1.1479
 Frc consts  --      1.7535                 6.4848                 1.4769
 IR Inten    --     15.4108                17.0609                 3.3412

                     58                     59                     60
                      A                      A                      A
 Frequencies --   1490.9884              1500.6859              1513.6557
 Red. masses --      1.0879                 1.0994                 1.0670
 Frc consts  --      1.4249                 1.4588                 1.4403
 IR Inten    --      7.2585                 7.1939                 8.6986

                     61                     62                     63
                      A                      A                      A
 Frequencies --   1532.2161              1553.7544              1589.8725
 Red. masses --      1.0913                 1.0566                 5.3548
 Frc consts  --      1.5095                 1.5029                 7.9748
 IR Inten    --      0.8943                 7.9225                 0.7903

                     64                     65                     66
                      A                      A                      A
 Frequencies --   1693.3574              1757.1943              2962.9477
 Red. masses --      1.0917                 5.9675                 1.0711
 Frc consts  --      1.8443                10.8563                 5.5402
 IR Inten    --     12.9933                 2.4671                65.8864

                     67                     68                     69
                      A                      A                      A
 Frequencies --   2975.9722              3009.1058              3036.4249
 Red. masses --      1.0548                 1.0650                 1.0624
 Frc consts  --      5.5042                 5.6819                 5.7713
 IR Inten    --     56.2704                50.2473                45.8069

                     70                     71                     72
                      A                      A                      A
 Frequencies --   3040.8265              3060.5731              3066.7473
 Red. masses --      1.0894                 1.0775                 1.0975
 Frc consts  --      5.9352                 5.9466                 6.0815
 IR Inten    --     48.7430                61.5588                15.6938

                     73                     74                     75
                      A                      A                      A
 Frequencies --   3086.3932              3105.5976              3143.4506
 Red. masses --      1.1022                 1.1026                 1.0907
 Frc consts  --      6.1861                 6.2658                 6.3501
 IR Inten    --     23.4052                37.1570                 7.4470

                     76                     77                     78
                      A                      A                      A
 Frequencies --   3149.9721              3227.6937              3264.8164
 Red. masses --      1.0863                 1.0903                 1.0928
 Frc consts  --      6.3505                 6.6926                 6.8631
 IR Inten    --     30.4693                 1.7110                 0.9062

                     79                     80                     81
                      A                      A                      A
 Frequencies --   3266.8414              3463.0290              3553.8115
 Red. masses --      1.0978                 1.0495                 1.0926
 Frc consts  --      6.9028                 7.4154                 8.1304
 IR Inten    --      1.2444                21.3617                 4.6098

 - Thermochemistry -
 -------------------
 Temperature   298.150 Kelvin.  Pressure   1.00000 Atm.
 Atom     1 has atomic number  6 and mass  12.00000

 Molecular mass:   196.10342 amu.
 Principal axes and moments of inertia in atomic units:
                           1         2         3
     Eigenvalues --  2571.252472770.572804620.54385
           X            0.91495   0.40354   0.00517
           Y           -0.40347   0.91493  -0.01066
           Z           -0.00903   0.00766   0.99993
 This molecule is an asymmetric top.
 Rotational symmetry number  1.
 Warning -- assumption of classical behavior for rotation
           may cause significant error
 Rotational temperatures (Kelvin)      0.03369     0.03126     0.01875
 Rotational constants (GHZ):           0.70189     0.65140     0.39059
 Zero-point vibrational energy     655226.5 (Joules/Mol)
                                  156.60288 (Kcal/Mol)
 Warning -- explicit consideration of  20 degrees of freedom as
           vibrations may cause significant error
 Vibrational temperatures:     33.42    59.94   105.01   144.52   164.56
          (Kelvin)            190.98   204.15   282.17   360.75   393.15
                              397.42   451.96   481.19   584.37   626.67
                              645.66   672.34   702.67   766.85   824.60
                              927.10   993.30  1032.20  1130.13  1166.03
                             1205.88  1233.43  1245.79  1288.20  1293.12
                             1321.02  1366.71  1395.95  1430.75  1459.89
                             1479.66  1539.82  1582.07  1610.17  1637.85
                             1673.67  1687.95  1706.44  1711.31  1759.25
                             1831.00  1863.90  1921.60  1941.58  1967.89
                             1990.47  2006.23  2028.67  2063.85  2074.96
                             2115.89  2126.15  2145.20  2159.15  2177.81
                             2204.52  2235.51  2287.47  2436.36  2528.21
                             4263.02  4281.76  4329.43  4368.74  4375.07
                             4403.48  4412.37  4440.63  4468.26  4522.72
                             4532.11  4643.93  4697.34  4700.26  4982.53
                             5113.14

 Zero-point correction=                           0.249563 (Hartree/Particle)
 Thermal correction to Energy=                    0.263518
 Thermal correction to Enthalpy=                  0.264462
 Thermal correction to Gibbs Free Energy=         0.207553
 Sum of electronic and zero-point Energies=           -898.133327
 Sum of electronic and thermal Energies=              -898.119371
 Sum of electronic and thermal Enthalpies=            -898.118427
 Sum of electronic and thermal Free Energies=         -898.175336

                     E (Thermal)             CV                S
                      KCal/Mol        Cal/Mol-Kelvin    Cal/Mol-Kelvin
 Total                  165.360             52.008            119.775
 Electronic               0.000              0.000              0.000
 Translational            0.889              2.981             41.725
 Rotational               0.889              2.981             31.865
 Vibrational            163.583             46.047             46.184
 Vibration     1          0.593              1.985              6.337
 Vibration     2          0.594              1.981              5.179
 Vibration     3          0.599              1.967              4.071
 Vibration     4          0.604              1.949              3.446
 Vibration     5          0.607              1.938              3.193
 Vibration     6          0.613              1.921              2.906
 Vibration     7          0.615              1.911              2.778
 Vibration     8          0.636              1.845              2.169
 Vibration     9          0.663              1.762              1.725
 Vibration    10          0.676              1.723              1.576
 Vibration    11          0.678              1.717              1.557
 Vibration    12          0.702              1.647              1.340
 Vibration    13          0.716              1.607              1.239
 Vibration    14          0.771              1.457              0.940
 Vibration    15          0.796              1.393              0.841
 Vibration    16          0.808              1.364              0.800
 Vibration    17          0.825              1.323              0.745
 Vibration    18          0.844              1.276              0.688
 Vibration    19          0.888              1.177              0.581
 Vibration    20          0.929              1.089              0.498

                           ! Non-Optimized Parameters !
 Normal termination of Gaussian 16 at Wed Dec  9 23:05:32 2020.

 ----------------------------------------------------------------------
 # B3LYP/6-311++G(d,p) empiricaldispersion=gd3bj scf=xqc pop=npa geom=c
 heck
 ----------------------------------------------------------------------

 --------------------------------------
 CID_77110255_JID_3313_Energie_neutraal
 --------------------------------------
 Structure from the checkpoint file:  "JID_3313.chk"
 Charge =  0 Multiplicity = 1

 SCF Done:  E(RB3LYP) =  -898.555273062     A.U. after   15 cycles
 Normal termination of Gaussian 16 at Wed Dec  9 23:09:52 2020.

 ----------------------------------------------------------------------
 # B3LYP/6-311++G(d,p) empiricaldispersion=gd3bj scf=xqc pop=npa geom=c
 heck
 ----------------------------------------------------------------------

 ------------------------------------
 CID_77110255_JID_3313_Energie_kation
 ------------------------------------
 Structure from the checkpoint file:  "JID_3313.chk"
 Charge =  1 Multiplicity = 2

 SCF Done:  E(UB3LYP) =  -898.271977748     A.U. after   30 cycles
 Normal termination of Gaussian 16 at Wed Dec  9 23:22:11 2020.
 Gaussian 16:  ES64L-G16RevA.03 25-Dec-2016

 ----------------------------------------------------------------------
 # B3LYP/6-311++G(d,p) empiricaldispersion=gd3bj scf=xqc pop=npa geom=c
 heck
 ----------------------------------------------------------------------

 -----------------------------------
 CID_77110255_JID_3313_Energie_anion
 -----------------------------------
 Structure from the checkpoint file:  "JID_3313.chk"
 Charge = -1 Multiplicity = 2

                         Standard orientation:
 ---------------------------------------------------------------------
 Center     Atomic      Atomic             Coordinates (Angstroms)
 Number     Number       Type             X           Y           Z
 ---------------------------------------------------------------------
      1          6           0        0.557151    2.806046   -1.066771
      2          7           0        0.026166    2.514074    0.251172
      3          6           0       -1.391092    2.152153    0.263110
      4          6           0       -1.786210    0.878707   -0.444029
      5          6           0       -2.505184   -0.099036    0.108524
      6          6           0       -2.899385   -1.368333   -0.590176
      7          7           0       -2.330457   -2.521105    0.123755
      8          6           0        0.905952    1.700057    1.088033
      9          6           0        1.251527    0.295128    0.620564
     10          6           0        2.183652    0.012254   -0.345335
     11         16           0        2.356320   -1.692023   -0.626012
     12          6           0        1.164407   -2.045693    0.588389
     13          6           0        0.668842   -0.903537    1.151445
     14          1           0       -0.091045    3.538658   -1.561137
     15          1           0        0.650645    1.929561   -1.731233
     16          1           0        1.554447    3.251415   -0.963814
     17          1           0       -1.717637    2.102040    1.309695
     18          1           0       -1.927549    2.997358   -0.194338
     19          1           0       -1.464797    0.776654   -1.481170
     20          1           0       -2.812500   -0.025327    1.152876
     21          1           0       -3.992949   -1.477064   -0.568277
     22          1           0       -2.607675   -1.301635   -1.653435
     23          1           0       -2.642977   -3.385106   -0.317148
     24          1           0       -1.317112   -2.489363    0.023723
     25          1           0        1.838729    2.266622    1.206590
     26          1           0        0.444908    1.637199    2.080544
     27          1           0        2.798139    0.710957   -0.896780
     28          1           0        0.915841   -3.071592    0.824970
     29          1           0       -0.097528   -0.905265    1.918119
 ---------------------------------------------------------------------

 SCF Done:  E(UB3LYP) =  -898.538416203     A.U. after   33 cycles
 SCF Done:  E(UB3LYP) =  -898.538416203     a.u. after    1 cycles

 The electronic state is 2-A.
 Alpha  occ. eigenvalues --  -88.76539 -14.20108 -14.18079 -10.09555 -10.09435
 Alpha  occ. eigenvalues --  -10.08923 -10.08746 -10.08185 -10.08061 -10.06841
 Alpha  occ. eigenvalues --  -10.06740 -10.06222 -10.06136  -7.85155  -5.81438
 Alpha  occ. eigenvalues --   -5.81077  -5.80778  -0.82134  -0.77405  -0.76940
 Alpha  occ. eigenvalues --   -0.68346  -0.65071  -0.62041  -0.60775  -0.58583
 Alpha  occ. eigenvalues --   -0.54147  -0.48696  -0.46188  -0.45048  -0.43405
 Alpha  occ. eigenvalues --   -0.39956  -0.38521  -0.37427  -0.36716  -0.35930
 Alpha  occ. eigenvalues --   -0.32516  -0.31679  -0.30827  -0.29996  -0.28891
 Alpha  occ. eigenvalues --   -0.28139  -0.27705  -0.27063  -0.26282  -0.25743
 Alpha  occ. eigenvalues --   -0.25412  -0.24531  -0.23539  -0.16376  -0.14010
 Alpha  occ. eigenvalues --   -0.13488  -0.13150  -0.10875   0.04983
 Alpha virt. eigenvalues --    0.06256   0.07670   0.08075   0.08430   0.08749
 Alpha virt. eigenvalues --    0.09638   0.10193   0.10403   0.10700   0.11174
 Alpha virt. eigenvalues --    0.11541   0.12472   0.12873   0.13293   0.13605

  Beta  occ. eigenvalues --  -88.76518 -14.20102 -14.18022 -10.09547 -10.09418
  Beta  occ. eigenvalues --  -10.08912 -10.08690 -10.08156 -10.07919 -10.06835
  Beta  occ. eigenvalues --  -10.06733 -10.06195 -10.06109  -7.85136  -5.81423
  Beta  occ. eigenvalues --   -5.81068  -5.80713  -0.82110  -0.77312  -0.76839
  Beta  occ. eigenvalues --   -0.68275  -0.64992  -0.61902  -0.60704  -0.58492
  Beta  occ. eigenvalues --   -0.54071  -0.48621  -0.46027  -0.44985  -0.43307
  Beta  occ. eigenvalues --   -0.39900  -0.38463  -0.37373  -0.36653  -0.35887
  Beta  occ. eigenvalues --   -0.32449  -0.31637  -0.30767  -0.29924  -0.28824
  Beta  occ. eigenvalues --   -0.28028  -0.27626  -0.27019  -0.26122  -0.25697
  Beta  occ. eigenvalues --   -0.25357  -0.24485  -0.23445  -0.16170  -0.13884
  Beta  occ. eigenvalues --   -0.13330  -0.12678  -0.10826
  Beta virt. eigenvalues --    0.07165   0.07654   0.08372   0.08519   0.08628
  Beta virt. eigenvalues --    0.09147   0.10035   0.10385   0.10599   0.11209
  Beta virt. eigenvalues --    0.11269   0.11789   0.12536   0.13040   0.13376

 Mulliken charges and spin densities:
               1          2
     1  C    0.289001  -0.661631
     2  N   -0.022935   0.246978
     3  C   -0.160976  -0.666370
     4  C   -0.014308   0.289739
     5  C   -0.149468   0.189932
     6  C    0.052831  -0.666928
     7  N   -0.352454  -0.054807
     8  C    0.700511  -1.728950
     9  C   -0.993048   0.774757
    10  C    0.571443  -0.079325
    11  S   -0.325229   0.045904
    12  C   -0.565607   0.015196
    13  C    0.592005  -0.110870
    14  H   -0.183571   0.317678
    15  H    0.162435  -0.037648
    16  H   -0.463669   0.619082
    17  H    0.080064   0.076903
    18  H    0.052274   0.106585
    19  H    0.114443   0.010520
    20  H    0.124799   0.002816
    21  H   -0.057887   0.194575
    22  H   -0.000911   0.123176
    23  H   -0.469023   0.711745
    24  H    0.480715  -0.235260
    25  H   -0.273772   0.477042
    26  H    0.108633   0.029369
    27  H   -0.419611   0.679692
    28  H   -0.080095   0.338930
    29  H    0.203408  -0.008831
 Sum of Mulliken charges =  -1.00000   1.00000

 Dipole moment (field-independent basis, Debye):
    X=             -0.2282    Y=              0.9475    Z=              0.6525  Tot=              1.1729
 Quadrupole moment (field-independent basis, Debye-Ang):
   XX=           -142.4483   YY=           -159.3537   ZZ=           -107.2447
   XY=            -26.9976   XZ=             -0.8183   YZ=             -0.0572

 Summary of Natural Population Analysis:

                                       Natural Population
                Natural  -----------------------------------------------
    Atom  No    Charge         Core      Valence    Rydberg      Total
 -----------------------------------------------------------------------
      C    1   -0.17898      0.99963     2.17069    0.00866     3.17898
      N    2   -0.27436      0.99974     2.75871    0.01590     3.77436
      C    3   -0.09565      0.99959     2.08334    0.01272     3.09565
      C    4   -0.09671      0.99950     2.08857    0.00864     3.09671
      C    5   -0.08560      0.99951     2.07640    0.00969     3.08560
      C    6   -0.10358      0.99962     2.09112    0.01284     3.10358
      N    7   -0.42411      0.99976     2.91232    0.01203     3.92411
      C    8   -0.08729      0.99956     2.07409    0.01364     3.08729
      C    9   -0.06047      0.99946     2.04967    0.01133     3.06047
      C   10   -0.16789      0.99945     2.15562    0.01281     3.16789
      S   11    0.19973      4.99946     2.78060    0.02022     7.80027
      C   12   -0.20085      0.99953     2.18874    0.01258     3.20085
      C   13   -0.11956      0.99949     2.11015    0.00993     3.11956
      H   14    0.09260      0.00000     0.40639    0.00101     0.40740
      H   15    0.08275      0.00000     0.41551    0.00174     0.41725
      H   16    0.09817      0.00000     0.40002    0.00182     0.40183
      H   17    0.09371      0.00000     0.40531    0.00097     0.40629
      H   18    0.09614      0.00000     0.40285    0.00101     0.40386
      H   19    0.09132      0.00000     0.40769    0.00098     0.40868
      H   20    0.08862      0.00000     0.41034    0.00104     0.41138
      H   21    0.09173      0.00000     0.40709    0.00117     0.40827
      H   22    0.07902      0.00000     0.41958    0.00140     0.42098
      H   23    0.17734      0.00000     0.31477    0.00789     0.32266
      H   24    0.17814      0.00000     0.31924    0.00262     0.32186
      H   25    0.10211      0.00000     0.39641    0.00149     0.39789
      H   26    0.09578      0.00000     0.40325    0.00097     0.40422
      H   27    0.10979      0.00000     0.38883    0.00138     0.39021
      H   28    0.10985      0.00000     0.38906    0.00109     0.39015
      H   29    0.10825      0.00000     0.39073    0.00102     0.39175
 =======================================================================
   * Total *   -0.00000     16.99430    35.81710    0.18860    53.00000

 Normal termination of Gaussian 16 at Wed Dec  9 23:35:53 2020.
