 Gaussian 16, Revision A.03,

 -----------------------------------------------------------
 # opt freq B3LYP/6-31G(d) empiricaldispersion=gd3bj scf=xqc
 -----------------------------------------------------------

 ------------------------------
 CID_65562242_JID_5405_neutraal
 ------------------------------
 Symbolic Z-matrix:
 Charge =  0 Multiplicity = 1

 SCF Done:  E(RB3LYP) =  -692.418212774     A.U. after   14 cycles
 SCF Done:  E(RB3LYP) =  -692.416643141     A.U. after   13 cycles
 SCF Done:  E(RB3LYP) =  -692.422253349     A.U. after   12 cycles
 SCF Done:  E(RB3LYP) =  -692.422518982     A.U. after   13 cycles
 SCF Done:  E(RB3LYP) =  -692.421001743     A.U. after   13 cycles
 SCF Done:  E(RB3LYP) =  -692.424042884     A.U. after   12 cycles
 SCF Done:  E(RB3LYP) =  -692.424184341     A.U. after   11 cycles
 SCF Done:  E(RB3LYP) =  -692.424189699     A.U. after   11 cycles
 SCF Done:  E(RB3LYP) =  -692.424385306     A.U. after   11 cycles
 SCF Done:  E(RB3LYP) =  -692.424480304     A.U. after   11 cycles
 SCF Done:  E(RB3LYP) =  -692.424575777     A.U. after   10 cycles
 SCF Done:  E(RB3LYP) =  -692.424597674     A.U. after   10 cycles
 SCF Done:  E(RB3LYP) =  -692.424601913     A.U. after    8 cycles
 SCF Done:  E(RB3LYP) =  -692.424603069     A.U. after    7 cycles
 SCF Done:  E(RB3LYP) =  -692.424603279     A.U. after    7 cycles
 SCF Done:  E(RB3LYP) =  -692.424603318     A.U. after    6 cycles
 Optimization completed.
    -- Stationary point found.
 Normal termination of Gaussian 16 at Thu Dec 10 16:04:16 2020.

 --------------------------------------------------------------------
 #N Geom=AllCheck Guess=TCheck SCRF=Check GenChk RB3LYP/6-31G(d) Freq
 --------------------------------------------------------------------

 Structure from the checkpoint file:  "JID_5405.chk"
 ------------------------------
 CID_65562242_JID_5405_neutraal
 ------------------------------
 Charge =  0 Multiplicity = 1

 SCF Done:  E(RB3LYP) =  -692.424603318     A.U. after    1 cycles

  Exact polarizability: 150.057   0.823 127.141   3.080   1.749 120.309
 Approx polarizability: 196.594  -3.196 172.616   7.666  -2.598 185.720

                      1                      2                      3
                      A                      A                      A
 Frequencies --     33.3840                51.9506                70.5919
 Red. masses --      5.0080                 3.8448                 3.9506
 Frc consts  --      0.0033                 0.0061                 0.0116
 IR Inten    --      1.4407                 0.6366                 0.9472

                      4                      5                      6
                      A                      A                      A
 Frequencies --     83.2489               113.8450               125.3375
 Red. masses --      2.6012                 2.5318                 2.8516
 Frc consts  --      0.0106                 0.0193                 0.0264
 IR Inten    --      3.0519                 0.3619                 1.0406

                      7                      8                      9
                      A                      A                      A
 Frequencies --    146.1159               155.6344               204.3177
 Red. masses --      3.4062                 3.2520                 1.9624
 Frc consts  --      0.0428                 0.0464                 0.0483
 IR Inten    --      0.7058                 0.2626                 0.7606

                     10                     11                     12
                      A                      A                      A
 Frequencies --    233.7647               239.0962               254.0146
 Red. masses --      1.3122                 1.5834                 2.3710
 Frc consts  --      0.0422                 0.0533                 0.0901
 IR Inten    --      2.5391                 0.0545                 1.5904

                     13                     14                     15
                      A                      A                      A
 Frequencies --    267.9027               283.1485               309.6626
 Red. masses --      1.4002                 2.1567                 2.9208
 Frc consts  --      0.0592                 0.1019                 0.1650
 IR Inten    --      1.8911                 1.2320                 0.2805

                     16                     17                     18
                      A                      A                      A
 Frequencies --    348.7404               353.5707               395.2076
 Red. masses --      3.1418                 2.1142                 2.0240
 Frc consts  --      0.2251                 0.1557                 0.1863
 IR Inten    --      2.3489                 0.2210                 1.8436

                     19                     20                     21
                      A                      A                      A
 Frequencies --    423.2232               455.3833               490.6266
 Red. masses --      3.4203                 2.1119                 2.6295
 Frc consts  --      0.3610                 0.2580                 0.3729
 IR Inten    --      0.7044                 8.8649                 5.2003

                     22                     23                     24
                      A                      A                      A
 Frequencies --    499.5080               517.5720               558.5392
 Red. masses --      3.1311                 3.7199                 3.7266
 Frc consts  --      0.4603                 0.5871                 0.6850
 IR Inten    --      0.1739                17.2314                 4.2940

                     25                     26                     27
                      A                      A                      A
 Frequencies --    608.6345               642.3754               705.3384
 Red. masses --      2.7842                 3.7145                 2.2562
 Frc consts  --      0.6077                 0.9031                 0.6613
 IR Inten    --     15.8995                 5.5213                 9.3763

                     28                     29                     30
                      A                      A                      A
 Frequencies --    732.0564               769.1728               814.8720
 Red. masses --      1.6103                 2.9355                 1.7087
 Frc consts  --      0.5084                 1.0233                 0.6685
 IR Inten    --     90.8802                 2.9920                49.7919

                     31                     32                     33
                      A                      A                      A
 Frequencies --    850.6999               892.5410               906.1742
 Red. masses --      3.3633                 2.2745                 1.7689
 Frc consts  --      1.4341                 1.0676                 0.8558
 IR Inten    --     15.4485                 0.6452                18.4982

                     34                     35                     36
                      A                      A                      A
 Frequencies --    913.1835               940.7984               952.5442
 Red. masses --      1.7057                 1.7157                 1.4799
 Frc consts  --      0.8381                 0.8947                 0.7911
 IR Inten    --      5.4525                20.8649                 0.3783

                     37                     38                     39
                      A                      A                      A
 Frequencies --    960.2467               976.0396               995.7524
 Red. masses --      1.8085                 2.6398                 2.2489
 Frc consts  --      0.9825                 1.4817                 1.3138
 IR Inten    --     32.0545                60.1123                 6.7106

                     40                     41                     42
                      A                      A                      A
 Frequencies --   1014.5924              1020.2823              1086.3861
 Red. masses --      2.2338                 1.6826                 1.8046
 Frc consts  --      1.3548                 1.0320                 1.2549
 IR Inten    --      5.0999                 0.7271                 4.5973

                     43                     44                     45
                      A                      A                      A
 Frequencies --   1103.5532              1115.3726              1136.1011
 Red. masses --      1.5035                 2.5743                 2.1795
 Frc consts  --      1.0788                 1.8869                 1.6574
 IR Inten    --      6.7820                 6.2536                16.9618

                     46                     47                     48
                      A                      A                      A
 Frequencies --   1148.4848              1157.4357              1178.8783
 Red. masses --      1.6647                 2.3661                 1.8192
 Frc consts  --      1.2937                 1.8676                 1.4896
 IR Inten    --     11.0554                78.1862                26.5670

                     49                     50                     51
                      A                      A                      A
 Frequencies --   1180.8901              1193.0048              1207.3790
 Red. masses --      2.2628                 1.6645                 1.9898
 Frc consts  --      1.8592                 1.3957                 1.7090
 IR Inten    --     46.5707                18.8783                10.7454

                     52                     53                     54
                      A                      A                      A
 Frequencies --   1216.6498              1245.3368              1273.0794
 Red. masses --      1.5915                 1.7499                 1.4693
 Frc consts  --      1.3880                 1.5990                 1.4030
 IR Inten    --      6.3012                31.3982                17.7728

                     55                     56                     57
                      A                      A                      A
 Frequencies --   1282.6727              1288.8253              1334.7871
 Red. masses --      1.2725                 1.2203                 1.7122
 Frc consts  --      1.2335                 1.1943                 1.7973
 IR Inten    --      4.9932                 1.4951                 8.7696

                     58                     59                     60
                      A                      A                      A
 Frequencies --   1338.0941              1348.0633              1356.0316
 Red. masses --      1.3844                 1.4277                 1.8177
 Frc consts  --      1.4604                 1.5286                 1.9693
 IR Inten    --     27.1005                41.9063               104.7444

                     61                     62                     63
                      A                      A                      A
 Frequencies --   1367.4019              1377.5962              1392.4351
 Red. masses --      1.3319                 1.3183                 1.5811
 Frc consts  --      1.4672                 1.4740                 1.8061
 IR Inten    --     36.2545                10.4403                 9.6718

                     64                     65                     66
                      A                      A                      A
 Frequencies --   1402.9165              1405.8152              1424.9869
 Red. masses --      1.3749                 1.4508                 1.4415
 Frc consts  --      1.5944                 1.6893                 1.7245
 IR Inten    --      7.8785                13.2128                42.9622

                     67                     68                     69
                      A                      A                      A
 Frequencies --   1432.1279              1444.8071              1451.6365
 Red. masses --      1.3691                 1.2849                 1.2508
 Frc consts  --      1.6544                 1.5802                 1.5529
 IR Inten    --      1.4910                18.6732                 5.4010

                     70                     71                     72
                      A                      A                      A
 Frequencies --   1499.4576              1505.4948              1508.8092
 Red. masses --      1.1964                 1.2720                 1.1203
 Frc consts  --      1.5849                 1.6986                 1.5026
 IR Inten    --      9.5539                10.7661                14.0397

                     73                     74                     75
                      A                      A                      A
 Frequencies --   1514.0496              1515.7179              1524.8209
 Red. masses --      1.0734                 1.0553                 1.0733
 Frc consts  --      1.4497                 1.4284                 1.4703
 IR Inten    --      1.3391                 6.2630                 3.8506

                     76                     77                     78
                      A                      A                      A
 Frequencies --   1526.8423              1529.3162              1532.1826
 Red. masses --      1.0604                 1.0530                 1.1039
 Frc consts  --      1.4565                 1.4511                 1.5268
 IR Inten    --      0.1567                12.2756                10.3564

                     79                     80                     81
                      A                      A                      A
 Frequencies --   1539.9842              1547.9628              1552.6933
 Red. masses --      1.0921                 1.0729                 1.0990
 Frc consts  --      1.5259                 1.5147                 1.5610
 IR Inten    --     18.1291                15.4002                 1.5418

                     82                     83                     84
                      A                      A                      A
 Frequencies --   1561.2259              1746.7224              2975.9209
 Red. masses --      1.1511                 6.7445                 1.0563
 Frc consts  --      1.6531                12.1241                 5.5118
 IR Inten    --     13.3577               263.9127                49.6835

                     85                     86                     87
                      A                      A                      A
 Frequencies --   3002.5935              3008.2090              3009.1648
 Red. masses --      1.0812                 1.0390                 1.0776
 Frc consts  --      5.7429                 5.5394                 5.7490
 IR Inten    --     18.0986                75.9087                16.7471

                     88                     89                     90
                      A                      A                      A
 Frequencies --   3014.8131              3023.3311              3029.8988
 Red. masses --      1.1016                 1.0687                 1.0732
 Frc consts  --      5.8994                 5.7554                 5.8048
 IR Inten    --     57.1375                67.0586                21.1808

                     91                     92                     93
                      A                      A                      A
 Frequencies --   3041.2599              3046.4503              3051.4252
 Red. masses --      1.0560                 1.0636                 1.0383
 Frc consts  --      5.7548                 5.8158                 5.6963
 IR Inten    --     89.5406                66.6041                23.9255

                     94                     95                     96
                      A                      A                      A
 Frequencies --   3059.1819              3072.4279              3096.8501
 Red. masses --      1.1060                 1.1002                 1.0911
 Frc consts  --      6.0983                 6.1191                 6.1652
 IR Inten    --     46.5205                51.0199                61.0183

                     97                     98                     99
                      A                      A                      A
 Frequencies --   3113.8678              3115.0728              3133.2671
 Red. masses --      1.0937                 1.0998                 1.0921
 Frc consts  --      6.2481                 6.2880                 6.3172
 IR Inten    --     23.8522                24.6088                10.4659

                    100                    101                    102
                      A                      A                      A
 Frequencies --   3143.5373              3147.9232              3154.4143
 Red. masses --      1.1021                 1.0993                 1.0980
 Frc consts  --      6.4168                 6.4182                 6.4373
 IR Inten    --     19.1922                13.2630                17.1790

                    103                    104                    105
                      A                      A                      A
 Frequencies --   3206.0681              3488.1634              3533.3578
 Red. masses --      1.0830                 1.0741                 1.0738
 Frc consts  --      6.5587                 7.7003                 7.8986
 IR Inten    --      9.2534                66.3168                 7.0719

 - Thermochemistry -
 -------------------
 Temperature   298.150 Kelvin.  Pressure   1.00000 Atm.
 Atom     1 has atomic number  6 and mass  12.00000

 Molecular mass:   214.16813 amu.
 Principal axes and moments of inertia in atomic units:
                           1         2         3
     Eigenvalues --  2402.531793648.227344332.27040
           X            0.99996   0.00787   0.00519
           Y           -0.00824   0.99702   0.07672
           Z           -0.00457  -0.07676   0.99704
 This molecule is an asymmetric top.
 Rotational symmetry number  1.
 Warning -- assumption of classical behavior for rotation
           may cause significant error
 Rotational temperatures (Kelvin)      0.03605     0.02374     0.01999
 Rotational constants (GHZ):           0.75118     0.49469     0.41658
 Zero-point vibrational energy     880887.7 (Joules/Mol)
                                  210.53721 (Kcal/Mol)
 Warning -- explicit consideration of  25 degrees of freedom as
           vibrations may cause significant error
 Vibrational temperatures:     48.03    74.75   101.57   119.78   163.80
          (Kelvin)            180.33   210.23   223.92   293.97   336.34
                              344.01   365.47   385.45   407.39   445.54
                              501.76   508.71   568.62   608.92   655.20
                              705.90   718.68   744.67   803.61   875.69
                              924.23  1014.82  1053.27  1106.67  1172.42
                             1223.97  1284.17  1303.78  1313.87  1353.60
                             1370.50  1381.58  1404.30  1432.67  1459.77
                             1467.96  1563.07  1587.77  1604.77  1634.60
                             1652.41  1665.29  1696.14  1699.04  1716.47
                             1737.15  1750.49  1791.76  1831.68  1845.48
                             1854.33  1920.46  1925.22  1939.56  1951.03
                             1967.39  1982.05  2003.40  2018.48  2022.65
                             2050.24  2060.51  2078.76  2088.58  2157.39
                             2166.07  2170.84  2178.38  2180.78  2193.88
                             2196.79  2200.34  2204.47  2215.69  2227.17
                             2233.98  2246.26  2513.14  4281.69  4320.06
                             4328.14  4329.52  4337.64  4349.90  4359.35
                             4375.69  4383.16  4390.32  4401.48  4420.54
                             4455.68  4480.16  4481.89  4508.07  4522.85
                             4529.16  4538.50  4612.82  5018.69  5083.71

 Zero-point correction=                           0.335512 (Hartree/Particle)
 Thermal correction to Energy=                    0.351679
 Thermal correction to Enthalpy=                  0.352623
 Thermal correction to Gibbs Free Energy=         0.292085
 Sum of electronic and zero-point Energies=           -692.089091
 Sum of electronic and thermal Energies=              -692.072924
 Sum of electronic and thermal Enthalpies=            -692.071980
 Sum of electronic and thermal Free Energies=         -692.132518

                     E (Thermal)             CV                S
                      KCal/Mol        Cal/Mol-Kelvin    Cal/Mol-Kelvin
 Total                  220.682             61.358            127.413
 Electronic               0.000              0.000              0.000
 Translational            0.889              2.981             41.988
 Rotational               0.889              2.981             32.007
 Vibrational            218.905             55.396             53.417
 Vibration     1          0.594              1.983              5.617
 Vibration     2          0.596              1.977              4.742
 Vibration     3          0.598              1.968              4.137
 Vibration     4          0.600              1.961              3.813
 Vibration     5          0.607              1.938              3.202
 Vibration     6          0.610              1.928              3.016
 Vibration     7          0.617              1.907              2.722
 Vibration     8          0.620              1.896              2.602
 Vibration     9          0.640              1.834              2.094
 Vibration    10          0.654              1.789              1.850
 Vibration    11          0.657              1.781              1.810
 Vibration    12          0.665              1.756              1.703
 Vibration    13          0.673              1.732              1.610
 Vibration    14          0.682              1.705              1.515
 Vibration    15          0.699              1.655              1.364
 Vibration    16          0.726              1.578              1.172
 Vibration    17          0.730              1.568              1.150
 Vibration    18          0.762              1.480              0.980
 Vibration    19          0.785              1.420              0.881
 Vibration    20          0.814              1.349              0.780
 Vibration    21          0.846              1.271              0.682
 Vibration    22          0.855              1.251              0.659
 Vibration    23          0.873              1.211              0.616
 Vibration    24          0.914              1.121              0.527
 Vibration    25          0.968              1.014              0.435

 Optimization completed.
    -- Stationary point found.
 Normal termination of Gaussian 16 at Thu Dec 10 16:20:12 2020.

 ----------------------------------------------------------------------
 # B3LYP/6-311++G(d,p) empiricaldispersion=gd3bj scf=xqc pop=npa geom=c
 heck
 ----------------------------------------------------------------------

 --------------------------------------
 CID_65562242_JID_5405_Energie_neutraal
 --------------------------------------
 Structure from the checkpoint file:  "JID_5405.chk"
 Charge =  0 Multiplicity = 1

 SCF Done:  E(RB3LYP) =  -692.628481526     A.U. after   14 cycles
 Normal termination of Gaussian 16 at Thu Dec 10 16:27:53 2020.

 ----------------------------------------------------------------------
 # B3LYP/6-311++G(d,p) empiricaldispersion=gd3bj scf=xqc pop=npa geom=c
 heck
 ----------------------------------------------------------------------

 ------------------------------------
 CID_65562242_JID_5405_Energie_kation
 ------------------------------------
 Structure from the checkpoint file:  "JID_5405.chk"
 Charge =  1 Multiplicity = 2

 SCF Done:  E(UB3LYP) =  -692.340428266     A.U. after   23 cycles
 Normal termination of Gaussian 16 at Thu Dec 10 16:45:19 2020.
 Gaussian 16:  ES64L-G16RevA.03 25-Dec-2016

 ----------------------------------------------------------------------
 # B3LYP/6-311++G(d,p) empiricaldispersion=gd3bj scf=xqc pop=npa geom=c
 heck
 ----------------------------------------------------------------------

 -----------------------------------
 CID_65562242_JID_5405_Energie_anion
 -----------------------------------
 Structure from the checkpoint file:  "JID_5405.chk"
 Charge = -1 Multiplicity = 2

                         Standard orientation:
 ---------------------------------------------------------------------
 Center     Atomic      Atomic             Coordinates (Angstroms)
 Number     Number       Type             X           Y           Z
 ---------------------------------------------------------------------
      1          6           0        1.852897    1.254357    1.318122
      2          6           0        2.649977    0.547224    0.213288
      3          6           0        2.504691   -0.988715    0.245456
      4          6           0        1.134964   -1.484410   -0.273351
      5          6           0        0.905542   -0.850750   -1.660597
      6          7           0        0.981976    0.605541   -1.698231
      7          6           0        2.274335    1.074034   -1.189627
      8          6           0        0.081761   -1.391621    0.850777
      9          8           0        0.437217   -1.628721    2.002601
     10          7           0       -1.272437   -1.241029    0.626084
     11          6           0       -2.085265   -0.617477   -0.412974
     12          6           0       -3.319279   -1.481631   -0.691667
     13          6           0       -2.497847    0.800465   -0.010186
     14          8           0       -1.334723    1.588377    0.126135
     15          6           0       -1.592555    2.918198    0.533481
     16          1           0        2.087573    0.838353    2.302815
     17          1           0        0.773846    1.158083    1.173339
     18          1           0        2.093512    2.325587    1.330024
     19          1           0        3.713591    0.775079    0.376873
     20          1           0        3.275681   -1.423513   -0.405172
     21          1           0        2.669930   -1.371351    1.254633
     22          1           0        1.214775   -2.572946   -0.421816
     23          1           0       -0.021551   -1.191318   -2.129988
     24          1           0        1.708979   -1.230357   -2.307752
     25          1           0        0.230241    1.011566   -1.141871
     26          1           0        2.267245    2.171115   -1.194398
     27          1           0        3.042935    0.756798   -1.909470
     28          1           0       -1.750636   -1.317481    1.519995
     29          1           0       -1.498957   -0.539150   -1.323464
     30          1           0       -3.934073   -1.588577    0.210610
     31          1           0       -3.942751   -1.038857   -1.475844
     32          1           0       -3.012880   -2.481536   -1.010303
     33          1           0       -3.164738    1.227138   -0.777130
     34          1           0       -3.056925    0.774596    0.941295
     35          1           0       -2.107412    2.943074    1.505215
     36          1           0       -0.624296    3.413772    0.628050
     37          1           0       -2.206145    3.453048   -0.206837
 ---------------------------------------------------------------------

 SCF Done:  E(UB3LYP) =  -692.617432463     A.U. after   31 cycles

 The electronic state is 2-A.
 Alpha  occ. eigenvalues --  -19.04213 -18.98536 -14.23558 -14.19244 -10.17681
 Alpha  occ. eigenvalues --  -10.12547 -10.12299 -10.12051 -10.09854 -10.09224
 Alpha  occ. eigenvalues --  -10.08875 -10.07556 -10.06905 -10.06887 -10.05402
 Alpha  occ. eigenvalues --   -0.95625  -0.93983  -0.82356  -0.81344  -0.70190
 Alpha  occ. eigenvalues --   -0.68844  -0.67437  -0.62348  -0.58731  -0.55864
 Alpha  occ. eigenvalues --   -0.55055  -0.53778  -0.52201  -0.48890  -0.44432
 Alpha  occ. eigenvalues --   -0.41346  -0.40569  -0.39964  -0.39076  -0.38048
 Alpha  occ. eigenvalues --   -0.37033  -0.36008  -0.34267  -0.33773  -0.32882
 Alpha  occ. eigenvalues --   -0.32256  -0.31603  -0.30710  -0.30297  -0.29037
 Alpha  occ. eigenvalues --   -0.28659  -0.28012  -0.26705  -0.26373  -0.25753
 Alpha  occ. eigenvalues --   -0.25278  -0.24746  -0.23869  -0.22599  -0.21261
 Alpha  occ. eigenvalues --   -0.17873  -0.16210  -0.15301  -0.12350   0.04178
 Alpha virt. eigenvalues --    0.06162   0.06436   0.07969   0.08081   0.08554
 Alpha virt. eigenvalues --    0.09217   0.09686   0.10183   0.10493   0.10926
 Alpha virt. eigenvalues --    0.11457   0.11490   0.11758   0.12138   0.13040

  Beta  occ. eigenvalues --  -19.04203 -18.98530 -14.23549 -14.19244 -10.17676
  Beta  occ. eigenvalues --  -10.12509 -10.12292 -10.12012 -10.09842 -10.09216
  Beta  occ. eigenvalues --  -10.08868 -10.07553 -10.06882 -10.06851 -10.05393
  Beta  occ. eigenvalues --   -0.95600  -0.93971  -0.82339  -0.81337  -0.70176
  Beta  occ. eigenvalues --   -0.68809  -0.67418  -0.62284  -0.58712  -0.55782
  Beta  occ. eigenvalues --   -0.55012  -0.53755  -0.52124  -0.48868  -0.44412
  Beta  occ. eigenvalues --   -0.41325  -0.40528  -0.39917  -0.39040  -0.38014
  Beta  occ. eigenvalues --   -0.37009  -0.35975  -0.34252  -0.33753  -0.32840
  Beta  occ. eigenvalues --   -0.32237  -0.31563  -0.30667  -0.30259  -0.29014
  Beta  occ. eigenvalues --   -0.28618  -0.27982  -0.26687  -0.26336  -0.25735
  Beta  occ. eigenvalues --   -0.25253  -0.24724  -0.23814  -0.22583  -0.21240
  Beta  occ. eigenvalues --   -0.17846  -0.16199  -0.15281  -0.12341
  Beta virt. eigenvalues --    0.06139   0.07001   0.07187   0.08494   0.08637
  Beta virt. eigenvalues --    0.09068   0.09496   0.10005   0.10461   0.10980
  Beta virt. eigenvalues --    0.11134   0.11657   0.11877   0.12037   0.12332

 Mulliken charges and spin densities:
               1          2
     1  C   -0.524480  -0.255042
     2  C   -0.116164   0.573140
     3  C   -0.140348  -0.670904
     4  C    0.890136  -0.051223
     5  C   -0.560045  -0.184968
     6  N   -0.143688   0.007153
     7  C    0.011477  -0.543128
     8  C   -0.446434  -0.032257
     9  O   -0.266124   0.001228
    10  N   -0.007892   0.039215
    11  C   -1.229516   1.135041
    12  C    0.830759  -1.386870
    13  C    0.697158  -1.087684
    14  O   -0.215427   0.072629
    15  C    0.690731  -0.999537
    16  H    0.118692   0.024322
    17  H    0.332794  -0.090079
    18  H   -0.021671   0.157358
    19  H    0.043372   0.137547
    20  H    0.063901   0.065404
    21  H    0.169851   0.028562
    22  H    0.036274   0.198688
    23  H   -0.443092   0.618760
    24  H    0.011341   0.134648
    25  H    0.220151   0.118276
    26  H    0.037146   0.130860
    27  H    0.031607   0.115891
    28  H    0.277375  -0.003084
    29  H    0.855953  -0.700685
    30  H   -0.415317   0.566152
    31  H   -0.526391   0.683734
    32  H   -0.330477   0.498042
    33  H   -0.153287   0.323160
    34  H   -0.042957   0.218930
    35  H   -0.283796   0.426813
    36  H   -0.012134   0.140393
    37  H   -0.439479   0.589515
 Sum of Mulliken charges =  -1.00000   1.00000

 Dipole moment (field-independent basis, Debye):
    X=              6.5213    Y=             -0.5159    Z=              0.6912  Tot=              6.5781
 Quadrupole moment (field-independent basis, Debye-Ang):
   XX=           -161.6838   YY=           -145.3841   ZZ=           -138.1071
   XY=              2.1844   XZ=             -5.8731   YZ=              1.6604

 Summary of Natural Population Analysis:

                                       Natural Population
                Natural  -----------------------------------------------
    Atom  No    Charge         Core      Valence    Rydberg      Total
 -----------------------------------------------------------------------
      C    1   -0.29391      0.99964     2.28724    0.00703     3.29391
      C    2   -0.11970      0.99960     2.11110    0.00900     3.11970
      C    3   -0.18654      0.99960     2.17822    0.00872     3.18654
      C    4   -0.15835      0.99953     2.14746    0.01135     3.15835
      C    5   -0.09077      0.99961     2.07768    0.01349     3.09077
      N    6   -0.35254      0.99976     2.83985    0.01294     3.85254
      C    7   -0.08572      0.99961     2.07385    0.01226     3.08572
      C    8    0.35187      0.99964     1.62412    0.02437     2.64813
      O    9   -0.33116      0.99988     3.32592    0.00535     4.33116
      N   10   -0.31991      0.99966     2.80880    0.01144     3.81991
      C   11   -0.02548      0.99957     2.01307    0.01285     3.02548
      C   12   -0.28552      0.99964     2.27975    0.00613     3.28552
      C   13   -0.00535      0.99954     1.99394    0.01186     3.00535
      O   14   -0.30535      0.99988     3.29503    0.01044     4.30535
      C   15   -0.09580      0.99961     2.08737    0.00882     3.09580
      H   16    0.10218      0.00000     0.39708    0.00074     0.39782
      H   17    0.10666      0.00000     0.39149    0.00185     0.39334
      H   18    0.09395      0.00000     0.40512    0.00093     0.40605
      H   19    0.09237      0.00000     0.40610    0.00153     0.40763
      H   20    0.09473      0.00000     0.40418    0.00109     0.40527
      H   21    0.11310      0.00000     0.38574    0.00116     0.38690
      H   22    0.11345      0.00000     0.38528    0.00127     0.38655
      H   23    0.09562      0.00000     0.40301    0.00138     0.40438
      H   24    0.09259      0.00000     0.40627    0.00113     0.40741
      H   25    0.18620      0.00000     0.30891    0.00488     0.31380
      H   26    0.09440      0.00000     0.40474    0.00085     0.40560
      H   27    0.08760      0.00000     0.41139    0.00101     0.41240
      H   28    0.19082      0.00000     0.30687    0.00232     0.30918
      H   29    0.10238      0.00000     0.39437    0.00324     0.39762
      H   30    0.09988      0.00000     0.39838    0.00174     0.40012
      H   31    0.10590      0.00000     0.39216    0.00194     0.39410
      H   32    0.10568      0.00000     0.39278    0.00154     0.39432
      H   33    0.08827      0.00000     0.40951    0.00221     0.41173
      H   34    0.08160      0.00000     0.41637    0.00202     0.41840
      H   35    0.08200      0.00000     0.41656    0.00143     0.41800
      H   36    0.09171      0.00000     0.40715    0.00114     0.40829
      H   37    0.08311      0.00000     0.41519    0.00170     0.41689
 =======================================================================
   * Total *   -0.00000     14.99477    43.80207    0.20316    59.00000

 Normal termination of Gaussian 16 at Thu Dec 10 17:08:49 2020.
