 Gaussian 16, Revision A.03,

 -----------------------------------------------------------
 # opt freq B3LYP/6-31G(d) empiricaldispersion=gd3bj scf=xqc
 -----------------------------------------------------------

 ------------------------------
 CID_83226546_JID_1112_neutraal
 ------------------------------
 Symbolic Z-matrix:
 Charge =  0 Multiplicity = 1

 SCF Done:  E(RB3LYP) =  -863.137514595     A.U. after   14 cycles
 SCF Done:  E(RB3LYP) =  -863.140255775     A.U. after   13 cycles
 SCF Done:  E(RB3LYP) =  -863.139133998     A.U. after   13 cycles
 SCF Done:  E(RB3LYP) =  -863.140898199     A.U. after   12 cycles
 SCF Done:  E(RB3LYP) =  -863.141057124     A.U. after   13 cycles
 SCF Done:  E(RB3LYP) =  -863.142172064     A.U. after   12 cycles
 SCF Done:  E(RB3LYP) =  -863.141780467     A.U. after   13 cycles
 SCF Done:  E(RB3LYP) =  -863.142599075     A.U. after   12 cycles
 SCF Done:  E(RB3LYP) =  -863.142941187     A.U. after   12 cycles
 SCF Done:  E(RB3LYP) =  -863.142978725     A.U. after   15 cycles
 SCF Done:  E(RB3LYP) =  -863.152097871     A.U. after   11 cycles
 SCF Done:  E(RB3LYP) =  -863.152115345     A.U. after    9 cycles
 SCF Done:  E(RB3LYP) =  -863.152119492     A.U. after    9 cycles
 SCF Done:  E(RB3LYP) =  -863.152120526     A.U. after    8 cycles
 SCF Done:  E(RB3LYP) =  -863.152121062     A.U. after    8 cycles
 SCF Done:  E(RB3LYP) =  -863.152121083     A.U. after    7 cycles
 Optimization completed.
    -- Stationary point found.
 Normal termination of Gaussian 16 at Tue Dec  8 19:39:41 2020.

 --------------------------------------------------------------------
 #N Geom=AllCheck Guess=TCheck SCRF=Check GenChk RB3LYP/6-31G(d) Freq
 --------------------------------------------------------------------

 Structure from the checkpoint file:  "JID_1112.chk"
 ------------------------------
 CID_83226546_JID_1112_neutraal
 ------------------------------
 Charge =  0 Multiplicity = 1

 SCF Done:  E(RB3LYP) =  -863.152121083     A.U. after    1 cycles

  Exact polarizability: 122.494  -2.871 105.506   0.948   2.369  90.881
 Approx polarizability: 152.167  -4.091 146.751  -2.377  10.298 141.770

                      1                      2                      3
                      A                      A                      A
 Frequencies --     35.9250                37.7117                52.6560
 Red. masses --      3.4647                 3.2450                 4.6253
 Frc consts  --      0.0026                 0.0027                 0.0076
 IR Inten    --      0.4881                 0.9526                 1.9847

                      4                      5                      6
                      A                      A                      A
 Frequencies --     74.7111               103.1531               131.8293
 Red. masses --      2.2665                 2.1517                 2.8273
 Frc consts  --      0.0075                 0.0135                 0.0289
 IR Inten    --      2.2798                 0.8931                 0.9008

                      7                      8                      9
                      A                      A                      A
 Frequencies --    136.4296               155.8422               164.4867
 Red. masses --      2.6945                 1.3634                 1.2313
 Frc consts  --      0.0295                 0.0195                 0.0196
 IR Inten    --      1.3388                 1.5513                 0.3005

                     10                     11                     12
                      A                      A                      A
 Frequencies --    205.0163               208.5697               228.8685
 Red. masses --      1.4304                 1.6670                 2.8348
 Frc consts  --      0.0354                 0.0427                 0.0875
 IR Inten    --      1.8553                 1.6551                 2.8344

                     13                     14                     15
                      A                      A                      A
 Frequencies --    291.9017               306.9555               309.2024
 Red. masses --      3.0499                 3.8169                 2.9844
 Frc consts  --      0.1531                 0.2119                 0.1681
 IR Inten    --      2.0478                15.4848                 2.6898

                     16                     17                     18
                      A                      A                      A
 Frequencies --    317.7985               485.1830               515.5936
 Red. masses --      3.6700                 2.9528                 5.2320
 Frc consts  --      0.2184                 0.4095                 0.8195
 IR Inten    --      1.6883                 1.6663                 2.4250

                     19                     20                     21
                      A                      A                      A
 Frequencies --    568.4613               647.4690               707.6424
 Red. masses --      3.2396                 3.3770                 4.4611
 Frc consts  --      0.6168                 0.8341                 1.3162
 IR Inten    --     12.0785                 4.6924                 1.4505

                     22                     23                     24
                      A                      A                      A
 Frequencies --    749.4564               756.6493               775.0637
 Red. masses --      2.9836                 1.3757                 2.2041
 Frc consts  --      0.9874                 0.4641                 0.7801
 IR Inten    --      3.5243                 2.7006                 0.4532

                     25                     26                     27
                      A                      A                      A
 Frequencies --    842.7997               903.8885               954.6763
 Red. masses --      1.9951                 2.3889                 1.6726
 Frc consts  --      0.8350                 1.1500                 0.8982
 IR Inten    --     10.2347                 2.7744                12.2949

                     28                     29                     30
                      A                      A                      A
 Frequencies --    988.9696              1005.0498              1016.0071
 Red. masses --      1.2076                 1.8532                 1.7150
 Frc consts  --      0.6959                 1.1029                 1.0431
 IR Inten    --      7.0598                 8.3145                 1.7968

                     31                     32                     33
                      A                      A                      A
 Frequencies --   1052.2808              1077.5669              1098.5929
 Red. masses --      2.2186                 2.0657                 2.3481
 Frc consts  --      1.4474                 1.4132                 1.6697
 IR Inten    --      5.3742                17.3597                 1.8146

                     34                     35                     36
                      A                      A                      A
 Frequencies --   1106.6759              1155.9620              1170.1371
 Red. masses --      2.0751                 4.0680                 2.1331
 Frc consts  --      1.4973                 3.2027                 1.7208
 IR Inten    --     13.2661               132.6969                52.3101

                     37                     38                     39
                      A                      A                      A
 Frequencies --   1194.7020              1209.4360              1240.0552
 Red. masses --      1.3169                 1.3265                 1.4355
 Frc consts  --      1.1075                 1.1432                 1.3006
 IR Inten    --      3.0457                 8.6826                27.3200

                     40                     41                     42
                      A                      A                      A
 Frequencies --   1265.1747              1293.7837              1318.0635
 Red. masses --      1.4706                 1.2322                 1.2986
 Frc consts  --      1.3869                 1.2152                 1.3292
 IR Inten    --     11.5621                 0.9170                 7.1744

                     43                     44                     45
                      A                      A                      A
 Frequencies --   1340.3142              1381.1298              1390.9606
 Red. masses --      1.1964                 1.2503                 1.5533
 Frc consts  --      1.2663                 1.4051                 1.7707
 IR Inten    --      3.2166                33.4103                10.0170

                     46                     47                     48
                      A                      A                      A
 Frequencies --   1392.5909              1402.7960              1443.2287
 Red. masses --      1.1999                 1.5296                 1.2401
 Frc consts  --      1.3711                 1.7734                 1.5219
 IR Inten    --      1.5576                 9.0393                 5.2836

                     49                     50                     51
                      A                      A                      A
 Frequencies --   1474.1477              1497.4665              1499.9227
 Red. masses --      1.0853                 1.0741                 1.0717
 Frc consts  --      1.3896                 1.4190                 1.4206
 IR Inten    --     13.4914                 3.3308                 2.1748

                     52                     53                     54
                      A                      A                      A
 Frequencies --   1506.0720              1507.0476              1516.3528
 Red. masses --      1.1399                 1.0850                 1.0566
 Frc consts  --      1.5234                 1.4519                 1.4314
 IR Inten    --      1.1020                 7.3504                17.0181

                     55                     56                     57
                      A                      A                      A
 Frequencies --   1518.6035              1524.6159              1528.8287
 Red. masses --      1.0542                 1.0392                 1.0502
 Frc consts  --      1.4325                 1.4232                 1.4462
 IR Inten    --      4.6078                 6.0012                 8.3820

                     58                     59                     60
                      A                      A                      A
 Frequencies --   1537.9989              1807.3234              3002.6007
 Red. masses --      1.0609                11.1664                 1.0399
 Frc consts  --      1.4786                21.4900                 5.5236
 IR Inten    --      4.3870               110.4321                44.2528

                     61                     62                     63
                      A                      A                      A
 Frequencies --   3018.0523              3043.9619              3052.1552
 Red. masses --      1.0794                 1.0691                 1.1026
 Frc consts  --      5.7927                 5.8365                 6.0515
 IR Inten    --     37.8865                29.5783                45.9526

                     64                     65                     66
                      A                      A                      A
 Frequencies --   3059.3987              3066.2263              3067.8880
 Red. masses --      1.0311                 1.0368                 1.0588
 Frc consts  --      5.6860                 5.7431                 5.8716
 IR Inten    --     22.9855                28.6893                 7.4503

                     67                     68                     69
                      A                      A                      A
 Frequencies --   3079.4731              3081.5824              3114.5943
 Red. masses --      1.0725                 1.0794                 1.1045
 Frc consts  --      5.9926                 6.0390                 6.3125
 IR Inten    --     25.8755                12.0388                 0.4266

                     70                     71                     72
                      A                      A                      A
 Frequencies --   3133.4625              3135.0695              3138.9543
 Red. masses --      1.1032                 1.1058                 1.1069
 Frc consts  --      6.3818                 6.4037                 6.4259
 IR Inten    --     24.5182                21.7204                12.7012

                     73                     74                     75
                      A                      A                      A
 Frequencies --   3142.9466              3143.4984              3155.4095
 Red. masses --      1.1021                 1.0981                 1.1036
 Frc consts  --      6.4143                 6.3933                 6.4740
 IR Inten    --     17.4108                31.1735                 8.6262

 - Thermochemistry -
 -------------------
 Temperature   298.150 Kelvin.  Pressure   1.00000 Atm.
 Atom     1 has atomic number  6 and mass  12.00000

 Molecular mass:   176.08710 amu.
 Principal axes and moments of inertia in atomic units:
                           1         2         3
     Eigenvalues --  1457.175423620.620324350.14725
           X            0.99965  -0.02282   0.01371
           Y            0.02321   0.99931  -0.02894
           Z           -0.01304   0.02925   0.99949
 This molecule is an asymmetric top.
 Rotational symmetry number  1.
 Warning -- assumption of classical behavior for rotation
           may cause significant error
 Rotational temperatures (Kelvin)      0.05944     0.02392     0.01991
 Rotational constants (GHZ):           1.23852     0.49846     0.41487
 Zero-point vibrational energy     613475.4 (Joules/Mol)
                                  146.62413 (Kcal/Mol)
 Warning -- explicit consideration of  19 degrees of freedom as
           vibrations may cause significant error
 Vibrational temperatures:     51.69    54.26    75.76   107.49   148.41
          (Kelvin)            189.67   196.29   224.22   236.66   294.97
                              300.09   329.29   419.98   441.64   444.87
                              457.24   698.07   741.82   817.89   931.56
                             1018.14  1078.30  1088.65  1115.14  1212.60
                             1300.49  1373.57  1422.91  1446.04  1461.81
                             1514.00  1550.38  1580.63  1592.26  1663.17
                             1683.57  1718.91  1740.11  1784.16  1820.30
                             1861.47  1896.40  1928.41  1987.14  2001.28
                             2003.63  2018.31  2076.48  2120.97  2154.52
                             2158.05  2166.90  2168.31  2181.69  2184.93
                             2193.58  2199.64  2212.84  2600.34  4320.07
                             4342.30  4379.58  4391.37  4401.79  4411.62
                             4414.01  4430.67  4433.71  4481.21  4508.35
                             4510.67  4516.26  4522.00  4522.79  4539.93

 Zero-point correction=                           0.233660 (Hartree/Particle)
 Thermal correction to Energy=                    0.248161
 Thermal correction to Enthalpy=                  0.249105
 Thermal correction to Gibbs Free Energy=         0.190643
 Sum of electronic and zero-point Energies=           -862.918461
 Sum of electronic and thermal Energies=              -862.903960
 Sum of electronic and thermal Enthalpies=            -862.903016
 Sum of electronic and thermal Free Energies=         -862.961478

                     E (Thermal)             CV                S
                      KCal/Mol        Cal/Mol-Kelvin    Cal/Mol-Kelvin
 Total                  155.723             49.754            123.043
 Electronic               0.000              0.000              0.000
 Translational            0.889              2.981             41.405
 Rotational               0.889              2.981             31.507
 Vibrational            153.946             43.793             50.131
 Vibration     1          0.594              1.982              5.472
 Vibration     2          0.594              1.982              5.376
 Vibration     3          0.596              1.977              4.715
 Vibration     4          0.599              1.966              4.025
 Vibration     5          0.605              1.947              3.394
 Vibration     6          0.612              1.922              2.919
 Vibration     7          0.614              1.917              2.853
 Vibration     8          0.620              1.896              2.600
 Vibration     9          0.623              1.886              2.498
 Vibration    10          0.640              1.833              2.088
 Vibration    11          0.642              1.828              2.056
 Vibration    12          0.652              1.797              1.888
 Vibration    13          0.687              1.689              1.463
 Vibration    14          0.697              1.660              1.379
 Vibration    15          0.699              1.656              1.367
 Vibration    16          0.704              1.640              1.321
 Vibration    17          0.841              1.283              0.696
 Vibration    18          0.871              1.215              0.620
 Vibration    19          0.924              1.099              0.507

                           ! Non-Optimized Parameters !
 Normal termination of Gaussian 16 at Tue Dec  8 19:45:33 2020.

 ----------------------------------------------------------------------
 # B3LYP/6-311++G(d,p) empiricaldispersion=gd3bj scf=xqc pop=npa geom=c
 heck
 ----------------------------------------------------------------------

 --------------------------------------
 CID_83226546_JID_1112_Energie_neutraal
 --------------------------------------
 Structure from the checkpoint file:  "JID_1112.chk"
 Charge =  0 Multiplicity = 1

 SCF Done:  E(RB3LYP) =  -863.318016665     A.U. after   14 cycles
 Normal termination of Gaussian 16 at Tue Dec  8 19:49:09 2020.

 ----------------------------------------------------------------------
 # B3LYP/6-311++G(d,p) empiricaldispersion=gd3bj scf=xqc pop=npa geom=c
 heck
 ----------------------------------------------------------------------

 ------------------------------------
 CID_83226546_JID_1112_Energie_kation
 ------------------------------------
 Structure from the checkpoint file:  "JID_1112.chk"
 Charge =  1 Multiplicity = 2

 SCF Done:  E(UB3LYP) =  -863.015941599     A.U. after   26 cycles
 Normal termination of Gaussian 16 at Tue Dec  8 19:56:51 2020.
 Gaussian 16:  ES64L-G16RevA.03 25-Dec-2016

 ----------------------------------------------------------------------
 # B3LYP/6-311++G(d,p) empiricaldispersion=gd3bj scf=xqc pop=npa geom=c
 heck
 ----------------------------------------------------------------------

 -----------------------------------
 CID_83226546_JID_1112_Energie_anion
 -----------------------------------
 Structure from the checkpoint file:  "JID_1112.chk"
 Charge = -1 Multiplicity = 2

                         Standard orientation:
 ---------------------------------------------------------------------
 Center     Atomic      Atomic             Coordinates (Angstroms)
 Number     Number       Type             X           Y           Z
 ---------------------------------------------------------------------
      1          6           0        3.026186   -1.967759    0.861282
      2          6           0        2.263604   -0.647160    0.812322
      3          6           0        1.696030   -0.346273   -0.562904
      4          8           0        1.950255   -1.023637   -1.541671
      5          6           0        0.715731    0.830563   -0.706885
      6          6           0       -0.712621    0.301335   -0.921004
      7          6           0       -1.242175   -0.502305    0.268044
      8         16           0       -2.991121   -1.020078    0.092943
      9          6           0       -3.823133    0.584183    0.355346
     10          8           0        0.706923    1.693315    0.420839
     11          6           0        1.688956    2.710326    0.369556
     12          1           0        2.369773   -2.806968    0.610911
     13          1           0        3.439280   -2.138170    1.860431
     14          1           0        3.846266   -1.971614    0.137935
     15          1           0        1.440926   -0.619293    1.537655
     16          1           0        2.911686    0.192747    1.100276
     17          1           0        1.011475    1.383558   -1.611096
     18          1           0       -1.355735    1.168223   -1.104632
     19          1           0       -0.718365   -0.318550   -1.822303
     20          1           0       -0.683836   -1.437758    0.380766
     21          1           0       -1.132260    0.064528    1.197772
     22          1           0       -3.558950    1.005437    1.330185
     23          1           0       -3.581721    1.302961   -0.432474
     24          1           0       -4.898681    0.391315    0.333396
     25          1           0        2.710739    2.303913    0.329304
     26          1           0        1.542430    3.362933   -0.504212
     27          1           0        1.582024    3.303109    1.281124
 ---------------------------------------------------------------------

 SCF Done:  E(UB3LYP) =  -863.308501082     A.U. after   30 cycles

 The electronic state is 2-A.
 Alpha  occ. eigenvalues --  -88.73921 -19.02500 -18.99207 -10.13061 -10.11996
 Alpha  occ. eigenvalues --  -10.10800 -10.09733 -10.09289 -10.07156 -10.06908
 Alpha  occ. eigenvalues --  -10.06163  -7.82515  -5.78922  -5.78555  -5.77875
 Alpha  occ. eigenvalues --   -0.94181  -0.92455  -0.71648  -0.67693  -0.66484
 Alpha  occ. eigenvalues --   -0.61144  -0.56773  -0.55757  -0.51603  -0.47937
 Alpha  occ. eigenvalues --   -0.42346  -0.39647  -0.38364  -0.37000  -0.36270
 Alpha  occ. eigenvalues --   -0.34657  -0.33182  -0.32794  -0.32456  -0.31615
 Alpha  occ. eigenvalues --   -0.30053  -0.28540  -0.27003  -0.26864  -0.26420
 Alpha  occ. eigenvalues --   -0.25554  -0.24679  -0.23634  -0.22194  -0.20800
 Alpha  occ. eigenvalues --   -0.18173  -0.12853  -0.12604   0.04419
 Alpha virt. eigenvalues --    0.06475   0.07387   0.07651   0.08871   0.09379
 Alpha virt. eigenvalues --    0.09755   0.10506   0.10671   0.10963   0.11921
 Alpha virt. eigenvalues --    0.12253   0.13018   0.13410   0.13892   0.14507

  Beta  occ. eigenvalues --  -88.73917 -19.02486 -18.99048 -10.12861 -10.12005
  Beta  occ. eigenvalues --  -10.10753 -10.09730 -10.09234 -10.07133 -10.06915
  Beta  occ. eigenvalues --  -10.06152  -7.82512  -5.78916  -5.78545  -5.77873
  Beta  occ. eigenvalues --   -0.94104  -0.92175  -0.71606  -0.67580  -0.66439
  Beta  occ. eigenvalues --   -0.61072  -0.56662  -0.55604  -0.51541  -0.47877
  Beta  occ. eigenvalues --   -0.42141  -0.39551  -0.38211  -0.36888  -0.36200
  Beta  occ. eigenvalues --   -0.34580  -0.33110  -0.32744  -0.32380  -0.31497
  Beta  occ. eigenvalues --   -0.29892  -0.28468  -0.26940  -0.26619  -0.26360
  Beta  occ. eigenvalues --   -0.25456  -0.24540  -0.23315  -0.22067  -0.20677
  Beta  occ. eigenvalues --   -0.18107  -0.12731  -0.12581
  Beta virt. eigenvalues --    0.06894   0.07274   0.08057   0.08816   0.09579
  Beta virt. eigenvalues --    0.09882   0.10089   0.10804   0.11064   0.11444
  Beta virt. eigenvalues --    0.12109   0.12572   0.13092   0.13479   0.14058

 Mulliken charges and spin densities:
               1          2
     1  C   -0.196905  -0.488774
     2  C   -0.234615   0.197634
     3  C    0.291481  -0.309523
     4  O   -0.285609   0.063175
     5  C   -0.157573   0.126144
     6  C   -0.104573  -0.414262
     7  C   -0.445050   0.272453
     8  S   -0.075227   0.136798
     9  C    0.354364  -1.038587
    10  O   -0.077926   0.025186
    11  C    1.164580  -1.408809
    12  H    0.109702   0.031419
    13  H   -0.054804   0.175564
    14  H    0.095879   0.068029
    15  H    0.094317   0.075147
    16  H   -0.335345   0.494751
    17  H   -0.283248   0.494929
    18  H    0.073706   0.125554
    19  H    0.180128  -0.039398
    20  H    0.172683   0.004511
    21  H    0.302131  -0.102468
    22  H   -0.154180   0.323601
    23  H   -0.283717   0.447944
    24  H   -0.197060   0.363863
    25  H   -0.192383   0.319098
    26  H   -0.426670   0.564668
    27  H   -0.334085   0.491353
 Sum of Mulliken charges =  -1.00000   1.00000

 Dipole moment (field-independent basis, Debye):
    X=             -1.1249    Y=             -4.3556    Z=              1.2156  Tot=              4.6599
 Quadrupole moment (field-independent basis, Debye-Ang):
   XX=           -144.8516   YY=           -121.2644   ZZ=           -106.9460
   XY=             -2.3101   XZ=              0.3649   YZ=             -2.4428

 Summary of Natural Population Analysis:

                                       Natural Population
                Natural  -----------------------------------------------
    Atom  No    Charge         Core      Valence    Rydberg      Total
 -----------------------------------------------------------------------
      C    1   -0.28636      0.99967     2.27979    0.00690     3.28636
      C    2   -0.24387      0.99959     2.23599    0.00830     3.24387
      C    3    0.30640      0.99965     1.67175    0.02220     2.69360
      O    4   -0.28268      0.99987     3.27678    0.00602     4.28268
      C    5    0.02727      0.99950     1.95745    0.01578     2.97273
      C    6   -0.19905      0.99959     2.18716    0.01230     3.19905
      C    7   -0.25279      0.99958     2.24274    0.01046     3.25279
      S    8    0.08120      4.99965     2.89955    0.01960     7.91880
      C    9   -0.35048      0.99963     2.34437    0.00648     3.35048
      O   10   -0.30492      0.99988     3.29521    0.00983     4.30492
      C   11   -0.09576      0.99961     2.08692    0.00924     3.09576
      H   12    0.09809      0.00000     0.40110    0.00081     0.40191
      H   13    0.09512      0.00000     0.40416    0.00072     0.40488
      H   14    0.10313      0.00000     0.39605    0.00082     0.39687
      H   15    0.10808      0.00000     0.39055    0.00137     0.39192
      H   16    0.11452      0.00000     0.38307    0.00241     0.38548
      H   17    0.09773      0.00000     0.39997    0.00230     0.40227
      H   18    0.10329      0.00000     0.39494    0.00176     0.39671
      H   19    0.10713      0.00000     0.39151    0.00135     0.39287
      H   20    0.10500      0.00000     0.39395    0.00105     0.39500
      H   21    0.10605      0.00000     0.39206    0.00189     0.39395
      H   22    0.10108      0.00000     0.39724    0.00168     0.39892
      H   23    0.10369      0.00000     0.39415    0.00216     0.39631
      H   24    0.10612      0.00000     0.39265    0.00123     0.39388
      H   25    0.07846      0.00000     0.41920    0.00234     0.42154
      H   26    0.08211      0.00000     0.41561    0.00228     0.41789
      H   27    0.09142      0.00000     0.40723    0.00135     0.40858
 =======================================================================
   * Total *    0.00000     14.99620    32.85116    0.15263    48.00000

 Normal termination of Gaussian 16 at Tue Dec  8 20:05:15 2020.
