 Gaussian 16, Revision A.03,

 -----------------------------------------------------------
 # opt freq B3LYP/6-31G(d) empiricaldispersion=gd3bj scf=xqc
 -----------------------------------------------------------

 -------------------------------
 CID_130615836_JID_3036_neutraal
 -------------------------------
 Symbolic Z-matrix:
 Charge =  0 Multiplicity = 1

 SCF Done:  E(RB3LYP) =  -592.699332561     A.U. after   14 cycles
 SCF Done:  E(RB3LYP) =  -592.704000877     A.U. after   12 cycles
 SCF Done:  E(RB3LYP) =  -592.704807979     A.U. after   11 cycles
 SCF Done:  E(RB3LYP) =  -592.705010628     A.U. after   11 cycles
 SCF Done:  E(RB3LYP) =  -592.705134217     A.U. after   10 cycles
 SCF Done:  E(RB3LYP) =  -592.705158251     A.U. after    9 cycles
 SCF Done:  E(RB3LYP) =  -592.705164650     A.U. after    9 cycles
 SCF Done:  E(RB3LYP) =  -592.705166179     A.U. after    8 cycles
 SCF Done:  E(RB3LYP) =  -592.705167526     A.U. after    8 cycles
 SCF Done:  E(RB3LYP) =  -592.705167741     A.U. after    7 cycles
 Optimization completed.
    -- Stationary point found.
 Normal termination of Gaussian 16 at Wed Dec  9 22:21:47 2020.

 --------------------------------------------------------------------
 #N Geom=AllCheck Guess=TCheck SCRF=Check GenChk RB3LYP/6-31G(d) Freq
 --------------------------------------------------------------------

 Structure from the checkpoint file:  "JID_3036.chk"
 -------------------------------
 CID_130615836_JID_3036_neutraal
 -------------------------------
 Charge =  0 Multiplicity = 1

 SCF Done:  E(RB3LYP) =  -592.705167741     A.U. after    1 cycles

  Exact polarizability: 123.962  11.357 116.105  -8.402  -1.641  99.332
 Approx polarizability: 155.093  20.907 171.075 -20.936  -5.953 155.816

                      1                      2                      3
                      A                      A                      A
 Frequencies --     37.9604                72.8476                77.7332
 Red. masses --      4.6376                 4.0432                 2.8872
 Frc consts  --      0.0039                 0.0126                 0.0103
 IR Inten    --      0.4836                 7.2415                 0.3342

                      4                      5                      6
                      A                      A                      A
 Frequencies --     92.5586               111.5059               144.9045
 Red. masses --      3.7394                 3.3876                 2.4984
 Frc consts  --      0.0189                 0.0248                 0.0309
 IR Inten    --      4.6180                 0.7911                 1.6308

                      7                      8                      9
                      A                      A                      A
 Frequencies --    173.8702               231.9915               314.5596
 Red. masses --      2.1161                 3.2145                 2.3993
 Frc consts  --      0.0377                 0.1019                 0.1399
 IR Inten    --      0.8436                 1.9644                 5.0147

                     10                     11                     12
                      A                      A                      A
 Frequencies --    343.5770               355.0975               357.2017
 Red. masses --      3.2269                 2.6269                 3.3551
 Frc consts  --      0.2244                 0.1952                 0.2522
 IR Inten    --      5.0712                 1.1054                 1.6846

                     13                     14                     15
                      A                      A                      A
 Frequencies --    391.4421               436.2607               458.2879
 Red. masses --      1.4044                 1.8218                 2.0961
 Frc consts  --      0.1268                 0.2043                 0.2594
 IR Inten    --     29.4470                22.0005                 2.6891

                     16                     17                     18
                      A                      A                      A
 Frequencies --    466.3156               504.1649               550.0249
 Red. masses --      1.8993                 2.6252                 1.9015
 Frc consts  --      0.2433                 0.3931                 0.3389
 IR Inten    --      2.5241                 1.9328                21.3829

                     19                     20                     21
                      A                      A                      A
 Frequencies --    591.5341               602.8081               629.3756
 Red. masses --      2.5624                 1.8413                 2.3453
 Frc consts  --      0.5283                 0.3942                 0.5474
 IR Inten    --     26.1590               109.7692                31.1262

                     22                     23                     24
                      A                      A                      A
 Frequencies --    699.6456               753.4846               769.9743
 Red. masses --      1.9476                 1.6372                 2.9232
 Frc consts  --      0.5617                 0.5477                 1.0211
 IR Inten    --      1.4955                 8.3648                 9.2751

                     25                     26                     27
                      A                      A                      A
 Frequencies --    780.9819               792.6280               888.9740
 Red. masses --      5.9158                 2.0895                 2.6744
 Frc consts  --      2.1259                 0.7734                 1.2452
 IR Inten    --     59.5814                 4.7068                 3.2151

                     28                     29                     30
                      A                      A                      A
 Frequencies --    922.2990               936.2771               945.6491
 Red. masses --      1.7469                 2.2182                 1.3979
 Frc consts  --      0.8755                 1.1457                 0.7365
 IR Inten    --      5.6046                18.7232                23.8901

                     31                     32                     33
                      A                      A                      A
 Frequencies --    951.4443               979.9183              1016.6220
 Red. masses --      2.0907                 1.9403                 1.9354
 Frc consts  --      1.1151                 1.0977                 1.1785
 IR Inten    --     31.6417                 1.6913                 3.2583

                     34                     35                     36
                      A                      A                      A
 Frequencies --   1037.9715              1044.2055              1079.9692
 Red. masses --      1.1797                 2.2644                 2.4454
 Frc consts  --      0.7488                 1.4547                 1.6804
 IR Inten    --     14.8011                 3.6333                12.4278

                     37                     38                     39
                      A                      A                      A
 Frequencies --   1089.7424              1114.3211              1124.5671
 Red. masses --      2.3558                 1.8346                 2.3086
 Frc consts  --      1.6483                 1.3422                 1.7201
 IR Inten    --     47.9755                35.3143                19.7368

                     40                     41                     42
                      A                      A                      A
 Frequencies --   1161.2416              1169.3986              1205.2783
 Red. masses --      2.0786                 1.8492                 2.3826
 Frc consts  --      1.6514                 1.4899                 2.0393
 IR Inten    --     28.9971                 5.7733                 8.8621

                     43                     44                     45
                      A                      A                      A
 Frequencies --   1229.1325              1266.8000              1299.2839
 Red. masses --      2.3735                 1.1781                 1.3242
 Frc consts  --      2.1127                 1.1139                 1.3170
 IR Inten    --     13.9477                 6.9856                 0.8301

                     46                     47                     48
                      A                      A                      A
 Frequencies --   1316.7011              1330.7867              1344.7482
 Red. masses --      1.4689                 1.2723                 1.4882
 Frc consts  --      1.5005                 1.3276                 1.5856
 IR Inten    --     29.2278                 2.5603                16.8337

                     49                     50                     51
                      A                      A                      A
 Frequencies --   1360.5751              1370.8602              1380.1401
 Red. masses --      1.4199                 1.3483                 1.2485
 Frc consts  --      1.5487                 1.4929                 1.4012
 IR Inten    --     20.6047                38.0849                36.2579

                     52                     53                     54
                      A                      A                      A
 Frequencies --   1393.8145              1400.5810              1415.9531
 Red. masses --      1.3034                 1.4003                 1.3354
 Frc consts  --      1.4919                 1.6184                 1.5774
 IR Inten    --      2.8595                30.4259                13.5342

                     55                     56                     57
                      A                      A                      A
 Frequencies --   1424.8092              1446.8193              1470.7218
 Red. masses --      1.3392                 1.3662                 1.9860
 Frc consts  --      1.6018                 1.6849                 2.5310
 IR Inten    --     26.8279                15.8104               151.4442

                     58                     59                     60
                      A                      A                      A
 Frequencies --   1475.9120              1500.7601              1505.4717
 Red. masses --      1.1850                 1.0785                 1.0931
 Frc consts  --      1.5209                 1.4312                 1.4597
 IR Inten    --      4.8158                 0.9032                 7.0967

                     61                     62                     63
                      A                      A                      A
 Frequencies --   1511.9357              1517.2973              1537.4860
 Red. masses --      1.0875                 1.0938                 1.1470
 Frc consts  --      1.4646                 1.4837                 1.5975
 IR Inten    --      3.6950                 6.8447                34.0488

                     64                     65                     66
                      A                      A                      A
 Frequencies --   1540.8863              1656.0894              1729.7797
 Red. masses --      1.1990                 1.2208                 4.4219
 Frc consts  --      1.6774                 1.9727                 7.7955
 IR Inten    --     42.6967               157.0539                 2.1021

                     67                     68                     69
                      A                      A                      A
 Frequencies --   1783.5716              2978.6597              2997.2411
 Red. masses --      6.6449                 1.0701                 1.0695
 Frc consts  --     12.4543                 5.5939                 5.6607
 IR Inten    --    296.5268                31.7380                35.1235

                     70                     71                     72
                      A                      A                      A
 Frequencies --   3035.7229              3050.7771              3063.2167
 Red. masses --      1.0601                 1.0657                 1.0651
 Frc consts  --      5.7562                 5.8439                 5.8882
 IR Inten    --     32.3852                24.9766                26.6995

                     73                     74                     75
                      A                      A                      A
 Frequencies --   3073.9171              3081.9273              3083.8959
 Red. masses --      1.0974                 1.0898                 1.0917
 Frc consts  --      6.1095                 6.0987                 6.1174
 IR Inten    --      8.3179                61.6797                54.3313

                     76                     77                     78
                      A                      A                      A
 Frequencies --   3089.2375              3107.9237              3109.6656
 Red. masses --      1.0662                 1.1047                 1.0976
 Frc consts  --      5.9953                 6.2869                 6.2534
 IR Inten    --     23.7906                24.9511                35.6577

                     79                     80                     81
                      A                      A                      A
 Frequencies --   3141.7803              3147.2609              3156.0185
 Red. masses --      1.1060                 1.0640                 1.0861
 Frc consts  --      6.4324                 6.2093                 6.3737
 IR Inten    --     23.4650                24.3369                 4.2453

                     82                     83                     84
                      A                      A                      A
 Frequencies --   3231.4814              3561.2872              3669.6207
 Red. masses --      1.1152                 1.0475                 1.0990
 Frc consts  --      6.8612                 7.8272                 8.7197
 IR Inten    --     19.9757                16.5141                21.2243

 - Thermochemistry -
 -------------------
 Temperature   298.150 Kelvin.  Pressure   1.00000 Atm.
 Atom     1 has atomic number  6 and mass  12.00000

 Molecular mass:   183.13716 amu.
 Principal axes and moments of inertia in atomic units:
                           1         2         3
     Eigenvalues --  1313.817243651.151584085.59574
           X            0.99994   0.00793   0.00811
           Y           -0.00777   0.99978  -0.01974
           Z           -0.00826   0.01967   0.99977
 This molecule is an asymmetric top.
 Rotational symmetry number  1.
 Warning -- assumption of classical behavior for rotation
           may cause significant error
 Rotational temperatures (Kelvin)      0.06593     0.02372     0.02120
 Rotational constants (GHZ):           1.37366     0.49429     0.44173
 Zero-point vibrational energy     701006.7 (Joules/Mol)
                                  167.54462 (Kcal/Mol)
 Warning -- explicit consideration of  20 degrees of freedom as
           vibrations may cause significant error
 Vibrational temperatures:     54.62   104.81   111.84   133.17   160.43
          (Kelvin)            208.49   250.16   333.78   452.58   494.33
                              510.91   513.93   563.20   627.68   659.37
                              670.92   725.38   791.36   851.09   867.31
                              905.53  1006.63  1084.10  1107.82  1123.66
                             1140.41  1279.04  1326.98  1347.09  1360.58
                             1368.92  1409.88  1462.69  1493.41  1502.38
                             1553.83  1567.90  1603.26  1618.00  1670.77
                             1682.50  1734.13  1768.45  1822.64  1869.38
                             1894.44  1914.71  1934.79  1957.56  1972.36
                             1985.71  2005.39  2015.12  2037.24  2049.98
                             2081.65  2116.04  2123.51  2159.26  2166.04
                             2175.34  2183.05  2212.10  2216.99  2382.74
                             2488.77  2566.16  4285.63  4312.36  4367.73
                             4389.39  4407.29  4422.68  4434.21  4437.04
                             4444.72  4471.61  4474.12  4520.32  4528.21
                             4540.81  4649.38  5123.90  5279.77

 Zero-point correction=                           0.266999 (Hartree/Particle)
 Thermal correction to Energy=                    0.280111
 Thermal correction to Enthalpy=                  0.281055
 Thermal correction to Gibbs Free Energy=         0.227002
 Sum of electronic and zero-point Energies=           -592.438168
 Sum of electronic and thermal Energies=              -592.425057
 Sum of electronic and thermal Enthalpies=            -592.424113
 Sum of electronic and thermal Free Energies=         -592.478166

                     E (Thermal)             CV                S
                      KCal/Mol        Cal/Mol-Kelvin    Cal/Mol-Kelvin
 Total                  175.772             50.240            113.765
 Electronic               0.000              0.000              0.000
 Translational            0.889              2.981             41.522
 Rotational               0.889              2.981             31.350
 Vibrational            173.995             44.279             40.893
 Vibration     1          0.594              1.982              5.363
 Vibration     2          0.599              1.967              4.075
 Vibration     3          0.599              1.964              3.947
 Vibration     4          0.602              1.954              3.605
 Vibration     5          0.607              1.940              3.243
 Vibration     6          0.616              1.908              2.738
 Vibration     7          0.627              1.875              2.393
 Vibration     8          0.653              1.792              1.863
 Vibration     9          0.702              1.646              1.338
 Vibration    10          0.722              1.588              1.195
 Vibration    11          0.731              1.565              1.143
 Vibration    12          0.732              1.560              1.134
 Vibration    13          0.759              1.488              0.995
 Vibration    14          0.797              1.391              0.838
 Vibration    15          0.816              1.343              0.771
 Vibration    16          0.824              1.325              0.748
 Vibration    17          0.859              1.241              0.648
 Vibration    18          0.905              1.140              0.544
 Vibration    19          0.949              1.050              0.464
 Vibration    20          0.961              1.026              0.445

                           ! Non-Optimized Parameters !
 Normal termination of Gaussian 16 at Wed Dec  9 22:29:59 2020.

 ----------------------------------------------------------------------
 # B3LYP/6-311++G(d,p) empiricaldispersion=gd3bj scf=xqc pop=npa geom=c
 heck
 ----------------------------------------------------------------------

 ---------------------------------------
 CID_130615836_JID_3036_Energie_neutraal
 ---------------------------------------
 Structure from the checkpoint file:  "JID_3036.chk"
 Charge =  0 Multiplicity = 1

 SCF Done:  E(RB3LYP) =  -592.882429968     A.U. after   14 cycles
 Normal termination of Gaussian 16 at Wed Dec  9 22:32:54 2020.

 ----------------------------------------------------------------------
 # B3LYP/6-311++G(d,p) empiricaldispersion=gd3bj scf=xqc pop=npa geom=c
 heck
 ----------------------------------------------------------------------

 -------------------------------------
 CID_130615836_JID_3036_Energie_kation
 -------------------------------------
 Structure from the checkpoint file:  "JID_3036.chk"
 Charge =  1 Multiplicity = 2

 SCF Done:  E(UB3LYP) =  -592.593992169     A.U. after   21 cycles
 Normal termination of Gaussian 16 at Wed Dec  9 22:38:53 2020.
 Gaussian 16:  ES64L-G16RevA.03 25-Dec-2016

 ----------------------------------------------------------------------
 # B3LYP/6-311++G(d,p) empiricaldispersion=gd3bj scf=xqc pop=npa geom=c
 heck
 ----------------------------------------------------------------------

 ------------------------------------
 CID_130615836_JID_3036_Energie_anion
 ------------------------------------
 Structure from the checkpoint file:  "JID_3036.chk"
 Charge = -1 Multiplicity = 2

                         Standard orientation:
 ---------------------------------------------------------------------
 Center     Atomic      Atomic             Coordinates (Angstroms)
 Number     Number       Type             X           Y           Z
 ---------------------------------------------------------------------
      1          6           0       -4.111299   -1.175094   -0.495832
      2          6           0       -3.247035   -0.189079   -0.734798
      3          6           0       -2.630213    0.681208    0.334293
      4          7           0       -1.167533    0.596544    0.441431
      5          6           0       -0.457877    1.166271   -0.716919
      6          6           0        0.750724    2.031579   -0.338716
      7          6           0        1.677953    1.387831    0.709805
      8          7           0        1.703521   -0.076752    0.682525
      9          6           0        0.657064   -0.748035    1.450130
     10          6           0       -0.713304   -0.755158    0.767542
     11          6           0        2.347579   -0.655549   -0.391006
     12          8           0        2.945410    0.005068   -1.235806
     13          7           0        2.257535   -2.045000   -0.490440
     14          1           0       -4.448548   -1.400635    0.514551
     15          1           0       -4.523568   -1.788823   -1.292356
     16          1           0       -2.927297    0.006408   -1.758821
     17          1           0       -2.879573    1.734514    0.151182
     18          1           0       -3.060382    0.418099    1.308765
     19          1           0       -1.156042    1.788320   -1.287842
     20          1           0       -0.128892    0.366761   -1.399627
     21          1           0        1.318045    2.229771   -1.253433
     22          1           0        0.405046    2.995214    0.055712
     23          1           0        2.699093    1.749018    0.571235
     24          1           0        1.351720    1.666738    1.714918
     25          1           0        0.577945   -0.225642    2.408729
     26          1           0        0.951881   -1.777887    1.676971
     27          1           0       -1.433785   -1.207355    1.459422
     28          1           0       -0.670440   -1.405045   -0.123513
     29          1           0        2.243335   -2.581251    0.367487
     30          1           0        2.921974   -2.396142   -1.168530
 ---------------------------------------------------------------------

 SCF Done:  E(UB3LYP) =  -592.868897063     A.U. after   33 cycles
 SCF Done:  E(UB3LYP) =  -592.868897063     a.u. after    1 cycles

 The electronic state is 2-A.
 Alpha  occ. eigenvalues --  -18.97520 -14.23105 -14.21421 -14.20773 -10.18646
 Alpha  occ. eigenvalues --  -10.10203 -10.09992 -10.09950 -10.09594 -10.08869
 Alpha  occ. eigenvalues --  -10.08214 -10.07440 -10.06691  -0.94177  -0.84354
 Alpha  occ. eigenvalues --   -0.81809  -0.78516  -0.69278  -0.68321  -0.63284
 Alpha  occ. eigenvalues --   -0.59730  -0.56867  -0.53604  -0.48826  -0.45850
 Alpha  occ. eigenvalues --   -0.44783  -0.43605  -0.40161  -0.38705  -0.38604
 Alpha  occ. eigenvalues --   -0.37216  -0.36598  -0.34115  -0.33664  -0.32751
 Alpha  occ. eigenvalues --   -0.32049  -0.31338  -0.28823  -0.28521  -0.27484
 Alpha  occ. eigenvalues --   -0.26770  -0.26015  -0.25544  -0.24454  -0.23328
 Alpha  occ. eigenvalues --   -0.17761  -0.17587  -0.15791  -0.14069  -0.11919
 Alpha  occ. eigenvalues --    0.04576
 Alpha virt. eigenvalues --    0.06447   0.07352   0.07439   0.08380   0.08864
 Alpha virt. eigenvalues --    0.09460   0.09830   0.10066   0.10847   0.11729
 Alpha virt. eigenvalues --    0.12139   0.12483   0.12978   0.13597   0.13895

  Beta  occ. eigenvalues --  -18.97513 -14.23102 -14.21356 -14.20767 -10.18644
  Beta  occ. eigenvalues --  -10.10185 -10.09949 -10.09943 -10.09587 -10.08849
  Beta  occ. eigenvalues --  -10.08209 -10.07414 -10.06686  -0.94160  -0.84335
  Beta  occ. eigenvalues --   -0.81788  -0.78420  -0.69255  -0.68291  -0.63245
  Beta  occ. eigenvalues --   -0.59702  -0.56812  -0.53566  -0.48780  -0.45782
  Beta  occ. eigenvalues --   -0.44708  -0.43540  -0.40118  -0.38672  -0.38562
  Beta  occ. eigenvalues --   -0.37179  -0.36573  -0.34076  -0.33623  -0.32725
  Beta  occ. eigenvalues --   -0.32017  -0.31307  -0.28791  -0.28492  -0.27444
  Beta  occ. eigenvalues --   -0.26741  -0.25984  -0.25513  -0.24428  -0.23313
  Beta  occ. eigenvalues --   -0.17731  -0.17553  -0.15744  -0.14043  -0.11882
  Beta virt. eigenvalues --    0.06694   0.07601   0.07916   0.08106   0.08541
  Beta virt. eigenvalues --    0.09138   0.09858   0.10149   0.10846   0.11105
  Beta virt. eigenvalues --    0.11949   0.12312   0.12923   0.13392   0.13809

 Mulliken charges and spin densities:
               1          2
     1  C    0.379243  -0.910583
     2  C   -0.968088   1.360941
     3  C    1.074123  -1.634924
     4  N    0.018821   0.139839
     5  C    0.145018  -0.260552
     6  C   -0.736156   0.095733
     7  C    0.331907  -0.500819
     8  N   -0.241206   0.299462
     9  C    2.456070  -3.128319
    10  C   -1.398683   1.317892
    11  C    0.284765  -0.302966
    12  O   -0.382525   0.014311
    13  N   -0.398224   0.040792
    14  H   -0.366099   0.491080
    15  H   -0.021438   0.133260
    16  H   -0.188721   0.342192
    17  H   -0.109366   0.269271
    18  H   -0.249681   0.427098
    19  H   -0.018801   0.182412
    20  H    0.127502   0.058771
    21  H    0.203579  -0.021480
    22  H    0.046416   0.074925
    23  H    0.143887   0.054581
    24  H    0.067730   0.070648
    25  H   -0.061522   0.225980
    26  H   -0.842346   1.002007
    27  H   -0.256940   0.411201
    28  H    0.372873  -0.213094
    29  H   -0.270398   0.528841
    30  H   -0.141741   0.431502
 Sum of Mulliken charges =  -1.00000   1.00000

 Dipole moment (field-independent basis, Debye):
    X=             -0.8774    Y=              5.8579    Z=             -2.4404  Tot=              6.4063
 Quadrupole moment (field-independent basis, Debye-Ang):
   XX=           -147.5376   YY=           -124.9321   ZZ=           -117.4964
   XY=              7.3963   XZ=              6.4583   YZ=              7.8168

 Summary of Natural Population Analysis:

                                       Natural Population
                Natural  -----------------------------------------------
    Atom  No    Charge         Core      Valence    Rydberg      Total
 -----------------------------------------------------------------------
      C    1   -0.18483      0.99956     2.17843    0.00684     3.18483
      C    2   -0.09581      0.99955     2.08748    0.00877     3.09581
      C    3   -0.09723      0.99959     2.08375    0.01388     3.09723
      N    4   -0.28596      0.99972     2.77294    0.01330     3.78596
      C    5   -0.08615      0.99960     2.07708    0.00946     3.08615
      C    6   -0.19813      0.99962     2.19067    0.00784     3.19813
      C    7   -0.08214      0.99961     2.07107    0.01146     3.08214
      N    8   -0.27124      0.99965     2.75856    0.01303     3.77124
      C    9   -0.08402      0.99959     2.07049    0.01393     3.08402
      C   10   -0.09164      0.99959     2.07951    0.01254     3.09164
      C   11    0.40714      0.99968     1.56947    0.02372     2.59286
      O   12   -0.34609      0.99988     3.34089    0.00532     4.34609
      N   13   -0.41556      0.99972     2.90693    0.00891     3.91556
      H   14    0.09162      0.00000     0.40659    0.00178     0.40838
      H   15    0.09251      0.00000     0.40636    0.00113     0.40749
      H   16    0.09166      0.00000     0.40714    0.00120     0.40834
      H   17    0.09732      0.00000     0.40138    0.00129     0.40268
      H   18    0.09808      0.00000     0.40034    0.00158     0.40192
      H   19    0.09446      0.00000     0.40435    0.00120     0.40554
      H   20    0.09000      0.00000     0.40846    0.00154     0.41000
      H   21    0.10357      0.00000     0.39532    0.00110     0.39643
      H   22    0.09335      0.00000     0.40520    0.00145     0.40665
      H   23    0.10532      0.00000     0.39378    0.00090     0.39468
      H   24    0.09515      0.00000     0.40337    0.00148     0.40485
      H   25    0.09752      0.00000     0.40064    0.00184     0.40248
      H   26    0.10300      0.00000     0.39340    0.00361     0.39700
      H   27    0.10153      0.00000     0.39645    0.00202     0.39847
      H   28    0.08850      0.00000     0.40959    0.00190     0.41150
      H   29    0.19510      0.00000     0.29684    0.00806     0.30490
      H   30    0.19294      0.00000     0.30515    0.00191     0.30706
 =======================================================================
   * Total *   -0.00000     12.99536    36.82162    0.18302    50.00000

 Normal termination of Gaussian 16 at Wed Dec  9 22:49:02 2020.
