 Gaussian 16, Revision A.03,

 -----------------------------------------------------------
 # opt freq B3LYP/6-31G(d) empiricaldispersion=gd3bj scf=xqc
 -----------------------------------------------------------

 -------------------------------
 CID_21803053_JID_10470_neutraal
 -------------------------------
 Symbolic Z-matrix:
 Charge =  0 Multiplicity = 1

 SCF Done:  E(RB3LYP) =  -894.095950050     A.U. after   16 cycles
 SCF Done:  E(RB3LYP) =  -894.097999856     A.U. after   15 cycles
 SCF Done:  E(RB3LYP) =  -894.098267315     A.U. after   15 cycles
 SCF Done:  E(RB3LYP) =  -894.102825543     A.U. after   15 cycles
 SCF Done:  E(RB3LYP) =  -894.100186341     A.U. after   15 cycles
 SCF Done:  E(RB3LYP) =  -894.103559790     A.U. after   13 cycles
 SCF Done:  E(RB3LYP) =  -894.103768436     A.U. after   14 cycles
 SCF Done:  E(RB3LYP) =  -894.103858312     A.U. after   13 cycles
 SCF Done:  E(RB3LYP) =  -894.103884455     A.U. after   12 cycles
 SCF Done:  E(RB3LYP) =  -894.103912428     A.U. after   13 cycles
 SCF Done:  E(RB3LYP) =  -894.105271350     A.U. after   13 cycles
 SCF Done:  E(RB3LYP) =  -894.105280963     A.U. after   13 cycles
 SCF Done:  E(RB3LYP) =  -894.105284503     A.U. after   12 cycles
 SCF Done:  E(RB3LYP) =  -894.105285719     A.U. after   12 cycles
 SCF Done:  E(RB3LYP) =  -894.105285995     A.U. after    9 cycles
 SCF Done:  E(RB3LYP) =  -894.105286036     A.U. after    7 cycles
 Optimization completed.
    -- Stationary point found.
 Normal termination of Gaussian 16 at Mon Dec 14 14:12:35 2020.

 --------------------------------------------------------------------
 #N Geom=AllCheck Guess=TCheck SCRF=Check GenChk RB3LYP/6-31G(d) Freq
 --------------------------------------------------------------------

 Structure from the checkpoint file:  "JID_10470.chk"
 -------------------------------
 CID_21803053_JID_10470_neutraal
 -------------------------------
 Charge =  0 Multiplicity = 1

 SCF Done:  E(RB3LYP) =  -894.105286036     A.U. after    1 cycles

  Exact polarizability: 248.213  -6.335 139.403  10.902  21.482 137.405
 Approx polarizability: 370.471 -26.329 230.636  17.428  53.939 255.561

                      1                      2                      3
                      A                      A                      A
 Frequencies --     16.0918                32.9914                39.2567
 Red. masses --      5.7513                10.3730                 5.1217
 Frc consts  --      0.0009                 0.0067                 0.0047
 IR Inten    --      1.0333                 0.0187                 0.6972

                      4                      5                      6
                      A                      A                      A
 Frequencies --     63.5698                84.7529               101.4023
 Red. masses --      5.2771                 5.9763                 6.1559
 Frc consts  --      0.0126                 0.0253                 0.0373
 IR Inten    --      0.4804                 2.9501                 2.7443

                      7                      8                      9
                      A                      A                      A
 Frequencies --    154.8796               169.5619               210.3848
 Red. masses --      5.8622                 6.1122                 5.6123
 Frc consts  --      0.0829                 0.1035                 0.1464
 IR Inten    --      3.4290                 2.5338                 3.5367

                     10                     11                     12
                      A                      A                      A
 Frequencies --    233.6587               245.8781               282.5219
 Red. masses --      3.6977                 4.0183                 5.3056
 Frc consts  --      0.1189                 0.1431                 0.2495
 IR Inten    --      1.0154                 4.2489                 0.2597

                     13                     14                     15
                      A                      A                      A
 Frequencies --    344.6486               371.0077               417.6053
 Red. masses --      4.5962                 5.3716                 3.0290
 Frc consts  --      0.3217                 0.4356                 0.3112
 IR Inten    --      0.2059                 3.2292                 0.0823

                     16                     17                     18
                      A                      A                      A
 Frequencies --    441.5473               460.1256               493.3433
 Red. masses --      4.1626                 4.1399                 3.8174
 Frc consts  --      0.4782                 0.5164                 0.5474
 IR Inten    --      0.0288                 1.4338                12.5935

                     19                     20                     21
                      A                      A                      A
 Frequencies --    552.1108               580.2644               594.5230
 Red. masses --      3.4814                 5.7938                 4.5388
 Frc consts  --      0.6252                 1.1494                 0.9452
 IR Inten    --      5.7301                 3.7662                 7.9967

                     22                     23                     24
                      A                      A                      A
 Frequencies --    604.7994               614.6758               624.5141
 Red. masses --      4.0983                 4.5900                 5.1975
 Frc consts  --      0.8832                 1.0218                 1.1944
 IR Inten    --      2.9627                 9.3932                15.7193

                     25                     26                     27
                      A                      A                      A
 Frequencies --    639.2934               651.7855               712.1052
 Red. masses --      6.3197                 4.9294                 4.0342
 Frc consts  --      1.5218                 1.2338                 1.2053
 IR Inten    --      3.1723                 5.3126                 8.8665

                     28                     29                     30
                      A                      A                      A
 Frequencies --    718.6120               732.6688               764.1410
 Red. masses --      2.2241                 1.3031                 1.8542
 Frc consts  --      0.6767                 0.4121                 0.6379
 IR Inten    --     24.5092                38.2637                14.9226

                     31                     32                     33
                      A                      A                      A
 Frequencies --    787.4462               791.6158               802.1129
 Red. masses --      3.1468                 2.3802                 4.1761
 Frc consts  --      1.1497                 0.8788                 1.5830
 IR Inten    --     11.7490                20.5112                 1.2902

                     34                     35                     36
                      A                      A                      A
 Frequencies --    816.7171               850.4436               866.2106
 Red. masses --      2.5578                 4.4771                 1.2724
 Frc consts  --      1.0052                 1.9078                 0.5625
 IR Inten    --     16.1472                19.5544                 0.1745

                     37                     38                     39
                      A                      A                      A
 Frequencies --    869.2463               913.6534               923.1994
 Red. masses --      1.3149                 5.4787                 2.8725
 Frc consts  --      0.5854                 2.6946                 1.4425
 IR Inten    --      0.5274                 6.9101                11.5963

                     40                     41                     42
                      A                      A                      A
 Frequencies --    941.8474               949.4380               971.5616
 Red. masses --      1.3803                 1.8884                 1.3024
 Frc consts  --      0.7214                 1.0029                 0.7243
 IR Inten    --      0.3365                 6.4461                 0.9925

                     43                     44                     45
                      A                      A                      A
 Frequencies --    978.2548              1001.4307              1003.8478
 Red. masses --      1.3439                 1.9991                 1.4828
 Frc consts  --      0.7577                 1.1812                 0.8804
 IR Inten    --      0.1842                14.3445                 4.1162

                     46                     47                     48
                      A                      A                      A
 Frequencies --   1023.0031              1042.6062              1070.1399
 Red. masses --      5.8536                 3.0388                 2.3593
 Frc consts  --      3.6093                 1.9462                 1.5919
 IR Inten    --      0.6531                 7.1093                 0.3224

                     49                     50                     51
                      A                      A                      A
 Frequencies --   1072.4396              1077.1674              1124.5721
 Red. masses --      2.0144                 1.6760                 1.6901
 Frc consts  --      1.3650                 1.1458                 1.2594
 IR Inten    --      0.9229                 5.3680                 1.3753

                     52                     53                     54
                      A                      A                      A
 Frequencies --   1136.7778              1151.5793              1197.4076
 Red. masses --      1.8434                 1.4213                 1.1000
 Frc consts  --      1.4035                 1.1105                 0.9292
 IR Inten    --      3.8340                 7.1644                 0.0889

                     55                     56                     57
                      A                      A                      A
 Frequencies --   1225.5038              1231.7020              1235.8028
 Red. masses --      1.8133                 1.2338                 2.1484
 Frc consts  --      1.6045                 1.1028                 1.9331
 IR Inten    --      4.7426                 3.2738                 1.5455

                     58                     59                     60
                      A                      A                      A
 Frequencies --   1238.9953              1272.4843              1320.5147
 Red. masses --      1.4916                 1.4251                 2.4285
 Frc consts  --      1.3491                 1.3595                 2.4950
 IR Inten    --     13.0607                49.2086                19.8886

                     61                     62                     63
                      A                      A                      A
 Frequencies --   1336.9520              1351.2380              1360.3311
 Red. masses --      2.1146                 2.6796                 3.9596
 Frc consts  --      2.2270                 2.8826                 4.3171
 IR Inten    --     14.9269                92.1798                11.1285

                     64                     65                     66
                      A                      A                      A
 Frequencies --   1381.4985              1384.3406              1393.0690
 Red. masses --      1.5184                 1.6886                 2.5272
 Frc consts  --      1.7074                 1.9067                 2.8896
 IR Inten    --      5.1275                 7.7846                 4.6590

                     67                     68                     69
                      A                      A                      A
 Frequencies --   1409.4963              1435.9229              1457.2437
 Red. masses --      1.8566                 7.6783                 2.4030
 Frc consts  --      2.1732                 9.3278                 3.0066
 IR Inten    --      9.1057               109.0009                48.0583

                     70                     71                     72
                      A                      A                      A
 Frequencies --   1476.4252              1493.0533              1501.3317
 Red. masses --      2.2977                 1.1665                 2.2502
 Frc consts  --      2.9509                 1.5321                 2.9883
 IR Inten    --     70.0393                26.7160                13.7006

                     73                     74                     75
                      A                      A                      A
 Frequencies --   1530.8359              1554.1867              1560.6517
 Red. masses --      3.0348                 2.1807                 4.6001
 Frc consts  --      4.1902                 3.1035                 6.6013
 IR Inten    --     25.9205                12.6408                38.6779

                     76                     77                     78
                      A                      A                      A
 Frequencies --   1628.9382              1647.8699              1652.4548
 Red. masses --      6.4429                 5.5324                 6.6237
 Frc consts  --     10.0725                 8.8514                10.6564
 IR Inten    --     15.8982                 2.5869                32.5273

                     79                     80                     81
                      A                      A                      A
 Frequencies --   1670.0775              1671.0321              3044.7810
 Red. masses --      7.8093                 6.3800                 1.0822
 Frc consts  --     12.8333                10.4963                 5.9114
 IR Inten    --    155.2871                86.0930                10.5031

                     82                     83                     84
                      A                      A                      A
 Frequencies --   3118.4150              3181.1309              3183.6995
 Red. masses --      1.0616                 1.0885                 1.1054
 Frc consts  --      6.0825                 6.4897                 6.6011
 IR Inten    --      1.1609                17.3179                 3.1558

                     85                     86                     87
                      A                      A                      A
 Frequencies --   3188.5339              3194.9866              3197.5370
 Red. masses --      1.0853                 1.0898                 1.0884
 Frc consts  --      6.5012                 6.5544                 6.5562
 IR Inten    --      0.4852                15.3307                 5.2964

                     88                     89                     90
                      A                      A                      A
 Frequencies --   3206.9428              3214.3066              3215.9157
 Red. masses --      1.0920                 1.0951                 1.0959
 Frc consts  --      6.6168                 6.6664                 6.6779
 IR Inten    --     24.3332                20.8905                30.4258

                     91                     92                     93
                      A                      A                      A
 Frequencies --   3221.7654              3265.9080              3314.8759
 Red. masses --      1.0950                 1.0940                 1.0995
 Frc consts  --      6.6966                 6.8750                 7.1183
 IR Inten    --      9.3015                 4.4971                 0.7151

 - Thermochemistry -
 -------------------
 Temperature   298.150 Kelvin.  Pressure   1.00000 Atm.
 Atom     1 has atomic number  6 and mass  12.00000

 Molecular mass:   267.10078 amu.
 Principal axes and moments of inertia in atomic units:
                           1         2         3
     Eigenvalues --  3139.198507334.861588710.02710
           X            0.99994   0.01047  -0.00144
           Y           -0.01043   0.99952   0.02913
           Z            0.00175  -0.02912   0.99957
 This molecule is an asymmetric top.
 Rotational symmetry number  1.
 Warning -- assumption of classical behavior for rotation
           may cause significant error
 Rotational temperatures (Kelvin)      0.02759     0.01181     0.00994
 Rotational constants (GHZ):           0.57491     0.24605     0.20720
 Zero-point vibrational energy     683583.2 (Joules/Mol)
                                  163.38031 (Kcal/Mol)
 Warning -- explicit consideration of  23 degrees of freedom as
           vibrations may cause significant error
 Vibrational temperatures:     23.15    47.47    56.48    91.46   121.94
          (Kelvin)            145.90   222.84   243.96   302.70   336.18
                              353.76   406.49   495.87   533.80   600.84
                              635.29   662.02   709.81   794.36   834.87
                              855.39   870.17   884.38   898.54   919.80
                              937.77  1024.56  1033.92  1054.15  1099.43
                             1132.96  1138.96  1154.06  1175.07  1223.60
                             1246.28  1250.65  1314.54  1328.28  1355.11
                             1366.03  1397.86  1407.49  1440.84  1444.31
                             1471.87  1500.08  1539.69  1543.00  1549.80
                             1618.01  1635.57  1656.87  1722.80  1763.23
                             1772.14  1778.04  1782.64  1830.82  1899.93
                             1923.58  1944.13  1957.21  1987.67  1991.76
                             2004.32  2027.95  2065.97  2096.65  2124.25
                             2148.17  2160.08  2202.53  2236.13  2245.43
                             2343.68  2370.92  2377.51  2402.87  2404.24
                             4380.76  4486.70  4576.94  4580.63  4587.59
                             4596.87  4600.54  4614.08  4624.67  4626.99
                             4635.40  4698.91  4769.37

 Zero-point correction=                           0.260363 (Hartree/Particle)
 Thermal correction to Energy=                    0.276047
 Thermal correction to Enthalpy=                  0.276991
 Thermal correction to Gibbs Free Energy=         0.214581
 Sum of electronic and zero-point Energies=           -893.844923
 Sum of electronic and thermal Energies=              -893.829239
 Sum of electronic and thermal Enthalpies=            -893.828295
 Sum of electronic and thermal Free Energies=         -893.890705

                     E (Thermal)             CV                S
                      KCal/Mol        Cal/Mol-Kelvin    Cal/Mol-Kelvin
 Total                  173.222             61.283            131.354
 Electronic               0.000              0.000              0.000
 Translational            0.889              2.981             42.647
 Rotational               0.889              2.981             33.661
 Vibrational            171.445             55.322             55.047
 Vibration     1          0.593              1.986              7.066
 Vibration     2          0.594              1.983              5.641
 Vibration     3          0.594              1.981              5.296
 Vibration     4          0.597              1.972              4.343
 Vibration     5          0.601              1.960              3.778
 Vibration     6          0.604              1.948              3.427
 Vibration     7          0.620              1.897              2.611
 Vibration     8          0.625              1.880              2.440
 Vibration     9          0.643              1.825              2.040
 Vibration    10          0.654              1.789              1.851
 Vibration    11          0.660              1.770              1.760
 Vibration    12          0.682              1.706              1.518
 Vibration    13          0.723              1.586              1.191
 Vibration    14          0.743              1.532              1.076
 Vibration    15          0.781              1.432              0.900
 Vibration    16          0.801              1.380              0.822
 Vibration    17          0.818              1.338              0.766
 Vibration    18          0.849              1.265              0.675
 Vibration    19          0.907              1.135              0.540
 Vibration    20          0.937              1.074              0.485
 Vibration    21          0.952              1.043              0.459
 Vibration    22          0.963              1.022              0.441
 Vibration    23          0.974              1.001              0.425

                           ! Non-Optimized Parameters !
 Normal termination of Gaussian 16 at Mon Dec 14 14:29:09 2020.

 ----------------------------------------------------------------------
 # B3LYP/6-311++G(d,p) empiricaldispersion=gd3bj scf=xqc pop=npa geom=c
 heck
 ----------------------------------------------------------------------

 ---------------------------------------
 CID_21803053_JID_10470_Energie_neutraal
 ---------------------------------------
 Structure from the checkpoint file:  "JID_10470.chk"
 Charge =  0 Multiplicity = 1

 SCF Done:  E(RB3LYP) =  -894.343055855     A.U. after   16 cycles
 Normal termination of Gaussian 16 at Mon Dec 14 14:35:07 2020.

 ----------------------------------------------------------------------
 # B3LYP/6-311++G(d,p) empiricaldispersion=gd3bj scf=xqc pop=npa geom=c
 heck
 ----------------------------------------------------------------------

 -------------------------------------
 CID_21803053_JID_10470_Energie_kation
 -------------------------------------
 Structure from the checkpoint file:  "JID_10470.chk"
 Charge =  1 Multiplicity = 2

 SCF Done:  E(UB3LYP) =  -894.050228463     A.U. after   29 cycles
 Normal termination of Gaussian 16 at Mon Dec 14 14:49:32 2020.
 Gaussian 16:  ES64L-G16RevA.03 25-Dec-2016

 ----------------------------------------------------------------------
 # B3LYP/6-311++G(d,p) empiricaldispersion=gd3bj scf=xqc pop=npa geom=c
 heck
 ----------------------------------------------------------------------

 ------------------------------------
 CID_21803053_JID_10470_Energie_anion
 ------------------------------------
 Structure from the checkpoint file:  "JID_10470.chk"
 Charge = -1 Multiplicity = 2

                         Standard orientation:
 ---------------------------------------------------------------------
 Center     Atomic      Atomic             Coordinates (Angstroms)
 Number     Number       Type             X           Y           Z
 ---------------------------------------------------------------------
      1          6           0        3.969888    2.119237   -0.100467
      2          6           0        2.702809    2.705136   -0.064243
      3          6           0        1.565306    1.923628   -0.246488
      4          6           0        1.672509    0.542849   -0.464047
      5          6           0        2.944721   -0.035132   -0.504909
      6          6           0        4.085766    0.749229   -0.323659
      7          6           0        0.401260   -0.253968   -0.715691
      8          6           0        0.568097   -1.772573   -0.836248
      9          7           0        1.250800   -2.450461    0.324791
     10          8           0        1.063072   -2.004415    1.450781
     11          8           0        1.937436   -3.431902    0.054928
     12          7           0       -0.677779    0.117184    0.190357
     13          6           0       -0.622692    0.427714    1.542809
     14          6           0       -1.879972    0.704312    2.012900
     15          6           0       -2.787417    0.552511    0.910846
     16          6           0       -1.997523    0.180248   -0.214697
     17          7           0       -2.421672   -0.077175   -1.449371
     18          6           0       -3.744648    0.049300   -1.620428
     19          6           0       -4.636786    0.415083   -0.598425
     20          6           0       -4.163299    0.671218    0.687364
     21          1           0        4.858166    2.727042    0.044729
     22          1           0        2.599392    3.772969    0.105742
     23          1           0        0.582185    2.383165   -0.214983
     24          1           0        3.070946   -1.098735   -0.675660
     25          1           0        5.064912    0.280352   -0.352385
     26          1           0        0.016935    0.022782   -1.706477
     27          1           0       -0.418815   -2.235663   -0.909268
     28          1           0        1.151881   -2.046219   -1.714275
     29          1           0        0.325132    0.418337    2.055522
     30          1           0       -2.126600    0.978645    3.028829
     31          1           0       -4.116675   -0.154001   -2.621991
     32          1           0       -5.696235    0.491248   -0.821363
     33          1           0       -4.842840    0.951017    1.487750
 ---------------------------------------------------------------------

 SCF Done:  E(UB3LYP) =  -894.362293283     A.U. after   31 cycles

 The electronic state is 2-A.
 Alpha  occ. eigenvalues --  -18.95468 -18.95440 -14.31757 -14.24370 -14.19380
 Alpha  occ. eigenvalues --  -10.11707 -10.11541 -10.08805 -10.08727 -10.08584
 Alpha  occ. eigenvalues --  -10.08532 -10.08115 -10.07980 -10.07763 -10.07583
 Alpha  occ. eigenvalues --  -10.07157 -10.07095 -10.06530 -10.06320 -10.04899
 Alpha  occ. eigenvalues --   -1.03392  -0.88827  -0.86360  -0.81569  -0.76410
 Alpha  occ. eigenvalues --   -0.72346  -0.68976  -0.65293  -0.64720  -0.64020
 Alpha  occ. eigenvalues --   -0.62276  -0.56927  -0.52714  -0.51059  -0.50228
 Alpha  occ. eigenvalues --   -0.49842  -0.46565  -0.44825  -0.42857  -0.40124
 Alpha  occ. eigenvalues --   -0.38576  -0.38013  -0.37258  -0.36461  -0.36176
 Alpha  occ. eigenvalues --   -0.35242  -0.34185  -0.33289  -0.32409  -0.32021
 Alpha  occ. eigenvalues --   -0.31616  -0.30596  -0.29217  -0.28900  -0.28215
 Alpha  occ. eigenvalues --   -0.27274  -0.26695  -0.26317  -0.24922  -0.24449
 Alpha  occ. eigenvalues --   -0.23143  -0.19534  -0.16226  -0.16016  -0.15177
 Alpha  occ. eigenvalues --   -0.14349  -0.13189  -0.11959  -0.11389  -0.10359
 Alpha  occ. eigenvalues --    0.04111
 Alpha virt. eigenvalues --    0.06659   0.06925   0.07437   0.07842   0.08253
 Alpha virt. eigenvalues --    0.08754   0.09009   0.09654   0.10506   0.10991
 Alpha virt. eigenvalues --    0.11434   0.11752   0.12212   0.12776   0.13348

  Beta  occ. eigenvalues --  -18.95039 -18.94992 -14.30869 -14.24375 -14.19275
  Beta  occ. eigenvalues --  -10.11691 -10.11553 -10.08733 -10.08715 -10.08581
  Beta  occ. eigenvalues --  -10.08493 -10.08122 -10.07948 -10.07740 -10.07576
  Beta  occ. eigenvalues --  -10.07133 -10.06957 -10.06567 -10.06287 -10.04899
  Beta  occ. eigenvalues --   -1.02180  -0.88768  -0.85518  -0.81416  -0.76370
  Beta  occ. eigenvalues --   -0.72245  -0.68820  -0.65203  -0.64658  -0.63785
  Beta  occ. eigenvalues --   -0.62108  -0.56682  -0.52475  -0.50958  -0.50134
  Beta  occ. eigenvalues --   -0.49796  -0.46194  -0.44344  -0.42758  -0.39858
  Beta  occ. eigenvalues --   -0.38413  -0.37371  -0.36865  -0.35941  -0.35836
  Beta  occ. eigenvalues --   -0.35044  -0.33562  -0.32933  -0.32005  -0.31651
  Beta  occ. eigenvalues --   -0.31150  -0.30442  -0.29104  -0.28719  -0.28126
  Beta  occ. eigenvalues --   -0.26874  -0.26493  -0.26001  -0.24797  -0.24262
  Beta  occ. eigenvalues --   -0.22815  -0.19042  -0.16101  -0.15818  -0.14987
  Beta  occ. eigenvalues --   -0.12868  -0.11571  -0.11455  -0.11044  -0.09953
  Beta virt. eigenvalues --    0.06854   0.07375   0.07594   0.07928   0.08487
  Beta virt. eigenvalues --    0.08746   0.08951   0.09591   0.10400   0.10908
  Beta virt. eigenvalues --    0.11338   0.11775   0.12046   0.12178   0.13275

 Mulliken charges and spin densities:
               1          2
     1  C   -0.291655  -0.042037
     2  C   -0.349548   0.044485
     3  C   -0.024260   0.040659
     4  C    0.729091  -0.153346
     5  C   -0.406659  -0.015865
     6  C   -0.500910   0.152779
     7  C    0.024016   0.012039
     8  C   -0.320379  -0.181988
     9  N   -0.198142   0.280127
    10  O   -0.216091   0.173071
    11  O   -0.148858   0.174469
    12  N    0.539843   0.004136
    13  C   -0.507315   0.069531
    14  C   -0.162473   0.001983
    15  C    0.673430  -0.017490
    16  C   -0.951052  -0.011781
    17  N   -0.013084   0.049678
    18  C   -0.134123   0.047200
    19  C   -0.231235  -0.002622
    20  C   -0.385807   0.113410
    21  H    0.117197   0.006858
    22  H    0.140995   0.008855
    23  H    0.169813  -0.000392
    24  H    0.097051   0.065045
    25  H    0.127721   0.032790
    26  H    0.258422  -0.002528
    27  H    0.120286   0.132111
    28  H    0.162611   0.023717
    29  H    0.157111  -0.000217
    30  H    0.125150   0.002085
    31  H    0.148867  -0.004882
    32  H    0.117487   0.005974
    33  H    0.132502  -0.007853
 Sum of Mulliken charges =  -1.00000   1.00000

 Dipole moment (field-independent basis, Debye):
    X=             -1.5798    Y=              7.2781    Z=             -1.7545  Tot=              7.6514
 Quadrupole moment (field-independent basis, Debye-Ang):
   XX=           -148.0752   YY=           -154.2592   ZZ=           -131.0754
   XY=             14.7937   XZ=             -5.2884   YZ=              8.9294

 Summary of Natural Population Analysis:

                                       Natural Population
                Natural  -----------------------------------------------
    Atom  No    Charge         Core      Valence    Rydberg      Total
 -----------------------------------------------------------------------
      C    1   -0.11224      0.99957     2.10320    0.00947     3.11224
      C    2   -0.09948      0.99957     2.09116    0.00874     3.09948
      C    3   -0.09760      0.99952     2.09060    0.00748     3.09760
      C    4   -0.01392      0.99949     2.00387    0.01055     3.01392
      C    5   -0.09191      0.99952     2.08410    0.00828     3.09191
      C    6   -0.09669      0.99957     2.08721    0.00990     3.09669
      C    7   -0.01993      0.99953     2.00570    0.01470     3.01993
      C    8   -0.12677      0.99956     2.11620    0.01102     3.12677
      N    9    0.33545      0.99978     2.13677    0.02800     3.16455
      O   10   -0.19695      0.99989     3.18874    0.00832     4.19695
      O   11   -0.20676      0.99990     3.19864    0.00823     4.20676
      N   12   -0.21791      0.99960     2.70734    0.01097     3.71791
      C   13    0.04470      0.99957     1.94335    0.01238     2.95530
      C   14   -0.15600      0.99954     2.14895    0.00751     3.15600
      C   15   -0.05683      0.99949     2.04893    0.00841     3.05683
      C   16    0.19642      0.99948     1.78977    0.01433     2.80358
      N   17   -0.23943      0.99967     2.72957    0.01020     3.73943
      C   18    0.02923      0.99962     1.95647    0.01469     2.97077
      C   19   -0.15140      0.99958     2.14313    0.00870     3.15140
      C   20   -0.05938      0.99954     2.05163    0.00821     3.05938
      H   21    0.09552      0.00000     0.40364    0.00085     0.40448
      H   22    0.09577      0.00000     0.40329    0.00093     0.40423
      H   23    0.10544      0.00000     0.39343    0.00113     0.39456
      H   24    0.11337      0.00000     0.38470    0.00192     0.38663
      H   25    0.09867      0.00000     0.40041    0.00092     0.40133
      H   26    0.12015      0.00000     0.37850    0.00135     0.37985
      H   27    0.11680      0.00000     0.38234    0.00086     0.38320
      H   28    0.10573      0.00000     0.39338    0.00089     0.39427
      H   29    0.11305      0.00000     0.38609    0.00086     0.38695
      H   30    0.10122      0.00000     0.39801    0.00077     0.39878
      H   31    0.08245      0.00000     0.41636    0.00119     0.41755
      H   32    0.09585      0.00000     0.40313    0.00102     0.40415
      H   33    0.09338      0.00000     0.40524    0.00138     0.40662
 =======================================================================
   * Total *    0.00000     19.99200    49.77385    0.23415    70.00000

 Normal termination of Gaussian 16 at Mon Dec 14 15:05:02 2020.
