 Gaussian 16, Revision A.03,

 -----------------------------------------------------------
 # opt freq B3LYP/6-31G(d) empiricaldispersion=gd3bj scf=xqc
 -----------------------------------------------------------

 -------------------------------
 CID_105826027_JID_7930_neutraal
 -------------------------------
 Symbolic Z-matrix:
 Charge =  0 Multiplicity = 1

 SCF Done:  E(RB3LYP) =  -1068.11577137     A.U. after   15 cycles
 SCF Done:  E(RB3LYP) =  -1068.12342828     A.U. after   12 cycles
 SCF Done:  E(RB3LYP) =  -1068.12412758     A.U. after   11 cycles
 SCF Done:  E(RB3LYP) =  -1068.12424251     A.U. after   12 cycles
 SCF Done:  E(RB3LYP) =  -1068.12451761     A.U. after   11 cycles
 SCF Done:  E(RB3LYP) =  -1068.12456638     A.U. after   10 cycles
 SCF Done:  E(RB3LYP) =  -1068.12457937     A.U. after   10 cycles
 SCF Done:  E(RB3LYP) =  -1068.12458394     A.U. after    9 cycles
 SCF Done:  E(RB3LYP) =  -1068.12458946     A.U. after   10 cycles
 SCF Done:  E(RB3LYP) =  -1068.12459088     A.U. after    8 cycles
 SCF Done:  E(RB3LYP) =  -1068.12459156     A.U. after    8 cycles
 SCF Done:  E(RB3LYP) =  -1068.12459180     A.U. after    8 cycles
 SCF Done:  E(RB3LYP) =  -1068.12459188     A.U. after    7 cycles
 SCF Done:  E(RB3LYP) =  -1068.12459191     A.U. after    7 cycles
 Optimization completed.
    -- Stationary point found.
 Normal termination of Gaussian 16 at Sun Dec 13 16:08:50 2020.

 --------------------------------------------------------------------
 #N Geom=AllCheck Guess=TCheck SCRF=Check GenChk RB3LYP/6-31G(d) Freq
 --------------------------------------------------------------------

 Structure from the checkpoint file:  "JID_7930.chk"
 -------------------------------
 CID_105826027_JID_7930_neutraal
 -------------------------------
 Charge =  0 Multiplicity = 1

 SCF Done:  E(RB3LYP) =  -1068.12459191     A.U. after    1 cycles

  Exact polarizability: 218.056 -14.527 176.924  22.580   2.891 104.128
 Approx polarizability: 312.573 -23.488 295.880  44.078   7.647 165.728

                      1                      2                      3
                      A                      A                      A
 Frequencies --     24.9574                39.7311                71.0496
 Red. masses --      4.3171                 4.4921                 3.2135
 Frc consts  --      0.0016                 0.0042                 0.0096
 IR Inten    --      0.7018                 0.6099                 1.8676

                      4                      5                      6
                      A                      A                      A
 Frequencies --     88.0472               137.0100               152.1589
 Red. masses --      3.9701                 3.7307                 1.3154
 Frc consts  --      0.0181                 0.0413                 0.0179
 IR Inten    --      0.0884                 1.7299                 0.1566

                      7                      8                      9
                      A                      A                      A
 Frequencies --    158.0251               171.9417               218.8627
 Red. masses --      3.7221                 2.3734                 1.2082
 Frc consts  --      0.0548                 0.0413                 0.0341
 IR Inten    --      2.8368                 1.0386                 1.6932

                     10                     11                     12
                      A                      A                      A
 Frequencies --    235.5645               237.9773               260.8947
 Red. masses --      2.9972                 2.7615                 2.1754
 Frc consts  --      0.0980                 0.0921                 0.0872
 IR Inten    --      3.5787                 6.0087                16.8059

                     13                     14                     15
                      A                      A                      A
 Frequencies --    273.9163               285.9220               307.7305
 Red. masses --      1.9477                 1.9932                 3.7555
 Frc consts  --      0.0861                 0.0960                 0.2095
 IR Inten    --     15.2516                 8.3371                 6.6388

                     16                     17                     18
                      A                      A                      A
 Frequencies --    337.6376               350.9872               368.0418
 Red. masses --      4.7070                 3.0912                 2.6988
 Frc consts  --      0.3162                 0.2244                 0.2154
 IR Inten    --      0.2616                 9.1010                 1.3113

                     19                     20                     21
                      A                      A                      A
 Frequencies --    409.0654               432.8708               487.2828
 Red. masses --      3.5478                 2.6429                 5.9920
 Frc consts  --      0.3498                 0.2918                 0.8383
 IR Inten    --      4.3338                 1.0290                 1.7616

                     22                     23                     24
                      A                      A                      A
 Frequencies --    519.5374               571.4292               587.0223
 Red. masses --      3.7999                 5.0948                 3.6788
 Frc consts  --      0.6043                 0.9802                 0.7469
 IR Inten    --      3.0138                 9.5888                 4.1522

                     25                     26                     27
                      A                      A                      A
 Frequencies --    591.0538               628.4054               645.6386
 Red. masses --      3.8950                 3.8961                 4.5411
 Frc consts  --      0.8017                 0.9065                 1.1153
 IR Inten    --      5.3510                 2.0237                38.4472

                     28                     29                     30
                      A                      A                      A
 Frequencies --    680.2409               712.1776               728.6255
 Red. masses --      2.9056                 5.9805                 4.7867
 Frc consts  --      0.7922                 1.7872                 1.4972
 IR Inten    --     58.9747                 0.3735                50.9136

                     31                     32                     33
                      A                      A                      A
 Frequencies --    750.4739               779.6901               790.4103
 Red. masses --      2.3650                 2.3881                 1.8423
 Frc consts  --      0.7848                 0.8554                 0.6781
 IR Inten    --      8.2154               164.1517                21.1004

                     34                     35                     36
                      A                      A                      A
 Frequencies --    796.6014               817.4855               841.7764
 Red. masses --      1.1130                 3.6854                 2.5852
 Frc consts  --      0.4161                 1.4511                 1.0793
 IR Inten    --      3.9321                 7.3866                 1.3056

                     37                     38                     39
                      A                      A                      A
 Frequencies --    860.9363               889.2592               931.4098
 Red. masses --      2.4405                 1.3667                 3.8649
 Frc consts  --      1.0658                 0.6368                 1.9755
 IR Inten    --      0.9795                 0.7636                 5.0856

                     40                     41                     42
                      A                      A                      A
 Frequencies --    953.4762               959.0442               989.8767
 Red. masses --      1.2466                 1.3128                 1.2235
 Frc consts  --      0.6677                 0.7114                 0.7063
 IR Inten    --      0.6409                 1.9943                 1.4952

                     43                     44                     45
                      A                      A                      A
 Frequencies --    994.6854              1005.8730              1013.8758
 Red. masses --      1.8528                 2.3359                 1.4396
 Frc consts  --      1.0801                 1.3925                 0.8719
 IR Inten    --      8.2942                15.8763                15.8564

                     46                     47                     48
                      A                      A                      A
 Frequencies --   1070.7715              1073.1360              1075.2769
 Red. masses --      2.0248                 1.8781                 1.5277
 Frc consts  --      1.3678                 1.2743                 1.0407
 IR Inten    --      5.4902                 7.1698                 2.3480

                     49                     50                     51
                      A                      A                      A
 Frequencies --   1081.7813              1106.1829              1119.8577
 Red. masses --      2.0073                 1.3736                 1.6615
 Frc consts  --      1.3840                 0.9903                 1.2277
 IR Inten    --      9.6012                 5.7826                11.4164

                     52                     53                     54
                      A                      A                      A
 Frequencies --   1148.1432              1179.6665              1200.1105
 Red. masses --      1.7180                 1.7905                 1.4936
 Frc consts  --      1.3343                 1.4680                 1.2674
 IR Inten    --     22.4736                18.5916                 2.7907

                     55                     56                     57
                      A                      A                      A
 Frequencies --   1202.2787              1211.4010              1297.0076
 Red. masses --      1.6000                 1.9952                 1.7735
 Frc consts  --      1.3627                 1.7251                 1.7578
 IR Inten    --      8.7463                18.4774                 1.6581

                     58                     59                     60
                      A                      A                      A
 Frequencies --   1300.1116              1319.1448              1327.7723
 Red. masses --      2.5576                 3.6275                 2.9170
 Frc consts  --      2.5471                 3.7192                 3.0300
 IR Inten    --      1.0900                37.3247                46.8678

                     61                     62                     63
                      A                      A                      A
 Frequencies --   1358.5987              1387.0207              1399.5606
 Red. masses --      2.8621                 1.1797                 1.7356
 Frc consts  --      3.1126                 1.3371                 2.0030
 IR Inten    --      9.6347                 1.7079                25.3719

                     64                     65                     66
                      A                      A                      A
 Frequencies --   1414.4874              1445.9923              1459.1968
 Red. masses --      2.1208                 1.2900                 2.6557
 Frc consts  --      2.5000                 1.5892                 3.3317
 IR Inten    --      0.8519                 0.2952                38.6352

                     67                     68                     69
                      A                      A                      A
 Frequencies --   1488.6370              1491.3564              1499.0720
 Red. masses --      2.3817                 1.1561                 1.0590
 Frc consts  --      3.1097                 1.5150                 1.4022
 IR Inten    --    125.4604                 6.8087                10.4901

                     70                     71                     72
                      A                      A                      A
 Frequencies --   1515.2905              1521.5709              1523.6447
 Red. masses --      1.0593                 1.0824                 1.2186
 Frc consts  --      1.4331                 1.4765                 1.6668
 IR Inten    --      7.8693                14.2004                36.5814

                     73                     74                     75
                      A                      A                      A
 Frequencies --   1528.7009              1543.8171              1545.0025
 Red. masses --      1.3224                 1.4935                 1.8065
 Frc consts  --      1.8208                 2.0972                 2.5407
 IR Inten    --      6.6981                13.3322                10.0825

                     76                     77                     78
                      A                      A                      A
 Frequencies --   1595.1914              1653.1663              1658.6138
 Red. masses --      3.3538                 6.9775                 2.5540
 Frc consts  --      5.0281                11.2353                 4.1396
 IR Inten    --    151.3068                11.3866                39.9001

                     79                     80                     81
                      A                      A                      A
 Frequencies --   1696.4665              3043.7703              3061.6952
 Red. masses --      2.1038                 1.0413                 1.0313
 Frc consts  --      3.5673                 5.6837                 5.6957
 IR Inten    --    169.7281                26.6565                16.2261

                     82                     83                     84
                      A                      A                      A
 Frequencies --   3073.6915              3100.7104              3129.1402
 Red. masses --      1.0698                 1.0956                 1.1012
 Frc consts  --      5.9547                 6.2064                 6.3527
 IR Inten    --     46.5787                16.2838                20.6026

                     85                     86                     87
                      A                      A                      A
 Frequencies --   3141.7120              3157.1169              3159.0376
 Red. masses --      1.1070                 1.1041                 1.0917
 Frc consts  --      6.4377                 6.4840                 6.4188
 IR Inten    --     15.6026                 5.7610                 7.9241

                     88                     89                     90
                      A                      A                      A
 Frequencies --   3162.2844              3164.4530              3179.7340
 Red. masses --      1.0531                 1.0569                 1.0868
 Frc consts  --      6.2045                 6.2358                 6.4744
 IR Inten    --      6.0235                 5.0472                 8.6570

                     91                     92                     93
                      A                      A                      A
 Frequencies --   3197.8839              3218.4474              3242.5082
 Red. masses --      1.0912                 1.0947                 1.1193
 Frc consts  --      6.5747                 6.6810                 6.9338
 IR Inten    --     25.3919                19.2656                 0.7393

                     94                     95                     96
                      A                      A                      A
 Frequencies --   3253.5964              3533.2596              3634.6227
 Red. masses --      1.1162                 1.0484                 1.0965
 Frc consts  --      6.9619                 7.7111                 8.5344
 IR Inten    --      3.0020                19.1547                24.2096

 - Thermochemistry -
 -------------------
 Temperature   298.150 Kelvin.  Pressure   1.00000 Atm.
 Atom     1 has atomic number  6 and mass  12.00000

 Molecular mass:   247.11432 amu.
 Principal axes and moments of inertia in atomic units:
                           1         2         3
     Eigenvalues --  2328.386175944.586727352.19394
           X            0.99965  -0.02619   0.00404
           Y            0.02618   0.99965   0.00295
           Z           -0.00411  -0.00284   0.99999
 This molecule is an asymmetric top.
 Rotational symmetry number  1.
 Warning -- assumption of classical behavior for rotation
           may cause significant error
 Rotational temperatures (Kelvin)      0.03720     0.01457     0.01178
 Rotational constants (GHZ):           0.77510     0.30359     0.24547
 Zero-point vibrational energy     747548.6 (Joules/Mol)
                                  178.66841 (Kcal/Mol)
 Warning -- explicit consideration of  25 degrees of freedom as
           vibrations may cause significant error
 Vibrational temperatures:     35.91    57.16   102.22   126.68   197.13
          (Kelvin)            218.92   227.36   247.39   314.89   338.92
                              342.40   375.37   394.10   411.38   442.76
                              485.79   504.99   529.53   588.55   622.80
                              701.09   747.50   822.16   844.59   850.39
                              904.14   928.93   978.71  1024.66  1048.33
                             1079.76  1121.80  1137.22  1146.13  1176.18
                             1211.13  1238.70  1279.45  1340.09  1371.84
                             1379.85  1424.21  1431.13  1447.23  1458.74
                             1540.60  1544.00  1547.08  1556.44  1591.55
                             1611.23  1651.92  1697.28  1726.69  1729.81
                             1742.94  1866.10  1870.57  1897.96  1910.37
                             1954.72  1995.61  2013.66  2035.13  2080.46
                             2099.46  2141.82  2145.73  2156.83  2180.17
                             2189.20  2192.18  2199.46  2221.21  2222.91
                             2295.12  2378.54  2386.38  2440.84  4379.31
                             4405.10  4422.36  4461.23  4502.13  4520.22
                             4542.39  4545.15  4549.82  4552.94  4574.93
                             4601.04  4630.63  4665.25  4681.20  5083.57
                             5229.41

 Zero-point correction=                           0.284726 (Hartree/Particle)
 Thermal correction to Energy=                    0.301195
 Thermal correction to Enthalpy=                  0.302139
 Thermal correction to Gibbs Free Energy=         0.240463
 Sum of electronic and zero-point Energies=          -1067.839866
 Sum of electronic and thermal Energies=             -1067.823397
 Sum of electronic and thermal Enthalpies=           -1067.822453
 Sum of electronic and thermal Free Energies=        -1067.884129

                     E (Thermal)             CV                S
                      KCal/Mol        Cal/Mol-Kelvin    Cal/Mol-Kelvin
 Total                  189.003             63.904            129.809
 Electronic               0.000              0.000              0.000
 Translational            0.889              2.981             42.415
 Rotational               0.889              2.981             32.987
 Vibrational            187.225             57.943             54.407
 Vibration     1          0.593              1.985              6.195
 Vibration     2          0.594              1.981              5.272
 Vibration     3          0.598              1.968              4.124
 Vibration     4          0.601              1.958              3.703
 Vibration     5          0.614              1.916              2.845
 Vibration     6          0.619              1.900              2.645
 Vibration     7          0.621              1.894              2.573
 Vibration     8          0.626              1.877              2.414
 Vibration     9          0.647              1.812              1.968
 Vibration    10          0.655              1.786              1.836
 Vibration    11          0.656              1.782              1.818
 Vibration    12          0.669              1.744              1.656
 Vibration    13          0.676              1.721              1.571
 Vibration    14          0.684              1.700              1.498
 Vibration    15          0.698              1.659              1.375
 Vibration    16          0.718              1.600              1.223
 Vibration    17          0.728              1.573              1.162
 Vibration    18          0.741              1.538              1.088
 Vibration    19          0.773              1.451              0.930
 Vibration    20          0.794              1.399              0.849
 Vibration    21          0.843              1.278              0.691
 Vibration    22          0.875              1.207              0.611
 Vibration    23          0.928              1.093              0.501
 Vibration    24          0.944              1.059              0.473
 Vibration    25          0.948              1.051              0.465

                           ! Non-Optimized Parameters !
 Normal termination of Gaussian 16 at Sun Dec 13 16:22:59 2020.

 ----------------------------------------------------------------------
 # B3LYP/6-311++G(d,p) empiricaldispersion=gd3bj scf=xqc pop=npa geom=c
 heck
 ----------------------------------------------------------------------

 ---------------------------------------
 CID_105826027_JID_7930_Energie_neutraal
 ---------------------------------------
 Structure from the checkpoint file:  "JID_7930.chk"
 Charge =  0 Multiplicity = 1

 SCF Done:  E(RB3LYP) =  -1068.33174702     A.U. after   15 cycles
 Normal termination of Gaussian 16 at Sun Dec 13 16:30:01 2020.

 ----------------------------------------------------------------------
 # B3LYP/6-311++G(d,p) empiricaldispersion=gd3bj scf=xqc pop=npa geom=c
 heck
 ----------------------------------------------------------------------

 -------------------------------------
 CID_105826027_JID_7930_Energie_kation
 -------------------------------------
 Structure from the checkpoint file:  "JID_7930.chk"
 Charge =  1 Multiplicity = 2

 SCF Done:  E(UB3LYP) =  -1068.05716471     A.U. after   33 cycles
 SCF Done:  E(UB3LYP) =  -1068.05716471     a.u. after    1 cycles
 Normal termination of Gaussian 16 at Sun Dec 13 16:52:20 2020.
 Gaussian 16:  ES64L-G16RevA.03 25-Dec-2016

 ----------------------------------------------------------------------
 # B3LYP/6-311++G(d,p) empiricaldispersion=gd3bj scf=xqc pop=npa geom=c
 heck
 ----------------------------------------------------------------------

 ------------------------------------
 CID_105826027_JID_7930_Energie_anion
 ------------------------------------
 Structure from the checkpoint file:  "JID_7930.chk"
 Charge = -1 Multiplicity = 2

                         Standard orientation:
 ---------------------------------------------------------------------
 Center     Atomic      Atomic             Coordinates (Angstroms)
 Number     Number       Type             X           Y           Z
 ---------------------------------------------------------------------
      1          6           0        0.862155   -2.532754   -0.802083
      2          6           0        1.824027   -1.448699   -0.378002
      3          6           0        1.504148   -0.084969   -0.304062
      4          6           0        2.449494    0.902922    0.070757
      5          6           0        3.758413    0.541539    0.396385
      6          6           0        4.090480   -0.808174    0.340786
      7          6           0        3.143314   -1.772430   -0.036330
      8          7           0        1.877698    2.170438    0.038129
      9          6           0        0.635572    1.966192   -0.324163
     10          7           0        0.321716    0.635933   -0.554182
     11          6           0       -1.001282    0.105157   -0.838963
     12          6           0       -1.823210   -0.282075    0.391143
     13          6           0       -1.143629   -0.761894    1.654807
     14          6           0       -1.816713    0.584478    1.628179
     15         16           0       -3.363925   -1.122846   -0.043359
     16          6           0       -4.384290    0.305222   -0.557343
     17          7           0       -0.326935    2.961904   -0.400697
     18          1           0        1.327158   -3.515167   -0.678924
     19          1           0        0.577867   -2.439435   -1.857891
     20          1           0       -0.061779   -2.527250   -0.213542
     21          1           0        4.478583    1.301209    0.682077
     22          1           0        5.098252   -1.126690    0.591501
     23          1           0        3.438058   -2.818057   -0.070931
     24          1           0       -1.552725    0.852672   -1.419032
     25          1           0       -0.891853   -0.764071   -1.486926
     26          1           0       -1.623676   -1.564254    2.205948
     27          1           0       -0.058905   -0.787963    1.662023
     28          1           0       -1.193421    1.472575    1.611137
     29          1           0       -2.754687    0.696667    2.163252
     30          1           0       -4.407005    1.060485    0.233083
     31          1           0       -4.022225    0.754484   -1.486339
     32          1           0       -5.397662   -0.069115   -0.723192
     33          1           0        0.115075    3.873187   -0.346509
     34          1           0       -0.946474    2.901233   -1.201412
 ---------------------------------------------------------------------

 SCF Done:  E(UB3LYP) =  -1068.32587923     A.U. after   33 cycles
 SCF Done:  E(UB3LYP) =  -1068.32587923     a.u. after    1 cycles

 The electronic state is 2-A.
 Alpha  occ. eigenvalues --  -88.74478 -14.27257 -14.22624 -14.19212 -10.17397
 Alpha  occ. eigenvalues --  -10.12537 -10.12257 -10.11659 -10.10315 -10.09955
 Alpha  occ. eigenvalues --  -10.08843 -10.08815 -10.08662 -10.08255 -10.08200
 Alpha  occ. eigenvalues --  -10.08059 -10.07850  -7.83080  -5.79481  -5.79115
 Alpha  occ. eigenvalues --   -5.78446  -0.93312  -0.81932  -0.80561  -0.77722
 Alpha  occ. eigenvalues --   -0.75466  -0.68377  -0.67659  -0.64817  -0.62925
 Alpha  occ. eigenvalues --   -0.59829  -0.55541  -0.53019  -0.51622  -0.51447
 Alpha  occ. eigenvalues --   -0.48396  -0.45518  -0.43941  -0.42424  -0.41308
 Alpha  occ. eigenvalues --   -0.40336  -0.37799  -0.37136  -0.36217  -0.34903
 Alpha  occ. eigenvalues --   -0.34190  -0.33499  -0.33052  -0.32906  -0.32063
 Alpha  occ. eigenvalues --   -0.31603  -0.30156  -0.28952  -0.27887  -0.27381
 Alpha  occ. eigenvalues --   -0.26640  -0.25726  -0.24269  -0.21761  -0.20852
 Alpha  occ. eigenvalues --   -0.19846  -0.19247  -0.18333  -0.13831  -0.12903
 Alpha  occ. eigenvalues --   -0.11813   0.04237
 Alpha virt. eigenvalues --    0.06379   0.07291   0.07488   0.07599   0.08368
 Alpha virt. eigenvalues --    0.08942   0.09352   0.09596   0.09937   0.10615
 Alpha virt. eigenvalues --    0.10776   0.11540   0.11960   0.12412   0.13097

  Beta  occ. eigenvalues --  -88.74472 -14.27256 -14.22533 -14.19203 -10.17386
  Beta  occ. eigenvalues --  -10.12495 -10.12254 -10.11659 -10.10313 -10.09948
  Beta  occ. eigenvalues --  -10.08842 -10.08812 -10.08578 -10.08239 -10.08200
  Beta  occ. eigenvalues --  -10.08058 -10.07843  -7.83074  -5.79468  -5.79102
  Beta  occ. eigenvalues --   -5.78443  -0.93292  -0.81855  -0.80511  -0.77710
  Beta  occ. eigenvalues --   -0.75442  -0.68362  -0.67597  -0.64774  -0.62890
  Beta  occ. eigenvalues --   -0.59810  -0.55445  -0.52994  -0.51578  -0.51413
  Beta  occ. eigenvalues --   -0.48362  -0.45482  -0.43860  -0.42386  -0.41291
  Beta  occ. eigenvalues --   -0.40291  -0.37738  -0.37110  -0.36188  -0.34869
  Beta  occ. eigenvalues --   -0.34167  -0.33481  -0.33008  -0.32882  -0.31994
  Beta  occ. eigenvalues --   -0.31536  -0.30144  -0.28907  -0.27865  -0.27356
  Beta  occ. eigenvalues --   -0.26628  -0.25695  -0.24214  -0.21737  -0.20824
  Beta  occ. eigenvalues --   -0.19805  -0.19217  -0.18304  -0.13804  -0.12877
  Beta  occ. eigenvalues --   -0.11772
  Beta virt. eigenvalues --    0.06289   0.07269   0.07493   0.07537   0.08443
  Beta virt. eigenvalues --    0.08600   0.09169   0.09358   0.10007   0.10286
  Beta virt. eigenvalues --    0.10833   0.11218   0.11625   0.12232   0.12774

 Mulliken charges and spin densities:
               1          2
     1  C   -0.563235  -0.316472
     2  C    0.417329   0.135204
     3  C    0.413505  -0.459557
     4  C    0.066215  -0.166358
     5  C   -0.224559   0.006038
     6  C   -0.412457  -0.022888
     7  C   -0.325635  -0.009854
     8  N   -0.096176  -0.023830
     9  C    0.489784  -0.382949
    10  N    0.140937   0.027727
    11  C    0.674883  -1.562004
    12  C   -0.387466   1.321500
    13  C   -0.149918  -0.081096
    14  C   -0.323587  -0.222353
    15  S   -0.361072   0.327733
    16  C    0.995175  -1.677437
    17  N   -0.464905   0.129255
    18  H    0.140585  -0.004859
    19  H    0.078168   0.110907
    20  H    0.220291  -0.029826
    21  H    0.138277   0.019546
    22  H    0.137714   0.000617
    23  H    0.110538   0.012081
    24  H   -0.053516   0.266023
    25  H   -0.016105   0.115611
    26  H    0.188977  -0.008270
    27  H    0.101336   0.025671
    28  H    0.093399   0.114879
    29  H   -0.001785   0.188066
    30  H   -0.292063   0.466511
    31  H   -0.672374   0.858985
    32  H   -0.294018   0.472593
    33  H   -0.251780   0.565188
    34  H   -0.516462   0.803620
 Sum of Mulliken charges =  -1.00000   1.00000

 Dipole moment (field-independent basis, Debye):
    X=              7.3402    Y=             -8.3264    Z=              4.2773  Tot=             11.8955
 Quadrupole moment (field-independent basis, Debye-Ang):
   XX=           -185.1010   YY=           -159.8370   ZZ=           -143.8100
   XY=              8.5417   XZ=            -11.7156   YZ=              9.9301

 Summary of Natural Population Analysis:

                                       Natural Population
                Natural  -----------------------------------------------
    Atom  No    Charge         Core      Valence    Rydberg      Total
 -----------------------------------------------------------------------
      C    1   -0.29497      0.99964     2.29024    0.00509     3.29497
      C    2   -0.03249      0.99943     2.02387    0.00920     3.03249
      C    3    0.06702      0.99941     1.92199    0.01158     2.93298
      C    4    0.06569      0.99946     1.92098    0.01388     2.93431
      C    5   -0.10990      0.99952     2.10143    0.00895     3.10990
      C    6   -0.11408      0.99959     2.10584    0.00865     3.11408
      C    7   -0.10855      0.99947     2.10101    0.00807     3.10855
      N    8   -0.28306      0.99966     2.77431    0.00908     3.78306
      C    9    0.30620      0.99959     1.67573    0.01848     2.69380
      N   10   -0.22990      0.99959     2.71760    0.01271     3.72990
      C   11   -0.09100      0.99953     2.07527    0.01620     3.09100
      C   12   -0.11858      0.99950     2.10070    0.01837     3.11858
      C   13   -0.19832      0.99957     2.19032    0.00843     3.19832
      C   14   -0.19554      0.99955     2.18622    0.00976     3.19554
      S   15    0.10352      4.99955     2.87924    0.01770     7.89648
      C   16   -0.34684      0.99962     2.34092    0.00630     3.34684
      N   17   -0.40016      0.99971     2.89023    0.01023     3.90016
      H   18    0.10023      0.00000     0.39896    0.00081     0.39977
      H   19    0.10435      0.00000     0.39463    0.00103     0.39565
      H   20    0.10772      0.00000     0.39117    0.00111     0.39228
      H   21    0.10234      0.00000     0.39636    0.00130     0.39766
      H   22    0.09597      0.00000     0.40319    0.00084     0.40403
      H   23    0.09434      0.00000     0.40475    0.00091     0.40566
      H   24    0.11289      0.00000     0.38419    0.00293     0.38711
      H   25    0.10767      0.00000     0.39061    0.00173     0.39233
      H   26    0.10533      0.00000     0.39375    0.00092     0.39467
      H   27    0.10964      0.00000     0.38948    0.00088     0.39036
      H   28    0.11457      0.00000     0.38394    0.00149     0.38543
      H   29    0.10690      0.00000     0.39207    0.00103     0.39310
      H   30    0.10480      0.00000     0.39292    0.00228     0.39520
      H   31    0.10864      0.00000     0.38676    0.00460     0.39136
      H   32    0.10703      0.00000     0.39167    0.00130     0.39297
      H   33    0.19656      0.00000     0.30042    0.00302     0.30344
      H   34    0.20199      0.00000     0.27848    0.01953     0.29801
 =======================================================================
   * Total *    0.00000     20.99239    44.76923    0.23838    66.00000

 Normal termination of Gaussian 16 at Sun Dec 13 17:14:17 2020.
