 Gaussian 16, Revision A.03,

 -----------------------------------------------------------
 # opt freq B3LYP/6-31G(d) empiricaldispersion=gd3bj scf=xqc
 -----------------------------------------------------------

 -----------------------------
 CID_5310821_JID_7021_neutraal
 -----------------------------
 Symbolic Z-matrix:
 Charge =  0 Multiplicity = 1

 SCF Done:  E(RB3LYP) =  -725.487640248     A.U. after   16 cycles
 SCF Done:  E(RB3LYP) =  -725.487906448     A.U. after   15 cycles
 SCF Done:  E(RB3LYP) =  -725.490886316     A.U. after   14 cycles
 SCF Done:  E(RB3LYP) =  -725.491597146     A.U. after   13 cycles
 SCF Done:  E(RB3LYP) =  -725.491864065     A.U. after   12 cycles
 SCF Done:  E(RB3LYP) =  -725.491924192     A.U. after   12 cycles
 SCF Done:  E(RB3LYP) =  -725.492042992     A.U. after   11 cycles
 SCF Done:  E(RB3LYP) =  -725.492047573     A.U. after   10 cycles
 SCF Done:  E(RB3LYP) =  -725.492048334     A.U. after    8 cycles
 SCF Done:  E(RB3LYP) =  -725.492048512     A.U. after    8 cycles
 SCF Done:  E(RB3LYP) =  -725.492048566     A.U. after    7 cycles
 Optimization completed.
    -- Stationary point found.
 Normal termination of Gaussian 16 at Fri Dec 11 11:43:53 2020.

 --------------------------------------------------------------------
 #N Geom=AllCheck Guess=TCheck SCRF=Check GenChk RB3LYP/6-31G(d) Freq
 --------------------------------------------------------------------

 Structure from the checkpoint file:  "JID_7021.chk"
 -----------------------------
 CID_5310821_JID_7021_neutraal
 -----------------------------
 Charge =  0 Multiplicity = 1

 SCF Done:  E(RB3LYP) =  -725.492048566     A.U. after    1 cycles

  Exact polarizability: 230.106  15.340 181.089 -22.281   8.455  91.797
 Approx polarizability: 340.788  43.543 311.174 -51.024  14.074 158.897

                      1                      2                      3
                      A                      A                      A
 Frequencies --     20.2739                34.6903                38.4514
 Red. masses --      4.3758                 5.9327                 4.5473
 Frc consts  --      0.0011                 0.0042                 0.0040
 IR Inten    --      0.9270                 0.8512                 0.3124

                      4                      5                      6
                      A                      A                      A
 Frequencies --     78.6859               100.6341               128.2409
 Red. masses --      5.1237                 4.6555                 5.2583
 Frc consts  --      0.0187                 0.0278                 0.0510
 IR Inten    --      4.4894                 0.4840                 2.4813

                      7                      8                      9
                      A                      A                      A
 Frequencies --    185.6720               190.7509               235.0863
 Red. masses --      4.6287                 5.0750                 5.2018
 Frc consts  --      0.0940                 0.1088                 0.1694
 IR Inten    --      2.7485                 1.3630                 0.2877

                     10                     11                     12
                      A                      A                      A
 Frequencies --    297.1392               358.1133               401.1472
 Red. masses --      6.7275                 3.0642                 4.9414
 Frc consts  --      0.3500                 0.2315                 0.4685
 IR Inten    --      9.5869                 6.1245                 3.0000

                     13                     14                     15
                      A                      A                      A
 Frequencies --    418.5789               420.7755               438.1324
 Red. masses --      3.5956                 3.0567                 5.5642
 Frc consts  --      0.3712                 0.3189                 0.6293
 IR Inten    --      1.7248                 0.5503                 9.9495

                     16                     17                     18
                      A                      A                      A
 Frequencies --    493.6686               522.5911               581.1049
 Red. masses --      4.4441                 2.7234                 5.2606
 Frc consts  --      0.6381                 0.4382                 1.0466
 IR Inten    --      2.7219                 8.1866                22.1315

                     19                     20                     21
                      A                      A                      A
 Frequencies --    590.7524               633.2558               642.9538
 Red. masses --      5.9136                 6.2947                 6.7797
 Frc consts  --      1.2159                 1.4872                 1.6513
 IR Inten    --      3.3249                 0.6436                 2.8902

                     22                     23                     24
                      A                      A                      A
 Frequencies --    670.7821               701.9196               713.7872
 Red. masses --      1.4290                 2.7474                 1.9571
 Frc consts  --      0.3788                 0.7975                 0.5875
 IR Inten    --     50.0633                16.0730                 4.1783

                     25                     26                     27
                      A                      A                      A
 Frequencies --    737.6656               743.9166               748.0401
 Red. masses --      3.1319                 3.2387                 1.8207
 Frc consts  --      1.0041                 1.0560                 0.6003
 IR Inten    --     39.8264                18.3760                 2.1592

                     28                     29                     30
                      A                      A                      A
 Frequencies --    781.5420               789.3447               834.4574
 Red. masses --      2.4213                 1.8235                 2.5802
 Frc consts  --      0.8714                 0.6694                 1.0586
 IR Inten    --     21.9563                79.5719                50.5628

                     31                     32                     33
                      A                      A                      A
 Frequencies --    861.6667               870.7432               910.3890
 Red. masses --      1.3700                 1.2526                 4.0128
 Frc consts  --      0.5993                 0.5596                 1.9595
 IR Inten    --      2.2299                 0.9507                16.1547

                     34                     35                     36
                      A                      A                      A
 Frequencies --    949.9120               972.5726               975.5097
 Red. masses --      1.4397                 1.2784                 1.3715
 Frc consts  --      0.7654                 0.7124                 0.7690
 IR Inten    --      1.2179                17.3271                 1.9080

                     37                     38                     39
                      A                      A                      A
 Frequencies --    981.8203               993.6479              1003.5391
 Red. masses --      1.3440                 1.2753                 1.2616
 Frc consts  --      0.7633                 0.7419                 0.7486
 IR Inten    --      2.2349                 0.9964                 0.5336

                     40                     41                     42
                      A                      A                      A
 Frequencies --   1004.2949              1022.4633              1046.5231
 Red. masses --      6.5453                 6.2767                 4.1577
 Frc consts  --      3.8896                 3.8662                 2.6829
 IR Inten    --      8.1916                 5.5015                60.5737

                     43                     44                     45
                      A                      A                      A
 Frequencies --   1065.6695              1084.5199              1113.8105
 Red. masses --      2.1634                 2.2526                 1.5744
 Frc consts  --      1.4475                 1.5610                 1.1508
 IR Inten    --     24.0712                21.3482                 2.0205

                     46                     47                     48
                      A                      A                      A
 Frequencies --   1128.1874              1172.1478              1194.3001
 Red. masses --      1.5904                 1.8490                 1.1443
 Frc consts  --      1.1927                 1.4967                 0.9617
 IR Inten    --      4.3679                15.0886                 5.7185

                     49                     50                     51
                      A                      A                      A
 Frequencies --   1195.0182              1210.3740              1284.3234
 Red. masses --      1.1020                 1.1462                 2.3561
 Frc consts  --      0.9272                 0.9893                 2.2897
 IR Inten    --      0.0197                12.8865                73.0339

                     52                     53                     54
                      A                      A                      A
 Frequencies --   1317.2172              1338.0757              1348.2835
 Red. masses --      2.7289                 2.1855                 1.8723
 Frc consts  --      2.7896                 2.3055                 2.0054
 IR Inten    --    174.1998               160.6519                15.5020

                     55                     56                     57
                      A                      A                      A
 Frequencies --   1349.4759              1366.6173              1368.1480
 Red. masses --      1.6120                 2.3781                 2.7429
 Frc consts  --      1.7296                 2.6168                 3.0250
 IR Inten    --     46.4471                96.0009               118.9305

                     58                     59                     60
                      A                      A                      A
 Frequencies --   1436.3607              1484.0087              1494.8557
 Red. masses --      1.5152                 2.0669                 2.2468
 Frc consts  --      1.8418                 2.6819                 2.9581
 IR Inten    --     78.1192                 6.2626                15.2042

                     61                     62                     63
                      A                      A                      A
 Frequencies --   1497.1872              1539.4631              1556.8195
 Red. masses --      2.4414                 2.2101                 2.7029
 Frc consts  --      3.2244                 3.0860                 3.8597
 IR Inten    --    176.9022                11.9239               134.6397

                     64                     65                     66
                      A                      A                      A
 Frequencies --   1638.1062              1640.0526              1655.2966
 Red. masses --      5.4935                 5.2976                 5.4427
 Frc consts  --      8.6853                 8.3954                 8.7864
 IR Inten    --     23.1565                20.2498               454.7998

                     67                     68                     69
                      A                      A                      A
 Frequencies --   1660.6009              1703.0689              1725.3625
 Red. masses --      5.5385                 4.3232                 9.7800
 Frc consts  --      8.9985                 7.3880                17.1535
 IR Inten    --     13.5588               746.9417                78.2813

                     70                     71                     72
                      A                      A                      A
 Frequencies --   3177.2574              3187.1016              3196.5673
 Red. masses --      1.0896                 1.0853                 1.0883
 Frc consts  --      6.4805                 6.4951                 6.5519
 IR Inten    --     26.5654                 0.3863                 6.6153

                     73                     74                     75
                      A                      A                      A
 Frequencies --   3198.0336              3204.8763              3205.2988
 Red. masses --      1.0883                 1.0866                 1.0920
 Frc consts  --      6.5578                 6.5756                 6.6100
 IR Inten    --     13.0872                 0.4050                23.4745

                     76                     77                     78
                      A                      A                      A
 Frequencies --   3214.0561              3219.0292              3223.1566
 Red. masses --      1.0960                 1.0931                 1.0941
 Frc consts  --      6.6709                 6.6733                 6.6967
 IR Inten    --     16.0234                 4.8974                 7.4403

                     79                     80                     81
                      A                      A                      A
 Frequencies --   3225.4277              3232.1577              3576.5082
 Red. masses --      1.0953                 1.0921                 1.0756
 Frc consts  --      6.7136                 6.7218                 8.1064
 IR Inten    --     18.1780                14.8231                67.6878

 - Thermochemistry -
 -------------------
 Temperature   298.150 Kelvin.  Pressure   1.00000 Atm.
 Atom     1 has atomic number  6 and mass  12.00000

 Molecular mass:   224.09496 amu.
 Principal axes and moments of inertia in atomic units:
                           1         2         3
     Eigenvalues --  2207.283316453.901878081.98081
           X            0.99990  -0.01399  -0.00318
           Y            0.01402   0.99986   0.00878
           Z            0.00306  -0.00882   0.99996
 This molecule is an asymmetric top.
 Rotational symmetry number  1.
 Warning -- assumption of classical behavior for rotation
           may cause significant error
 Rotational temperatures (Kelvin)      0.03924     0.01342     0.01072
 Rotational constants (GHZ):           0.81763     0.27964     0.22330
 Zero-point vibrational energy     607416.2 (Joules/Mol)
                                  145.17595 (Kcal/Mol)
 Warning -- explicit consideration of  19 degrees of freedom as
           vibrations may cause significant error
 Vibrational temperatures:     29.17    49.91    55.32   113.21   144.79
          (Kelvin)            184.51   267.14   274.45   338.24   427.52
                              515.25   577.16   602.24   605.40   630.37
                              710.28   751.89   836.08   849.96   911.11
                              925.07   965.11  1009.91  1026.98  1061.34
                             1070.33  1076.26  1124.46  1135.69  1200.60
                             1239.75  1252.81  1309.85  1366.71  1399.32
                             1403.54  1412.62  1429.64  1443.87  1444.96
                             1471.10  1505.71  1533.26  1560.38  1602.52
                             1623.21  1686.46  1718.33  1719.36  1741.46
                             1847.85  1895.18  1925.19  1939.88  1941.59
                             1966.26  1968.46  2066.60  2135.16  2150.76
                             2154.12  2214.94  2239.92  2356.87  2359.67
                             2381.60  2389.23  2450.34  2482.41  4571.36
                             4585.53  4599.15  4601.26  4611.10  4611.71
                             4624.31  4631.47  4637.40  4640.67  4650.35
                             5145.80

 Zero-point correction=                           0.231353 (Hartree/Particle)
 Thermal correction to Energy=                    0.245326
 Thermal correction to Enthalpy=                  0.246270
 Thermal correction to Gibbs Free Energy=         0.187888
 Sum of electronic and zero-point Energies=           -725.260696
 Sum of electronic and thermal Energies=              -725.246722
 Sum of electronic and thermal Enthalpies=            -725.245778
 Sum of electronic and thermal Free Energies=         -725.304161

                     E (Thermal)             CV                S
                      KCal/Mol        Cal/Mol-Kelvin    Cal/Mol-Kelvin
 Total                  153.944             54.015            122.877
 Electronic               0.000              0.000              0.000
 Translational            0.889              2.981             42.123
 Rotational               0.889              2.981             33.109
 Vibrational            152.167             48.053             47.644
 Vibration     1          0.593              1.986              6.607
 Vibration     2          0.594              1.983              5.541
 Vibration     3          0.594              1.982              5.337
 Vibration     4          0.600              1.963              3.923
 Vibration     5          0.604              1.949              3.442
 Vibration     6          0.611              1.925              2.972
 Vibration     7          0.632              1.859              2.271
 Vibration     8          0.634              1.853              2.221
 Vibration     9          0.655              1.787              1.840
 Vibration    10          0.691              1.679              1.433
 Vibration    11          0.733              1.559              1.130
 Vibration    12          0.767              1.468              0.958
 Vibration    13          0.781              1.430              0.897
 Vibration    14          0.783              1.425              0.889
 Vibration    15          0.798              1.387              0.832
 Vibration    16          0.849              1.264              0.674
 Vibration    17          0.878              1.200              0.604
 Vibration    18          0.938              1.072              0.483
 Vibration    19          0.948              1.051              0.466

                           ! Non-Optimized Parameters !
 Normal termination of Gaussian 16 at Fri Dec 11 11:52:42 2020.

 ----------------------------------------------------------------------
 # B3LYP/6-311++G(d,p) empiricaldispersion=gd3bj scf=xqc pop=npa geom=c
 heck
 ----------------------------------------------------------------------

 -------------------------------------
 CID_5310821_JID_7021_Energie_neutraal
 -------------------------------------
 Structure from the checkpoint file:  "JID_7021.chk"
 Charge =  0 Multiplicity = 1

 SCF Done:  E(RB3LYP) =  -725.686920834     A.U. after   17 cycles
 Normal termination of Gaussian 16 at Fri Dec 11 11:57:19 2020.

 ----------------------------------------------------------------------
 # B3LYP/6-311++G(d,p) empiricaldispersion=gd3bj scf=xqc pop=npa geom=c
 heck
 ----------------------------------------------------------------------

 -----------------------------------
 CID_5310821_JID_7021_Energie_kation
 -----------------------------------
 Structure from the checkpoint file:  "JID_7021.chk"
 Charge =  1 Multiplicity = 2

 SCF Done:  E(UB3LYP) =  -725.403121123     A.U. after   26 cycles
 Normal termination of Gaussian 16 at Fri Dec 11 12:09:09 2020.
 Gaussian 16:  ES64L-G16RevA.03 25-Dec-2016

 ----------------------------------------------------------------------
 # B3LYP/6-311++G(d,p) empiricaldispersion=gd3bj scf=xqc pop=npa geom=c
 heck
 ----------------------------------------------------------------------

 ----------------------------------
 CID_5310821_JID_7021_Energie_anion
 ----------------------------------
 Structure from the checkpoint file:  "JID_7021.chk"
 Charge = -1 Multiplicity = 2

                         Standard orientation:
 ---------------------------------------------------------------------
 Center     Atomic      Atomic             Coordinates (Angstroms)
 Number     Number       Type             X           Y           Z
 ---------------------------------------------------------------------
      1          6           0        2.716955   -2.560663    0.324784
      2          6           0        3.310473   -1.870958   -0.735998
      3          6           0        3.125964   -0.497259   -0.864334
      4          6           0        2.322225    0.196717    0.050236
      5          6           0        1.739230   -0.499057    1.119058
      6          6           0        1.939530   -1.872193    1.257214
      7          6           0        2.185937    1.685613   -0.098669
      8          8           0        3.141325    2.336891   -0.517344
      9          6           0        0.935466    2.369420    0.262884
     10          6           0       -0.343257    1.911761    0.226643
     11          7           0       -0.792174    0.663105   -0.101444
     12          6           0       -2.105569    0.203475   -0.110239
     13          6           0       -3.211410    0.985981    0.265218
     14          6           0       -4.470714    0.403334    0.202499
     15          6           0       -4.602819   -0.921760   -0.217752
     16          6           0       -3.439489   -1.608107   -0.558545
     17          7           0       -2.217351   -1.071382   -0.511331
     18          1           0        2.864484   -3.632114    0.426611
     19          1           0        3.920783   -2.405701   -1.458189
     20          1           0        3.598157    0.061086   -1.665957
     21          1           0        1.141315    0.041737    1.846559
     22          1           0        1.491018   -2.402660    2.092100
     23          1           0        1.059728    3.433087    0.437289
     24          1           0       -1.135426    2.619767    0.445484
     25          1           0       -0.120243   -0.053209   -0.353183
     26          1           0       -3.098483    2.010423    0.599504
     27          1           0       -5.344948    0.983055    0.484770
     28          1           0       -5.571320   -1.406152   -0.276499
     29          1           0       -3.484120   -2.644338   -0.888317
 ---------------------------------------------------------------------

 SCF Done:  E(UB3LYP) =  -725.706650297     A.U. after   28 cycles

 The electronic state is 2-A.
 Alpha  occ. eigenvalues --  -18.91845 -14.22248 -14.19684 -10.13285 -10.09972
 Alpha  occ. eigenvalues --  -10.08957 -10.06979 -10.06948 -10.06922 -10.06648
 Alpha  occ. eigenvalues --  -10.05070 -10.05053 -10.04633 -10.04342 -10.04005
 Alpha  occ. eigenvalues --  -10.03836 -10.01798  -0.86502  -0.85898  -0.80253
 Alpha  occ. eigenvalues --   -0.72797  -0.70010  -0.66062  -0.62878  -0.62051
 Alpha  occ. eigenvalues --   -0.61068  -0.54156  -0.52345  -0.50138  -0.48145
 Alpha  occ. eigenvalues --   -0.46886  -0.43784  -0.42083  -0.39888  -0.38219
 Alpha  occ. eigenvalues --   -0.36527  -0.34777  -0.34313  -0.32464  -0.31740
 Alpha  occ. eigenvalues --   -0.31201  -0.30623  -0.29823  -0.29183  -0.27948
 Alpha  occ. eigenvalues --   -0.26429  -0.25883  -0.24713  -0.23979  -0.22593
 Alpha  occ. eigenvalues --   -0.21736  -0.20925  -0.18594  -0.16018  -0.15570
 Alpha  occ. eigenvalues --   -0.13339  -0.12784  -0.08866  -0.08080   0.03384
 Alpha virt. eigenvalues --    0.06833   0.07135   0.08359   0.08580   0.08931
 Alpha virt. eigenvalues --    0.09732   0.10195   0.10898   0.11006   0.11407
 Alpha virt. eigenvalues --    0.12633   0.12757   0.13269   0.13940   0.14391

  Beta  occ. eigenvalues --  -18.91242 -14.22302 -14.19719 -10.13173 -10.09907
  Beta  occ. eigenvalues --  -10.08981 -10.06867 -10.06711 -10.06604 -10.06575
  Beta  occ. eigenvalues --  -10.05102 -10.05091 -10.04467 -10.04259 -10.03907
  Beta  occ. eigenvalues --  -10.03799 -10.01820  -0.86377  -0.84857  -0.80161
  Beta  occ. eigenvalues --   -0.72619  -0.69920  -0.65753  -0.62561  -0.61895
  Beta  occ. eigenvalues --   -0.60830  -0.53917  -0.52180  -0.49627  -0.48014
  Beta  occ. eigenvalues --   -0.46655  -0.43726  -0.41805  -0.39764  -0.38086
  Beta  occ. eigenvalues --   -0.36359  -0.34669  -0.34139  -0.32307  -0.31479
  Beta  occ. eigenvalues --   -0.30993  -0.30510  -0.29779  -0.28993  -0.27779
  Beta  occ. eigenvalues --   -0.26026  -0.25328  -0.24227  -0.23495  -0.22064
  Beta  occ. eigenvalues --   -0.21517  -0.19470  -0.18292  -0.16027  -0.14592
  Beta  occ. eigenvalues --   -0.12942  -0.11726  -0.08381  -0.07175
  Beta virt. eigenvalues --    0.06793   0.07246   0.08318   0.08505   0.08654
  Beta virt. eigenvalues --    0.09664   0.10100   0.10236   0.10894   0.11143
  Beta virt. eigenvalues --    0.11424   0.12623   0.13232   0.13861   0.14067

 Mulliken charges and spin densities:
               1          2
     1  C   -0.366981   0.122989
     2  C   -0.237769  -0.018928
     3  C    0.164095   0.074749
     4  C    1.086550   0.052530
     5  C   -0.539150   0.089634
     6  C   -0.298097  -0.045115
     7  C   -1.170004   0.172559
     8  O   -0.383947   0.211119
     9  C   -0.104334  -0.045986
    10  C   -0.172565   0.226129
    11  N   -0.027937  -0.024824
    12  C   -0.719109   0.034182
    13  C    0.529189   0.095615
    14  C   -0.372645  -0.004172
    15  C   -0.091163   0.054536
    16  C   -0.157600   0.047594
    17  N   -0.033254  -0.020601
    18  H    0.109531  -0.010306
    19  H    0.131944   0.002100
    20  H    0.184135  -0.005965
    21  H    0.184606  -0.003398
    22  H    0.134568   0.003072
    23  H    0.153853   0.017320
    24  H    0.097558  -0.018786
    25  H    0.330970  -0.001049
    26  H    0.126204   0.001311
    27  H    0.147011   0.001906
    28  H    0.127757  -0.004652
    29  H    0.166583  -0.003564
 Sum of Mulliken charges =  -1.00000   1.00000

 Dipole moment (field-independent basis, Debye):
    X=             -6.6640    Y=             -3.3932    Z=              1.1227  Tot=              7.5619
 Quadrupole moment (field-independent basis, Debye-Ang):
   XX=           -146.3362   YY=           -122.9579   ZZ=           -109.2908
   XY=            -16.6988   XZ=             -0.9067   YZ=              3.6770

 Summary of Natural Population Analysis:

                                       Natural Population
                Natural  -----------------------------------------------
    Atom  No    Charge         Core      Valence    Rydberg      Total
 -----------------------------------------------------------------------
      C    1   -0.07770      0.99958     2.06868    0.00945     3.07770
      C    2   -0.12018      0.99957     2.11135    0.00926     3.12018
      C    3   -0.06648      0.99953     2.05769    0.00926     3.06648
      C    4   -0.05331      0.99948     2.04247    0.01136     3.05331
      C    5   -0.08807      0.99953     2.08017    0.00838     3.08807
      C    6   -0.11685      0.99957     2.10790    0.00937     3.11685
      C    7    0.27094      0.99958     1.70870    0.02079     2.72906
      O    8   -0.24070      0.99988     3.23425    0.00657     4.24070
      C    9   -0.17865      0.99955     2.16851    0.01060     3.17865
      C   10    0.07189      0.99956     1.91754    0.01101     2.92811
      N   11   -0.29962      0.99965     2.78937    0.01060     3.79962
      C   12    0.21949      0.99954     1.76765    0.01332     2.78051
      C   13   -0.13200      0.99953     2.12464    0.00783     3.13200
      C   14   -0.08488      0.99958     2.07626    0.00904     3.08488
      C   15   -0.14594      0.99957     2.13669    0.00968     3.14594
      C   16    0.04133      0.99961     1.94465    0.01441     2.95867
      N   17   -0.25481      0.99968     2.74562    0.00950     3.75481
      H   18    0.08980      0.00000     0.40918    0.00102     0.41020
      H   19    0.09214      0.00000     0.40682    0.00104     0.40786
      H   20    0.10507      0.00000     0.39370    0.00123     0.39493
      H   21    0.10355      0.00000     0.39522    0.00123     0.39645
      H   22    0.09375      0.00000     0.40522    0.00103     0.40625
      H   23    0.09956      0.00000     0.39840    0.00203     0.40044
      H   24    0.08266      0.00000     0.41581    0.00153     0.41734
      H   25    0.21097      0.00000     0.28698    0.00205     0.28903
      H   26    0.10283      0.00000     0.39617    0.00101     0.39717
      H   27    0.09483      0.00000     0.40422    0.00095     0.40517
      H   28    0.09630      0.00000     0.40264    0.00107     0.40370
      H   29    0.08408      0.00000     0.41473    0.00119     0.41592
 =======================================================================
   * Total *    0.00000     16.99298    41.81122    0.19580    59.00000

 Normal termination of Gaussian 16 at Fri Dec 11 12:18:30 2020.
