 Gaussian 16, Revision A.03,

 -----------------------------------------------------------
 # opt freq B3LYP/6-31G(d) empiricaldispersion=gd3bj scf=xqc
 -----------------------------------------------------------

 -------------------------------
 CID_103620951_JID_2083_neutraal
 -------------------------------
 Symbolic Z-matrix:
 Charge =  0 Multiplicity = 1

 SCF Done:  E(RB3LYP) =  -609.196746837     A.U. after   15 cycles
 SCF Done:  E(RB3LYP) =  -609.203928675     A.U. after   12 cycles
 SCF Done:  E(RB3LYP) =  -609.204748382     A.U. after   12 cycles
 SCF Done:  E(RB3LYP) =  -609.205157243     A.U. after   12 cycles
 SCF Done:  E(RB3LYP) =  -609.205644186     A.U. after   13 cycles
 SCF Done:  E(RB3LYP) =  -609.206056492     A.U. after   12 cycles
 SCF Done:  E(RB3LYP) =  -609.206371108     A.U. after   12 cycles
 SCF Done:  E(RB3LYP) =  -609.206335376     A.U. after   12 cycles
 SCF Done:  E(RB3LYP) =  -609.206694877     A.U. after   12 cycles
 SCF Done:  E(RB3LYP) =  -609.206733711     A.U. after   12 cycles
 SCF Done:  E(RB3LYP) =  -609.206930143     A.U. after    8 cycles
 SCF Done:  E(RB3LYP) =  -609.206936465     A.U. after    9 cycles
 SCF Done:  E(RB3LYP) =  -609.206941317     A.U. after   10 cycles
 SCF Done:  E(RB3LYP) =  -609.206944744     A.U. after    9 cycles
 SCF Done:  E(RB3LYP) =  -609.206945413     A.U. after    8 cycles
 SCF Done:  E(RB3LYP) =  -609.206945526     A.U. after    7 cycles
 Optimization completed.
    -- Stationary point found.
 Normal termination of Gaussian 16 at Wed Dec  9 16:50:05 2020.

 --------------------------------------------------------------------
 #N Geom=AllCheck Guess=TCheck SCRF=Check GenChk RB3LYP/6-31G(d) Freq
 --------------------------------------------------------------------

 Structure from the checkpoint file:  "JID_2083.chk"
 -------------------------------
 CID_103620951_JID_2083_neutraal
 -------------------------------
 Charge =  0 Multiplicity = 1

 SCF Done:  E(RB3LYP) =  -609.206945526     A.U. after    1 cycles

  Exact polarizability: 106.062  -3.594  93.582  -8.805  -0.734  72.401
 Approx polarizability: 143.107 -15.859 149.192 -16.285   4.854 102.748

                      1                      2                      3
                      A                      A                      A
 Frequencies --     43.0442                76.4169               112.7385
 Red. masses --      4.8955                 4.6526                 2.6732
 Frc consts  --      0.0053                 0.0160                 0.0200
 IR Inten    --      0.8277                 3.0553                 2.4505

                      4                      5                      6
                      A                      A                      A
 Frequencies --    123.3970               150.6397               164.4761
 Red. masses --      2.0545                 3.6359                 3.0758
 Frc consts  --      0.0184                 0.0486                 0.0490
 IR Inten    --      4.3964                13.3581                22.8418

                      7                      8                      9
                      A                      A                      A
 Frequencies --    177.4227               217.0088               240.2169
 Red. masses --      1.7478                 2.1863                 1.5762
 Frc consts  --      0.0324                 0.0607                 0.0536
 IR Inten    --      4.0349                 2.9439                 0.2066

                     10                     11                     12
                      A                      A                      A
 Frequencies --    275.1786               283.3764               389.8727
 Red. masses --      3.6165                 3.1190                 2.8293
 Frc consts  --      0.1613                 0.1476                 0.2534
 IR Inten    --      0.6671                 6.7074                30.7966

                     13                     14                     15
                      A                      A                      A
 Frequencies --    407.5863               415.7385               448.9142
 Red. masses --      1.9931                 2.1665                 1.9887
 Frc consts  --      0.1951                 0.2206                 0.2361
 IR Inten    --     47.2847                82.2335                 2.8657

                     16                     17                     18
                      A                      A                      A
 Frequencies --    565.9127               583.7144               603.6749
 Red. masses --      4.4926                 3.5971                 4.1242
 Frc consts  --      0.8477                 0.7221                 0.8855
 IR Inten    --      4.5105                 2.3260                 3.5371

                     19                     20                     21
                      A                      A                      A
 Frequencies --    669.1864               719.3261               745.5607
 Red. masses --      5.3544                 3.6690                 6.4296
 Frc consts  --      1.4127                 1.1185                 2.1057
 IR Inten    --     10.9242                 6.4031                44.8438

                     22                     23                     24
                      A                      A                      A
 Frequencies --    753.9325               849.2896               943.5463
 Red. masses --      8.8428                 3.1472                 2.8674
 Frc consts  --      2.9614                 1.3375                 1.5041
 IR Inten    --     23.8872                 2.7109                33.2810

                     25                     26                     27
                      A                      A                      A
 Frequencies --    959.8154              1015.0450              1026.3490
 Red. masses --      1.8310                 2.6509                 1.9764
 Frc consts  --      0.9938                 1.6092                 1.2266
 IR Inten    --      4.1741                 7.4122                 4.2950

                     28                     29                     30
                      A                      A                      A
 Frequencies --   1045.3943              1086.1947              1104.3123
 Red. masses --      2.3452                 1.9412                 1.8710
 Frc consts  --      1.5100                 1.3494                 1.3444
 IR Inten    --     12.1047                17.2337                69.8506

                     31                     32                     33
                      A                      A                      A
 Frequencies --   1149.8846              1188.7871              1198.1874
 Red. masses --      2.2033                 1.5982                 2.1244
 Frc consts  --      1.7165                 1.3307                 1.7970
 IR Inten    --      9.1261                14.0326                49.5137

                     34                     35                     36
                      A                      A                      A
 Frequencies --   1205.1139              1215.9704              1246.8076
 Red. masses --      1.1134                 2.9535                 1.8480
 Frc consts  --      0.9527                 2.5730                 1.6926
 IR Inten    --      1.5282                20.0329                19.6309

                     37                     38                     39
                      A                      A                      A
 Frequencies --   1254.8817              1334.8233              1341.2125
 Red. masses --      4.1132                 1.9640                 1.2038
 Frc consts  --      3.8162                 2.0618                 1.2758
 IR Inten    --     90.5720                69.5516                13.5013

                     40                     41                     42
                      A                      A                      A
 Frequencies --   1380.1680              1417.5740              1423.9211
 Red. masses --      1.3722                 1.6948                 1.3701
 Frc consts  --      1.5401                 2.0066                 1.6368
 IR Inten    --      1.5016                76.6088                48.2136

                     43                     44                     45
                      A                      A                      A
 Frequencies --   1432.4690              1448.1250              1453.0967
 Red. masses --      1.5876                 1.6530                 2.0772
 Frc consts  --      1.9194                 2.0424                 2.5841
 IR Inten    --     11.2463                60.7880               182.0291

                     46                     47                     48
                      A                      A                      A
 Frequencies --   1497.5366              1507.6881              1519.7381
 Red. masses --      1.1138                 1.0498                 1.0635
 Frc consts  --      1.4716                 1.4059                 1.4472
 IR Inten    --      2.5942                 3.6647                16.8338

                     49                     50                     51
                      A                      A                      A
 Frequencies --   1524.1538              1525.1368              1537.9110
 Red. masses --      1.1224                 1.1067                 1.0526
 Frc consts  --      1.5362                 1.5167                 1.4668
 IR Inten    --      1.5190                21.7320                 1.0695

                     52                     53                     54
                      A                      A                      A
 Frequencies --   1557.5991              1817.5596              1875.2753
 Red. masses --      1.0501                11.3891                11.0252
 Frc consts  --      1.5011                22.1676                22.8437
 IR Inten    --     11.2909               698.5171               100.8045

                     55                     56                     57
                      A                      A                      A
 Frequencies --   2996.2283              3011.7272              3056.2551
 Red. masses --      1.0677                 1.0478                 1.0596
 Frc consts  --      5.6475                 5.5995                 5.8314
 IR Inten    --     42.1157                78.4930                22.1506

                     58                     59                     60
                      A                      A                      A
 Frequencies --   3066.7413              3074.5681              3097.4562
 Red. masses --      1.0477                 1.0783                 1.1053
 Frc consts  --      5.8054                 6.0058                 6.2482
 IR Inten    --     15.7700                19.6328                12.0352

                     61                     62                     63
                      A                      A                      A
 Frequencies --   3101.0956              3108.1761              3125.4078
 Red. masses --      1.0945                 1.0857                 1.1025
 Frc consts  --      6.2017                 6.1795                 6.3453
 IR Inten    --     24.9012                26.8331                29.3294

                     64                     65                     66
                      A                      A                      A
 Frequencies --   3138.6843              3200.7487              3661.0746
 Red. masses --      1.1065                 1.0959                 1.0788
 Frc consts  --      6.4226                 6.6150                 8.5197
 IR Inten    --     27.3564                 4.9400                53.2612

 - Thermochemistry -
 -------------------
 Temperature   298.150 Kelvin.  Pressure   1.00000 Atm.
 Atom     1 has atomic number  6 and mass  12.00000

 Molecular mass:   172.08479 amu.
 Principal axes and moments of inertia in atomic units:
                           1         2         3
     Eigenvalues --  1351.340202261.480862677.84609
           X            0.99953   0.02560  -0.01686
           Y           -0.02645   0.99827  -0.05247
           Z            0.01549   0.05290   0.99848
 This molecule is an asymmetric top.
 Rotational symmetry number  1.
 Warning -- assumption of classical behavior for rotation
           may cause significant error
 Rotational temperatures (Kelvin)      0.06409     0.03830     0.03234
 Rotational constants (GHZ):           1.33552     0.79804     0.67395
 Zero-point vibrational energy     525693.4 (Joules/Mol)
                                  125.64373 (Kcal/Mol)
 Warning -- explicit consideration of  18 degrees of freedom as
           vibrations may cause significant error
 Vibrational temperatures:     61.93   109.95   162.21   177.54   216.74
          (Kelvin)            236.64   255.27   312.23   345.62   395.92
                              407.72   560.94   586.43   598.15   645.89
                              814.22   839.83   868.55   962.81  1034.95
                             1072.70  1084.74  1221.94  1357.55  1380.96
                             1460.42  1476.69  1504.09  1562.79  1588.86
                             1654.43  1710.40  1723.92  1733.89  1749.51
                             1793.88  1805.49  1920.51  1929.71  1985.75
                             2039.57  2048.70  2061.00  2083.53  2090.68
                             2154.62  2169.23  2186.56  2192.92  2194.33
                             2212.71  2241.04  2615.06  2698.10  4310.90
                             4333.20  4397.27  4412.36  4423.62  4456.55
                             4461.78  4471.97  4496.76  4515.87  4605.16
                             5267.47

 Zero-point correction=                           0.200226 (Hartree/Particle)
 Thermal correction to Energy=                    0.212494
 Thermal correction to Enthalpy=                  0.213438
 Thermal correction to Gibbs Free Energy=         0.161625
 Sum of electronic and zero-point Energies=           -609.006720
 Sum of electronic and thermal Energies=              -608.994452
 Sum of electronic and thermal Enthalpies=            -608.993507
 Sum of electronic and thermal Free Energies=         -609.045320

                     E (Thermal)             CV                S
                      KCal/Mol        Cal/Mol-Kelvin    Cal/Mol-Kelvin
 Total                  133.342             44.369            109.050
 Electronic               0.000              0.000              0.000
 Translational            0.889              2.981             41.336
 Rotational               0.889              2.981             30.482
 Vibrational            131.565             38.407             37.231
 Vibration     1          0.595              1.980              5.114
 Vibration     2          0.599              1.965              3.981
 Vibration     3          0.607              1.939              3.221
 Vibration     4          0.610              1.930              3.046
 Vibration     5          0.618              1.902              2.664
 Vibration     6          0.623              1.886              2.498
 Vibration     7          0.628              1.870              2.355
 Vibration     8          0.646              1.815              1.984
 Vibration     9          0.657              1.779              1.801
 Vibration    10          0.677              1.719              1.563
 Vibration    11          0.682              1.704              1.513
 Vibration    12          0.758              1.492              1.001
 Vibration    13          0.772              1.454              0.935
 Vibration    14          0.779              1.436              0.907
 Vibration    15          0.808              1.363              0.799
 Vibration    16          0.922              1.105              0.512
 Vibration    17          0.941              1.067              0.479
 Vibration    18          0.962              1.024              0.443

 Optimization completed.
    -- Stationary point found.
 Normal termination of Gaussian 16 at Wed Dec  9 16:55:32 2020.

 ----------------------------------------------------------------------
 # B3LYP/6-311++G(d,p) empiricaldispersion=gd3bj scf=xqc pop=npa geom=c
 heck
 ----------------------------------------------------------------------

 ---------------------------------------
 CID_103620951_JID_2083_Energie_neutraal
 ---------------------------------------
 Structure from the checkpoint file:  "JID_2083.chk"
 Charge =  0 Multiplicity = 1

 SCF Done:  E(RB3LYP) =  -609.390355059     A.U. after   14 cycles
 Normal termination of Gaussian 16 at Wed Dec  9 16:57:30 2020.

 ----------------------------------------------------------------------
 # B3LYP/6-311++G(d,p) empiricaldispersion=gd3bj scf=xqc pop=npa geom=c
 heck
 ----------------------------------------------------------------------

 -------------------------------------
 CID_103620951_JID_2083_Energie_kation
 -------------------------------------
 Structure from the checkpoint file:  "JID_2083.chk"
 Charge =  1 Multiplicity = 2

 SCF Done:  E(UB3LYP) =  -609.059509629     A.U. after   26 cycles
 Normal termination of Gaussian 16 at Wed Dec  9 17:02:12 2020.
 Gaussian 16:  ES64L-G16RevA.03 25-Dec-2016

 ----------------------------------------------------------------------
 # B3LYP/6-311++G(d,p) empiricaldispersion=gd3bj scf=xqc pop=npa geom=c
 heck
 ----------------------------------------------------------------------

 ------------------------------------
 CID_103620951_JID_2083_Energie_anion
 ------------------------------------
 Structure from the checkpoint file:  "JID_2083.chk"
 Charge = -1 Multiplicity = 2

                         Standard orientation:
 ---------------------------------------------------------------------
 Center     Atomic      Atomic             Coordinates (Angstroms)
 Number     Number       Type             X           Y           Z
 ---------------------------------------------------------------------
      1          6           0       -1.364878   -0.515987    1.919210
      2          6           0       -0.623812   -1.023695    0.681074
      3          6           0       -1.470039   -1.212467   -0.598345
      4          8           0       -1.730339   -0.045615   -1.343367
      5          6           0       -2.801435    0.762382   -0.879243
      6          7           0        0.562493   -0.222312    0.363819
      7          6           0        1.701503   -0.803202   -0.160574
      8          8           0        1.903400   -1.992159   -0.305498
      9          6           0        2.645618    0.342218   -0.527928
     10          7           0        1.899791    1.503508   -0.091992
     11          6           0        0.626496    1.189998    0.324649
     12          8           0       -0.249517    1.973018    0.634522
     13          1           0       -1.737112    0.499131    1.796154
     14          1           0       -0.698254   -0.529515    2.787805
     15          1           0       -2.206559   -1.185004    2.127503
     16          1           0       -0.220964   -2.016434    0.911434
     17          1           0       -0.902371   -1.862689   -1.271805
     18          1           0       -2.405412   -1.731042   -0.330201
     19          1           0       -3.664796    0.145626   -0.585888
     20          1           0       -2.497341    1.397116   -0.041897
     21          1           0       -3.094512    1.401754   -1.716841
     22          1           0        2.833189    0.324913   -1.609001
     23          1           0        3.602588    0.225041   -0.007221
     24          1           0        2.086481    2.445299   -0.401151
 ---------------------------------------------------------------------

 SCF Done:  E(UB3LYP) =  -609.377302431     A.U. after   32 cycles

 The electronic state is 2-A.
 Alpha  occ. eigenvalues --  -19.02951 -19.01275 -18.99863 -14.26453 -14.23977
 Alpha  occ. eigenvalues --  -10.20959 -10.19213 -10.12466 -10.12351 -10.12161
 Alpha  occ. eigenvalues --  -10.10975 -10.06724  -0.97830  -0.95169  -0.94091
 Alpha  occ. eigenvalues --   -0.87849  -0.81688  -0.69226  -0.63471  -0.62449
 Alpha  occ. eigenvalues --   -0.57175  -0.53905  -0.52471  -0.46438  -0.41888
 Alpha  occ. eigenvalues --   -0.40845  -0.39923  -0.39239  -0.37485  -0.36347
 Alpha  occ. eigenvalues --   -0.35326  -0.34559  -0.33108  -0.32224  -0.31600
 Alpha  occ. eigenvalues --   -0.30736  -0.29081  -0.29003  -0.27975  -0.25603
 Alpha  occ. eigenvalues --   -0.22215  -0.19376  -0.18613  -0.17391  -0.16599
 Alpha  occ. eigenvalues --   -0.15769   0.04514
 Alpha virt. eigenvalues --    0.06165   0.07834   0.08043   0.08856   0.09241
 Alpha virt. eigenvalues --    0.09789   0.10290   0.11178   0.11974   0.12173
 Alpha virt. eigenvalues --    0.13259   0.13588   0.14725   0.15482   0.15605

  Beta  occ. eigenvalues --  -19.02942 -19.01267 -18.99858 -14.26438 -14.23934
  Beta  occ. eigenvalues --  -10.20960 -10.19209 -10.12459 -10.12334 -10.12108
  Beta  occ. eigenvalues --  -10.10958 -10.06698  -0.97813  -0.95158  -0.94078
  Beta  occ. eigenvalues --   -0.87826  -0.81637  -0.69186  -0.63383  -0.62415
  Beta  occ. eigenvalues --   -0.57128  -0.53847  -0.52425  -0.46386  -0.41820
  Beta  occ. eigenvalues --   -0.40798  -0.39875  -0.39194  -0.37446  -0.36293
  Beta  occ. eigenvalues --   -0.35289  -0.34529  -0.33077  -0.32193  -0.31568
  Beta  occ. eigenvalues --   -0.30713  -0.29054  -0.28965  -0.27947  -0.25579
  Beta  occ. eigenvalues --   -0.22176  -0.19351  -0.18594  -0.17371  -0.16568
  Beta  occ. eigenvalues --   -0.15739
  Beta virt. eigenvalues --    0.06817   0.07990   0.08204   0.08297   0.09190
  Beta virt. eigenvalues --    0.10067   0.10471   0.11078   0.11413   0.12136
  Beta virt. eigenvalues --    0.12473   0.13590   0.13895   0.14811   0.15403

 Mulliken charges and spin densities:
               1          2
     1  C    0.903998  -1.369955
     2  C   -1.960207   1.853431
     3  C    1.067143  -1.483952
     4  O   -0.154526   0.039533
     5  C    0.039995  -0.325079
     6  N    0.362997  -0.231438
     7  C   -0.312666   0.528517
     8  O   -0.349713   0.032523
     9  C    2.029861  -2.456694
    10  N   -0.446894   0.217500
    11  C    0.413091  -0.258442
    12  O   -0.349466   0.006203
    13  H    0.068672   0.095811
    14  H   -0.107213   0.266188
    15  H   -0.224022   0.376730
    16  H   -0.148777   0.351459
    17  H    0.100028   0.094425
    18  H   -0.230411   0.362152
    19  H   -0.134158   0.254360
    20  H    0.137271   0.032046
    21  H   -0.040254   0.179407
    22  H   -0.569433   0.790674
    23  H   -0.583119   0.800239
    24  H   -0.512196   0.844363
 Sum of Mulliken charges =  -1.00000   1.00000

 Dipole moment (field-independent basis, Debye):
    X=             -4.0512    Y=             -1.7367    Z=              1.3770  Tot=              4.6178
 Quadrupole moment (field-independent basis, Debye-Ang):
   XX=           -132.8487   YY=           -115.7707   ZZ=           -105.3528
   XY=            -10.6289   XZ=              8.9036   YZ=              3.7427

 Summary of Natural Population Analysis:

                                       Natural Population
                Natural  -----------------------------------------------
    Atom  No    Charge         Core      Valence    Rydberg      Total
 -----------------------------------------------------------------------
      C    1   -0.29319      0.99964     2.28700    0.00655     3.29319
      C    2   -0.02288      0.99959     2.00996    0.01333     3.02288
      C    3   -0.00912      0.99955     1.99563    0.01394     3.00912
      O    4   -0.29657      0.99988     3.28711    0.00958     4.29657
      C    5   -0.09947      0.99960     2.09161    0.00825     3.09947
      N    6   -0.26620      0.99958     2.75458    0.01204     3.76620
      C    7    0.35588      0.99967     1.62247    0.02199     2.64412
      O    8   -0.30704      0.99987     3.30137    0.00580     4.30704
      C    9   -0.12376      0.99960     2.11295    0.01120     3.12376
      N   10   -0.32255      0.99969     2.81185    0.01101     3.82255
      C   11    0.41816      0.99968     1.55796    0.02420     2.58184
      O   12   -0.32153      0.99987     3.31592    0.00574     4.32153
      H   13    0.11211      0.00000     0.38661    0.00128     0.38789
      H   14    0.10252      0.00000     0.39649    0.00099     0.39748
      H   15    0.10171      0.00000     0.39695    0.00134     0.39829
      H   16    0.11070      0.00000     0.38752    0.00177     0.38930
      H   17    0.09543      0.00000     0.40314    0.00143     0.40457
      H   18    0.08107      0.00000     0.41734    0.00159     0.41893
      H   19    0.07529      0.00000     0.42303    0.00168     0.42471
      H   20    0.09201      0.00000     0.40644    0.00154     0.40799
      H   21    0.08659      0.00000     0.41219    0.00122     0.41341
      H   22    0.11309      0.00000     0.38255    0.00436     0.38691
      H   23    0.11023      0.00000     0.38719    0.00258     0.38977
      H   24    0.20749      0.00000     0.28090    0.01160     0.29251
 =======================================================================
   * Total *    0.00000     11.99622    33.82875    0.17502    46.00000

 Normal termination of Gaussian 16 at Wed Dec  9 17:09:33 2020.
