 Gaussian 16, Revision A.03,

 -----------------------------------------------------------
 # opt freq B3LYP/6-31G(d) empiricaldispersion=gd3bj scf=xqc
 -----------------------------------------------------------

 -------------------------------
 CID_129982484_JID_3272_neutraal
 -------------------------------
 Symbolic Z-matrix:
 Charge =  0 Multiplicity = 1

 SCF Done:  E(RB3LYP) =  -576.668237507     A.U. after   15 cycles
 SCF Done:  E(RB3LYP) =  -576.672590988     A.U. after   12 cycles
 SCF Done:  E(RB3LYP) =  -576.673319879     A.U. after   12 cycles
 SCF Done:  E(RB3LYP) =  -576.673644203     A.U. after   12 cycles
 SCF Done:  E(RB3LYP) =  -576.674314516     A.U. after   12 cycles
 SCF Done:  E(RB3LYP) =  -576.674725530     A.U. after   12 cycles
 SCF Done:  E(RB3LYP) =  -576.675068366     A.U. after   12 cycles
 SCF Done:  E(RB3LYP) =  -576.675306510     A.U. after   12 cycles
 SCF Done:  E(RB3LYP) =  -576.675386290     A.U. after   12 cycles
 SCF Done:  E(RB3LYP) =  -576.675502853     A.U. after   11 cycles
 SCF Done:  E(RB3LYP) =  -576.675540910     A.U. after   10 cycles
 SCF Done:  E(RB3LYP) =  -576.675544470     A.U. after   10 cycles
 SCF Done:  E(RB3LYP) =  -576.675544835     A.U. after    9 cycles
 SCF Done:  E(RB3LYP) =  -576.675545217     A.U. after    9 cycles
 SCF Done:  E(RB3LYP) =  -576.675545416     A.U. after    8 cycles
 Optimization completed.
    -- Stationary point found.
 Normal termination of Gaussian 16 at Wed Dec  9 22:35:19 2020.

 --------------------------------------------------------------------
 #N Geom=AllCheck Guess=TCheck SCRF=Check GenChk RB3LYP/6-31G(d) Freq
 --------------------------------------------------------------------

 Structure from the checkpoint file:  "JID_3272.chk"
 -------------------------------
 CID_129982484_JID_3272_neutraal
 -------------------------------
 Charge =  0 Multiplicity = 1

 SCF Done:  E(RB3LYP) =  -576.675545416     A.U. after    1 cycles

  Exact polarizability: 141.554  -7.049 108.421   1.401   7.067 105.227
 Approx polarizability: 168.674  -7.722 170.771   4.189  23.259 166.669

                      1                      2                      3
                      A                      A                      A
 Frequencies --     29.0267                58.5630                72.1025
 Red. masses --      4.0486                 5.3601                 2.8275
 Frc consts  --      0.0020                 0.0108                 0.0087
 IR Inten    --      0.5865                 4.3425                 0.4592

                      4                      5                      6
                      A                      A                      A
 Frequencies --     97.3141               144.1328               163.4187
 Red. masses --      3.0513                 3.0638                 2.3962
 Frc consts  --      0.0170                 0.0375                 0.0377
 IR Inten    --      4.3699                 1.7160                 1.8348

                      7                      8                      9
                      A                      A                      A
 Frequencies --    183.9159               214.7964               228.2445
 Red. masses --      1.1184                 2.5243                 2.4576
 Frc consts  --      0.0223                 0.0686                 0.0754
 IR Inten    --      1.4919                 1.6157                 4.8271

                     10                     11                     12
                      A                      A                      A
 Frequencies --    266.1061               293.0642               325.3080
 Red. masses --      1.2032                 2.7596                 3.5070
 Frc consts  --      0.0502                 0.1396                 0.2187
 IR Inten    --     61.3599                 4.3751                 1.9302

                     13                     14                     15
                      A                      A                      A
 Frequencies --    359.5330               380.0612               390.2080
 Red. masses --      3.2980                 2.6738                 2.3017
 Frc consts  --      0.2512                 0.2276                 0.2065
 IR Inten    --      0.9499                11.4378                 3.5037

                     16                     17                     18
                      A                      A                      A
 Frequencies --    456.7270               465.9985               480.5254
 Red. masses --      2.0193                 2.7713                 3.6797
 Frc consts  --      0.2482                 0.3546                 0.5006
 IR Inten    --      3.4322                 2.0221                 6.9656

                     19                     20                     21
                      A                      A                      A
 Frequencies --    546.1017               574.0352               606.5325
 Red. masses --      2.8467                 3.8421                 2.0474
 Frc consts  --      0.5002                 0.7459                 0.4438
 IR Inten    --      3.8296                12.2264                 2.6499

                     22                     23                     24
                      A                      A                      A
 Frequencies --    682.1050               732.9930               797.8687
 Red. masses --      1.7837                 3.3975                 2.3165
 Frc consts  --      0.4890                 1.0755                 0.8689
 IR Inten    --      3.0192                 6.5956                 6.7483

                     25                     26                     27
                      A                      A                      A
 Frequencies --    802.5973               828.0946               872.9578
 Red. masses --      2.2313                 1.5381                 1.3169
 Frc consts  --      0.8469                 0.6214                 0.5913
 IR Inten    --      4.4082                 0.1155               111.7224

                     28                     29                     30
                      A                      A                      A
 Frequencies --    903.1674               937.8585               945.7758
 Red. masses --      2.6928                 1.8706                 1.3465
 Frc consts  --      1.2942                 0.9694                 0.7096
 IR Inten    --     10.1146                23.7081                36.0571

                     31                     32                     33
                      A                      A                      A
 Frequencies --    961.5800               978.3694               990.9175
 Red. masses --      1.7514                 1.9983                 2.0138
 Frc consts  --      0.9541                 1.1270                 1.1650
 IR Inten    --      5.3784                10.4480                 6.4545

                     34                     35                     36
                      A                      A                      A
 Frequencies --    997.7631              1029.9651              1049.3574
 Red. masses --      1.5838                 1.6990                 1.7542
 Frc consts  --      0.9290                 1.0619                 1.1381
 IR Inten    --      4.4728                 7.5048                 5.0136

                     37                     38                     39
                      A                      A                      A
 Frequencies --   1066.0544              1087.6570              1101.4029
 Red. masses --      2.6916                 1.4766                 1.9137
 Frc consts  --      1.8023                 1.0292                 1.3678
 IR Inten    --     28.5919                 1.6778                 1.3318

                     40                     41                     42
                      A                      A                      A
 Frequencies --   1128.7537              1161.8373              1176.4996
 Red. masses --      2.4205                 2.3248                 1.5425
 Frc consts  --      1.8170                 1.8490                 1.2579
 IR Inten    --      9.4628                64.3552                 7.6393

                     43                     44                     45
                      A                      A                      A
 Frequencies --   1202.7018              1224.1762              1248.5294
 Red. masses --      1.2830                 1.8830                 2.0108
 Frc consts  --      1.0935                 1.6626                 1.8468
 IR Inten    --      2.5808                91.0169                 9.1151

                     46                     47                     48
                      A                      A                      A
 Frequencies --   1294.1440              1305.0309              1312.8067
 Red. masses --      1.5187                 1.3426                 1.4086
 Frc consts  --      1.4986                 1.3472                 1.4303
 IR Inten    --     11.1326                 2.9478                12.5541

                     49                     50                     51
                      A                      A                      A
 Frequencies --   1339.9794              1354.9679              1371.4628
 Red. masses --      2.0031                 1.2938                 1.2277
 Frc consts  --      2.1191                 1.3995                 1.3605
 IR Inten    --     42.9689                 1.9095                18.2772

                     52                     53                     54
                      A                      A                      A
 Frequencies --   1391.2613              1405.7315              1415.0463
 Red. masses --      1.2509                 1.4690                 1.5364
 Frc consts  --      1.4266                 1.7103                 1.8126
 IR Inten    --      2.1632                10.0218                 6.7227

                     55                     56                     57
                      A                      A                      A
 Frequencies --   1428.7743              1429.7229              1449.4905
 Red. masses --      1.3618                 1.2441                 1.4857
 Frc consts  --      1.6379                 1.4984                 1.8391
 IR Inten    --      6.0850                10.5391                29.4831

                     58                     59                     60
                      A                      A                      A
 Frequencies --   1458.2089              1475.5585              1504.0324
 Red. masses --      1.5300                 1.6943                 1.0497
 Frc consts  --      1.9168                 2.1735                 1.3991
 IR Inten    --     27.6252               108.8880                 7.5618

                     61                     62                     63
                      A                      A                      A
 Frequencies --   1505.5003              1507.8791              1519.2789
 Red. masses --      1.0992                 1.1048                 1.0915
 Frc consts  --      1.4679                 1.4800                 1.4845
 IR Inten    --      7.2079                12.3151                 7.3479

                     64                     65                     66
                      A                      A                      A
 Frequencies --   1524.9101              1530.1450              1535.4325
 Red. masses --      1.0642                 1.1242                 1.0909
 Frc consts  --      1.4581                 1.5509                 1.5153
 IR Inten    --      8.6735                14.5939                 3.8202

                     67                     68                     69
                      A                      A                      A
 Frequencies --   1701.4413              1715.2795              1735.2077
 Red. masses --      1.0891                 5.8398                 8.4258
 Frc consts  --      1.8576                10.1232                14.9474
 IR Inten    --     30.7242               117.9421               168.6984

                     70                     71                     72
                      A                      A                      A
 Frequencies --   2940.6237              3019.6511              3026.2001
 Red. masses --      1.0728                 1.0794                 1.0663
 Frc consts  --      5.4656                 5.7987                 5.7532
 IR Inten    --     65.2422                 4.5345                30.1116

                     73                     74                     75
                      A                      A                      A
 Frequencies --   3034.3573              3035.5846              3043.2411
 Red. masses --      1.0688                 1.0703                 1.0671
 Frc consts  --      5.7978                 5.8108                 5.8225
 IR Inten    --      4.4579                15.6892                66.5083

                     76                     77                     78
                      A                      A                      A
 Frequencies --   3044.9998              3064.6557              3075.5294
 Red. masses --      1.0420                 1.0903                 1.1000
 Frc consts  --      5.6921                 6.0332                 6.1301
 IR Inten    --     23.8344                15.3412                85.3975

                     79                     80                     81
                      A                      A                      A
 Frequencies --   3089.7481              3108.9802              3143.5147
 Red. masses --      1.1015                 1.0923                 1.1039
 Frc consts  --      6.1956                 6.2205                 6.4271
 IR Inten    --     55.6163                15.9822                12.9126

                     82                     83                     84
                      A                      A                      A
 Frequencies --   3161.1091              3169.2295              3173.9222
 Red. masses --      1.0598                 1.0927                 1.0906
 Frc consts  --      6.2397                 6.4664                 6.4730
 IR Inten    --      7.5950                 2.9935                10.5467

                     85                     86                     87
                      A                      A                      A
 Frequencies --   3241.9606              3474.5364              3555.7027
 Red. masses --      1.1162                 1.0501                 1.0920
 Frc consts  --      6.9121                 7.4689                 8.1347
 IR Inten    --     14.8768                 1.7002                 0.5666

 - Thermochemistry -
 -------------------
 Temperature   298.150 Kelvin.  Pressure   1.00000 Atm.
 Atom     1 has atomic number  6 and mass  12.00000

 Molecular mass:   182.14191 amu.
 Principal axes and moments of inertia in atomic units:
                           1         2         3
     Eigenvalues --  1089.935654436.821904652.48983
           X            0.99993  -0.01179  -0.00006
           Y            0.01179   0.99970  -0.02166
           Z            0.00031   0.02166   0.99977
 This molecule is an asymmetric top.
 Rotational symmetry number  1.
 Warning -- assumption of classical behavior for rotation
           may cause significant error
 Rotational temperatures (Kelvin)      0.07947     0.01952     0.01862
 Rotational constants (GHZ):           1.65582     0.40676     0.38791
 Zero-point vibrational energy     728881.9 (Joules/Mol)
                                  174.20695 (Kcal/Mol)
 Warning -- explicit consideration of  21 degrees of freedom as
           vibrations may cause significant error
 Vibrational temperatures:     41.76    84.26   103.74   140.01   207.38
          (Kelvin)            235.12   264.61   309.04   328.39   382.87
                              421.65   468.05   517.29   546.82   561.42
                              657.13   670.47   691.37   785.72   825.91
                              872.66   981.40  1054.61  1147.96  1154.76
                             1191.44  1255.99  1299.46  1349.37  1360.76
                             1383.50  1407.66  1425.71  1435.56  1481.89
                             1509.79  1533.81  1564.90  1584.67  1624.02
                             1671.62  1692.72  1730.42  1761.32  1796.36
                             1861.98  1877.65  1888.84  1927.93  1949.50
                             1973.23  2001.71  2022.53  2035.94  2055.69
                             2057.05  2085.49  2098.04  2123.00  2163.97
                             2166.08  2169.50  2185.90  2194.01  2201.54
                             2209.14  2447.99  2467.90  2496.58  4230.90
                             4344.60  4354.03  4365.76  4367.53  4378.55
                             4381.08  4409.36  4425.00  4445.46  4473.13
                             4522.82  4548.13  4559.81  4566.57  4664.46
                             4999.08  5115.86

 Zero-point correction=                           0.277616 (Hartree/Particle)
 Thermal correction to Energy=                    0.291353
 Thermal correction to Enthalpy=                  0.292297
 Thermal correction to Gibbs Free Energy=         0.236805
 Sum of electronic and zero-point Energies=           -576.397929
 Sum of electronic and thermal Energies=              -576.384192
 Sum of electronic and thermal Enthalpies=            -576.383248
 Sum of electronic and thermal Free Energies=         -576.438740

                     E (Thermal)             CV                S
                      KCal/Mol        Cal/Mol-Kelvin    Cal/Mol-Kelvin
 Total                  182.827             51.985            116.793
 Electronic               0.000              0.000              0.000
 Translational            0.889              2.981             41.505
 Rotational               0.889              2.981             31.487
 Vibrational            181.049             46.023             43.800
 Vibration     1          0.593              1.984              5.895
 Vibration     2          0.596              1.974              4.505
 Vibration     3          0.598              1.967              4.095
 Vibration     4          0.603              1.951              3.507
 Vibration     5          0.616              1.909              2.748
 Vibration     6          0.623              1.887              2.510
 Vibration     7          0.631              1.862              2.288
 Vibration     8          0.645              1.818              2.003
 Vibration     9          0.651              1.798              1.893
 Vibration    10          0.672              1.735              1.621
 Vibration    11          0.688              1.687              1.456
 Vibration    12          0.709              1.625              1.283
 Vibration    13          0.734              1.556              1.124
 Vibration    14          0.750              1.513              1.039
 Vibration    15          0.758              1.491              0.999
 Vibration    16          0.815              1.346              0.776
 Vibration    17          0.823              1.325              0.749
 Vibration    18          0.837              1.293              0.709
 Vibration    19          0.901              1.148              0.552
 Vibration    20          0.930              1.087              0.497
 Vibration    21          0.965              1.018              0.439

 Optimization completed.
    -- Stationary point found.
 Normal termination of Gaussian 16 at Wed Dec  9 22:44:24 2020.

 ----------------------------------------------------------------------
 # B3LYP/6-311++G(d,p) empiricaldispersion=gd3bj scf=xqc pop=npa geom=c
 heck
 ----------------------------------------------------------------------

 ---------------------------------------
 CID_129982484_JID_3272_Energie_neutraal
 ---------------------------------------
 Structure from the checkpoint file:  "JID_3272.chk"
 Charge =  0 Multiplicity = 1

 SCF Done:  E(RB3LYP) =  -576.846050272     A.U. after   15 cycles
 Normal termination of Gaussian 16 at Wed Dec  9 22:48:54 2020.

 ----------------------------------------------------------------------
 # B3LYP/6-311++G(d,p) empiricaldispersion=gd3bj scf=xqc pop=npa geom=c
 heck
 ----------------------------------------------------------------------

 -------------------------------------
 CID_129982484_JID_3272_Energie_kation
 -------------------------------------
 Structure from the checkpoint file:  "JID_3272.chk"
 Charge =  1 Multiplicity = 2

 SCF Done:  E(UB3LYP) =  -576.539690282     A.U. after   29 cycles
 Normal termination of Gaussian 16 at Wed Dec  9 23:01:33 2020.
 Gaussian 16:  ES64L-G16RevA.03 25-Dec-2016

 ----------------------------------------------------------------------
 # B3LYP/6-311++G(d,p) empiricaldispersion=gd3bj scf=xqc pop=npa geom=c
 heck
 ----------------------------------------------------------------------

 ------------------------------------
 CID_129982484_JID_3272_Energie_anion
 ------------------------------------
 Structure from the checkpoint file:  "JID_3272.chk"
 Charge = -1 Multiplicity = 2

                         Standard orientation:
 ---------------------------------------------------------------------
 Center     Atomic      Atomic             Coordinates (Angstroms)
 Number     Number       Type             X           Y           Z
 ---------------------------------------------------------------------
      1          6           0        3.341201   -0.286964    1.650316
      2          6           0        2.838611   -0.265693    0.232573
      3          6           0        3.436432   -0.907647   -0.776487
      4          6           0        1.699288    0.690066   -0.017621
      5          8           0        1.771911    1.830608    0.438964
      6          7           0        0.647462    0.276293   -0.801532
      7          6           0       -0.414605    1.245528   -1.079030
      8          6           0       -1.614333    1.034906   -0.150450
      9          6           0       -2.137708   -0.408022   -0.232847
     10          6           0       -0.983985   -1.395742   -0.004001
     11          6           0        0.210299   -1.115233   -0.926318
     12          6           0       -3.285817   -0.668769    0.747032
     13          7           0       -4.438521    0.194325    0.465458
     14          1           0        4.246706   -0.893264    1.743042
     15          1           0        2.581390   -0.691672    2.331838
     16          1           0        3.552211    0.734814    1.980815
     17          1           0        3.069560   -0.835720   -1.796336
     18          1           0        4.329660   -1.506387   -0.616351
     19          1           0       -0.723147    1.111330   -2.124760
     20          1           0        0.007292    2.242751   -0.961458
     21          1           0       -2.406489    1.742278   -0.422875
     22          1           0       -1.302128    1.262117    0.878608
     23          1           0       -2.535175   -0.563995   -1.246791
     24          1           0       -0.642007   -1.325623    1.038615
     25          1           0       -1.328110   -2.426452   -0.161363
     26          1           0        1.042069   -1.776791   -0.692014
     27          1           0       -0.074785   -1.292803   -1.972507
     28          1           0       -3.615423   -1.708909    0.632186
     29          1           0       -2.897193   -0.573646    1.778844
     30          1           0       -5.238011   -0.115067    1.014889
     31          1           0       -4.240593    1.143265    0.777419
 ---------------------------------------------------------------------

 SCF Done:  E(UB3LYP) =  -576.834718508     A.U. after   33 cycles
 SCF Done:  E(UB3LYP) =  -576.834718508     a.u. after    1 cycles

 The electronic state is 2-A.
 Alpha  occ. eigenvalues --  -18.97170 -14.22907 -14.18561 -10.15245 -10.09835
 Alpha  occ. eigenvalues --  -10.09418 -10.08335 -10.07361 -10.06709 -10.06576
 Alpha  occ. eigenvalues --  -10.06504 -10.06258 -10.05557  -0.92459  -0.83047
 Alpha  occ. eigenvalues --   -0.77776  -0.70389  -0.69048  -0.65750  -0.59867
 Alpha  occ. eigenvalues --   -0.58442  -0.54033  -0.52739  -0.48560  -0.46515
 Alpha  occ. eigenvalues --   -0.42682  -0.38926  -0.38168  -0.36450  -0.35798
 Alpha  occ. eigenvalues --   -0.35128  -0.33925  -0.33459  -0.32396  -0.31578
 Alpha  occ. eigenvalues --   -0.30683  -0.30232  -0.28611  -0.27378  -0.26884
 Alpha  occ. eigenvalues --   -0.26487  -0.25979  -0.24919  -0.23155  -0.22155
 Alpha  occ. eigenvalues --   -0.21242  -0.16050  -0.14576  -0.13932  -0.13246
 Alpha  occ. eigenvalues --    0.04587
 Alpha virt. eigenvalues --    0.06407   0.07284   0.07897   0.08257   0.09061
 Alpha virt. eigenvalues --    0.09811   0.10204   0.10593   0.11251   0.11486
 Alpha virt. eigenvalues --    0.12615   0.12787   0.13070   0.13704   0.14406

  Beta  occ. eigenvalues --  -18.97076 -14.22910 -14.18513 -10.15157 -10.09824
  Beta  occ. eigenvalues --  -10.09413 -10.08308 -10.07254 -10.06705 -10.06580
  Beta  occ. eigenvalues --  -10.06492 -10.06239 -10.05453  -0.92286  -0.82992
  Beta  occ. eigenvalues --   -0.77700  -0.70251  -0.68920  -0.65719  -0.59789
  Beta  occ. eigenvalues --   -0.58318  -0.53913  -0.52677  -0.48376  -0.46415
  Beta  occ. eigenvalues --   -0.42614  -0.38861  -0.38072  -0.36377  -0.35694
  Beta  occ. eigenvalues --   -0.35051  -0.33856  -0.33352  -0.32325  -0.31460
  Beta  occ. eigenvalues --   -0.30614  -0.30182  -0.28568  -0.27327  -0.26636
  Beta  occ. eigenvalues --   -0.26406  -0.25882  -0.24857  -0.23062  -0.22102
  Beta  occ. eigenvalues --   -0.21206  -0.15554  -0.14328  -0.13839  -0.13057
  Beta virt. eigenvalues --    0.07080   0.07550   0.07877   0.08314   0.08884
  Beta virt. eigenvalues --    0.09281   0.09975   0.10621   0.11010   0.11529
  Beta virt. eigenvalues --    0.11683   0.12609   0.13053   0.13290   0.13985

 Mulliken charges and spin densities:
               1          2
     1  C   -0.432700  -0.129243
     2  C    0.710028   0.203266
     3  C   -0.519183   0.001252
     4  C   -0.501445  -0.017338
     5  O   -0.341131   0.037252
     6  N    0.150229   0.061092
     7  C   -0.384943  -0.223198
     8  C    0.050838  -0.203677
     9  C   -0.389391   0.830860
    10  C   -0.167276  -0.287839
    11  C    0.351934  -0.712958
    12  C    1.153498  -1.870537
    13  N   -0.463749   0.121604
    14  H    0.107921   0.025007
    15  H    0.035647   0.102212
    16  H    0.187746  -0.003531
    17  H    0.150970  -0.001050
    18  H   -0.035639   0.135371
    19  H    0.064357   0.081755
    20  H    0.197989   0.017431
    21  H    0.115056   0.015604
    22  H    0.039197   0.157173
    23  H    0.109621   0.062551
    24  H    0.377786  -0.236891
    25  H   -0.291062   0.451095
    26  H   -0.224347   0.414769
    27  H    0.047918   0.103622
    28  H   -0.500757   0.673799
    29  H   -0.220964   0.341716
    30  H   -0.290468   0.537711
    31  H   -0.087679   0.311117
 Sum of Mulliken charges =  -1.00000   1.00000

 Dipole moment (field-independent basis, Debye):
    X=              5.7276    Y=              1.2652    Z=             -1.6654  Tot=              6.0975
 Quadrupole moment (field-independent basis, Debye-Ang):
   XX=           -167.6907   YY=           -119.8900   ZZ=           -104.4259
   XY=             -5.8775   XZ=              9.0607   YZ=             -4.0321

 Summary of Natural Population Analysis:

                                       Natural Population
                Natural  -----------------------------------------------
    Atom  No    Charge         Core      Valence    Rydberg      Total
 -----------------------------------------------------------------------
      C    1   -0.29762      0.99963     2.29231    0.00568     3.29762
      C    2   -0.02842      0.99950     2.01880    0.01012     3.02842
      C    3   -0.17313      0.99951     2.16607    0.00755     3.17313
      C    4    0.34612      0.99957     1.63011    0.02420     2.65388
      O    5   -0.32069      0.99988     3.31590    0.00491     4.32069
      N    6   -0.25692      0.99965     2.74772    0.00955     3.75692
      C    7   -0.08444      0.99961     2.07537    0.00946     3.08444
      C    8   -0.19865      0.99960     2.19045    0.00859     3.19865
      C    9   -0.11511      0.99958     2.10451    0.01102     3.11511
      C   10   -0.19380      0.99960     2.18564    0.00855     3.19380
      C   11   -0.08365      0.99960     2.07316    0.01088     3.08365
      C   12   -0.08332      0.99960     2.07166    0.01206     3.08332
      N   13   -0.42281      0.99977     2.91223    0.01081     3.92281
      H   14    0.09624      0.00000     0.40305    0.00071     0.40376
      H   15    0.10203      0.00000     0.39704    0.00092     0.39797
      H   16    0.11166      0.00000     0.38737    0.00097     0.38834
      H   17    0.09412      0.00000     0.40491    0.00097     0.40588
      H   18    0.08917      0.00000     0.40992    0.00092     0.41083
      H   19    0.08895      0.00000     0.40993    0.00112     0.41105
      H   20    0.11376      0.00000     0.38512    0.00112     0.38624
      H   21    0.10162      0.00000     0.39742    0.00095     0.39838
      H   22    0.09985      0.00000     0.39891    0.00125     0.40015
      H   23    0.09494      0.00000     0.40301    0.00204     0.40506
      H   24    0.09471      0.00000     0.40352    0.00177     0.40529
      H   25    0.10262      0.00000     0.39591    0.00147     0.39738
      H   26    0.11259      0.00000     0.38587    0.00154     0.38741
      H   27    0.08950      0.00000     0.40935    0.00115     0.41050
      H   28    0.09267      0.00000     0.40570    0.00163     0.40733
      H   29    0.07705      0.00000     0.42099    0.00195     0.42295
      H   30    0.17867      0.00000     0.31722    0.00411     0.32133
      H   31    0.17226      0.00000     0.32546    0.00227     0.32774
 =======================================================================
   * Total *    0.00000     12.99512    36.84462    0.16025    50.00000

 Normal termination of Gaussian 16 at Wed Dec  9 23:15:44 2020.
