 Gaussian 16, Revision A.03,

 -----------------------------------------------------------
 # opt freq B3LYP/6-31G(d) empiricaldispersion=gd3bj scf=xqc
 -----------------------------------------------------------

 ------------------------------
 CID_67343043_JID_7705_neutraal
 ------------------------------
 Symbolic Z-matrix:
 Charge =  0 Multiplicity = 1

 SCF Done:  E(RB3LYP) =  -779.843790237     A.U. after   16 cycles
 SCF Done:  E(RB3LYP) =  -779.847191020     A.U. after   12 cycles
 SCF Done:  E(RB3LYP) =  -779.847932570     A.U. after   12 cycles
 SCF Done:  E(RB3LYP) =  -779.848245114     A.U. after   12 cycles
 SCF Done:  E(RB3LYP) =  -779.848436742     A.U. after   12 cycles
 SCF Done:  E(RB3LYP) =  -779.848682317     A.U. after   11 cycles
 SCF Done:  E(RB3LYP) =  -779.848957788     A.U. after   12 cycles
 SCF Done:  E(RB3LYP) =  -779.848999174     A.U. after   11 cycles
 SCF Done:  E(RB3LYP) =  -779.849051272     A.U. after   11 cycles
 SCF Done:  E(RB3LYP) =  -779.849070188     A.U. after   10 cycles
 SCF Done:  E(RB3LYP) =  -779.849086416     A.U. after    8 cycles
 SCF Done:  E(RB3LYP) =  -779.849086451     A.U. after    7 cycles
 SCF Done:  E(RB3LYP) =  -779.849086490     A.U. after    7 cycles
 SCF Done:  E(RB3LYP) =  -779.849086482     A.U. after    7 cycles
 Optimization completed.
    -- Stationary point found.
 Normal termination of Gaussian 16 at Sun Dec 13 16:09:08 2020.

 --------------------------------------------------------------------
 #N Geom=AllCheck Guess=TCheck SCRF=Check GenChk RB3LYP/6-31G(d) Freq
 --------------------------------------------------------------------

 Structure from the checkpoint file:  "JID_7705.chk"
 ------------------------------
 CID_67343043_JID_7705_neutraal
 ------------------------------
 Charge =  0 Multiplicity = 1

 SCF Done:  E(RB3LYP) =  -779.849086482     A.U. after    1 cycles

  Exact polarizability: 184.342  -4.272 116.878 -12.917  -5.879 136.388
 Approx polarizability: 246.555  -5.660 180.895 -36.433 -12.345 244.563

                      1                      2                      3
                      A                      A                      A
 Frequencies --     18.0282                25.0371                35.1677
 Red. masses --      4.3132                 4.6985                 5.5995
 Frc consts  --      0.0008                 0.0017                 0.0041
 IR Inten    --      2.1755                 1.5064                 8.2566

                      4                      5                      6
                      A                      A                      A
 Frequencies --     68.7094                80.0359               126.0918
 Red. masses --      4.7381                 3.6999                 4.9521
 Frc consts  --      0.0132                 0.0140                 0.0464
 IR Inten    --      3.1414                 2.4110                 0.0839

                      7                      8                      9
                      A                      A                      A
 Frequencies --    147.1733               172.8718               214.7837
 Red. masses --      5.2615                 4.6289                 3.8982
 Frc consts  --      0.0671                 0.0815                 0.1060
 IR Inten    --      0.3671                 6.5687                 1.4740

                     10                     11                     12
                      A                      A                      A
 Frequencies --    250.3594               287.6674               304.2327
 Red. masses --      1.2772                 4.1361                 3.9281
 Frc consts  --      0.0472                 0.2017                 0.2142
 IR Inten    --      0.4387                 1.2552                 1.4835

                     13                     14                     15
                      A                      A                      A
 Frequencies --    332.8956               370.5263               402.0976
 Red. masses --      4.5201                 2.2325                 4.9501
 Frc consts  --      0.2951                 0.1806                 0.4715
 IR Inten    --      0.7823                 5.7999                 2.7665

                     16                     17                     18
                      A                      A                      A
 Frequencies --    419.8552               426.0519               470.8053
 Red. masses --      1.2339                 3.1570                 4.4008
 Frc consts  --      0.1282                 0.3376                 0.5747
 IR Inten    --    139.0585                 0.5080                 2.2312

                     19                     20                     21
                      A                      A                      A
 Frequencies --    513.4174               531.7331               537.4434
 Red. masses --      3.1462                 2.5373                 1.7096
 Frc consts  --      0.4886                 0.4227                 0.2909
 IR Inten    --      9.3925                57.7164                51.1771

                     22                     23                     24
                      A                      A                      A
 Frequencies --    559.7910               637.6824               649.6244
 Red. masses --      2.8965                 2.8946                 5.9531
 Frc consts  --      0.5348                 0.6935                 1.4802
 IR Inten    --     30.4558                 6.0505                 1.8928

                     25                     26                     27
                      A                      A                      A
 Frequencies --    662.9907               676.9417               712.3483
 Red. masses --      5.1012                 4.2423                 3.6380
 Frc consts  --      1.3211                 1.1454                 1.0877
 IR Inten    --      9.1037                15.4770                 8.7409

                     28                     29                     30
                      A                      A                      A
 Frequencies --    762.3007               764.6652               784.5809
 Red. masses --      2.5525                 4.1132                 3.7661
 Frc consts  --      0.8739                 1.4170                 1.3659
 IR Inten    --     54.4563                 4.7430                46.6780

                     31                     32                     33
                      A                      A                      A
 Frequencies --    806.9300               833.2316               845.7601
 Red. masses --      2.0265                 1.2463                 2.1437
 Frc consts  --      0.7775                 0.5098                 0.9034
 IR Inten    --     10.8146                 0.5920                24.2237

                     34                     35                     36
                      A                      A                      A
 Frequencies --    859.3879               896.9175               947.5446
 Red. masses --      3.5380                 1.4091                 1.4506
 Frc consts  --      1.5395                 0.6679                 0.7674
 IR Inten    --     12.8915                10.3691                 2.0234

                     37                     38                     39
                      A                      A                      A
 Frequencies --    960.0954               974.4927              1020.8063
 Red. masses --      1.4623                 1.6488                 2.8707
 Frc consts  --      0.7942                 0.9225                 1.7625
 IR Inten    --      3.8703                 2.6952                30.6445

                     40                     41                     42
                      A                      A                      A
 Frequencies --   1028.4407              1035.9723              1081.2428
 Red. masses --      6.2778                 2.7869                 6.3438
 Frc consts  --      3.9121                 1.7623                 4.3696
 IR Inten    --     12.3402                 0.4821                53.4635

                     43                     44                     45
                      A                      A                      A
 Frequencies --   1104.6628              1144.2712              1153.3015
 Red. masses --      1.9133                 1.4697                 1.5971
 Frc consts  --      1.3756                 1.1338                 1.2516
 IR Inten    --     14.3439                10.6684                16.0352

                     46                     47                     48
                      A                      A                      A
 Frequencies --   1186.3588              1188.3694              1214.0360
 Red. masses --      1.2709                 1.3457                 1.1796
 Frc consts  --      1.0539                 1.1197                 1.0244
 IR Inten    --      0.8247                23.8542                27.8535

                     49                     50                     51
                      A                      A                      A
 Frequencies --   1219.1567              1219.5427              1241.6158
 Red. masses --      1.5051                 1.5705                 2.6194
 Frc consts  --      1.3181                 1.3762                 2.3792
 IR Inten    --     16.9054                 5.5805                 0.1284

                     52                     53                     54
                      A                      A                      A
 Frequencies --   1305.4550              1308.7895              1346.5494
 Red. masses --      3.5642                 4.0307                 1.5807
 Frc consts  --      3.5788                 4.0679                 1.6887
 IR Inten    --    215.6730               202.3169                27.7940

                     55                     56                     57
                      A                      A                      A
 Frequencies --   1354.5050              1371.3473              1401.8931
 Red. masses --      3.1466                 2.2679                 1.6434
 Frc consts  --      3.4014                 2.5128                 1.9029
 IR Inten    --     38.6098                33.1302                28.1286

                     58                     59                     60
                      A                      A                      A
 Frequencies --   1435.1575              1454.7508              1475.5815
 Red. masses --      5.2127                 5.9452                 2.8015
 Frc consts  --      6.3257                 7.4130                 3.5940
 IR Inten    --     17.5958                66.6345                 0.6024

                     61                     62                     63
                      A                      A                      A
 Frequencies --   1483.7092              1500.9379              1511.9743
 Red. masses --      2.4525                 1.2041                 1.3988
 Frc consts  --      3.1810                 1.5982                 1.8841
 IR Inten    --     25.5631                15.4787                15.8243

                     64                     65                     66
                      A                      A                      A
 Frequencies --   1521.8167              1535.6560              1571.3158
 Red. masses --      1.0476                 1.0626                 2.4436
 Frc consts  --      1.4294                 1.4763                 3.5547
 IR Inten    --      5.7771                41.6882               111.0518

                     67                     68                     69
                      A                      A                      A
 Frequencies --   1601.2822              1639.5006              1651.5971
 Red. masses --      4.5683                 6.5422                 1.2606
 Frc consts  --      6.9015                10.3609                 2.0259
 IR Inten    --     82.9633                11.2363               149.2610

                     70                     71                     72
                      A                      A                      A
 Frequencies --   1678.3658              1789.5617              3028.2568
 Red. masses --      5.6815                 8.5921                 1.0347
 Frc consts  --      9.4294                16.2122                 5.5905
 IR Inten    --     66.5784               321.5751                51.5316

                     73                     74                     75
                      A                      A                      A
 Frequencies --   3080.9022              3087.9038              3132.2132
 Red. masses --      1.0607                 1.1068                 1.1047
 Frc consts  --      5.9319                 6.2177                 6.3855
 IR Inten    --     25.7098                41.2890                 3.2782

                     76                     77                     78
                      A                      A                      A
 Frequencies --   3161.9086              3178.6132              3199.6072
 Red. masses --      1.0999                 1.0890                 1.0897
 Frc consts  --      6.4791                 6.4829                 6.5730
 IR Inten    --     26.6773                16.2587                 2.5468

                     79                     80                     81
                      A                      A                      A
 Frequencies --   3218.0731              3231.3252              3271.8356
 Red. masses --      1.0929                 1.0915                 1.0973
 Frc consts  --      6.6683                 6.7150                 6.9206
 IR Inten    --      7.7948                 9.5219                 0.1340

                     82                     83                     84
                      A                      A                      A
 Frequencies --   3281.8471              3568.8692              3686.8552
 Red. masses --      1.0970                 1.0462                 1.1017
 Frc consts  --      6.9611                 7.8507                 8.8234
 IR Inten    --      0.5891                24.9305                20.5195

 - Thermochemistry -
 -------------------
 Temperature   298.150 Kelvin.  Pressure   1.00000 Atm.
 Atom     1 has atomic number  6 and mass  12.00000

 Molecular mass:   231.10078 amu.
 Principal axes and moments of inertia in atomic units:
                           1         2         3
     Eigenvalues --  1926.272009053.327829541.18929
           X            0.99993  -0.00687   0.00941
           Y            0.00727   0.99901  -0.04397
           Z           -0.00910   0.04404   0.99899
 This molecule is an asymmetric top.
 Rotational symmetry number  1.
 Warning -- assumption of classical behavior for rotation
           may cause significant error
 Rotational temperatures (Kelvin)      0.04496     0.00957     0.00908
 Rotational constants (GHZ):           0.93691     0.19935     0.18915
 Zero-point vibrational energy     633877.3 (Joules/Mol)
                                  151.50030 (Kcal/Mol)
 Warning -- explicit consideration of  22 degrees of freedom as
           vibrations may cause significant error
 Vibrational temperatures:     25.94    36.02    50.60    98.86   115.15
          (Kelvin)            181.42   211.75   248.72   309.03   360.21
                              413.89   437.72   478.96   533.10   578.53
                              604.08   612.99   677.38   738.69   765.05
                              773.26   805.41   917.48   934.66   953.90
                              973.97  1024.91  1096.78  1100.18  1128.84
                             1160.99  1198.83  1216.86  1236.47  1290.46
                             1363.31  1381.36  1402.08  1468.71  1479.70
                             1490.53  1555.67  1589.36  1646.35  1659.34
                             1706.91  1709.80  1746.73  1754.09  1754.65
                             1786.41  1878.26  1883.06  1937.38  1948.83
                             1973.06  2017.01  2064.87  2093.06  2123.03
                             2134.73  2159.51  2175.39  2189.55  2209.47
                             2260.77  2303.89  2358.88  2376.28  2414.79
                             2574.78  4356.99  4432.73  4442.80  4506.56
                             4549.28  4573.32  4603.52  4630.09  4649.16
                             4707.44  4721.85  5134.81  5304.56

 Zero-point correction=                           0.241431 (Hartree/Particle)
 Thermal correction to Energy=                    0.256706
 Thermal correction to Enthalpy=                  0.257650
 Thermal correction to Gibbs Free Energy=         0.196005
 Sum of electronic and zero-point Energies=           -779.607655
 Sum of electronic and thermal Energies=              -779.592380
 Sum of electronic and thermal Enthalpies=            -779.591436
 Sum of electronic and thermal Free Energies=         -779.653082

                     E (Thermal)             CV                S
                      KCal/Mol        Cal/Mol-Kelvin    Cal/Mol-Kelvin
 Total                  161.086             57.592            129.745
 Electronic               0.000              0.000              0.000
 Translational            0.889              2.981             42.215
 Rotational               0.889              2.981             33.475
 Vibrational            159.308             51.630             54.054
 Vibration     1          0.593              1.986              6.840
 Vibration     2          0.593              1.985              6.188
 Vibration     3          0.594              1.982              5.514
 Vibration     4          0.598              1.969              4.190
 Vibration     5          0.600              1.963              3.890
 Vibration     6          0.611              1.927              3.005
 Vibration     7          0.617              1.906              2.708
 Vibration     8          0.626              1.876              2.404
 Vibration     9          0.645              1.818              2.003
 Vibration    10          0.663              1.762              1.728
 Vibration    11          0.685              1.697              1.488
 Vibration    12          0.695              1.666              1.394
 Vibration    13          0.715              1.610              1.246
 Vibration    14          0.743              1.533              1.078
 Vibration    15          0.768              1.466              0.955
 Vibration    16          0.783              1.427              0.892
 Vibration    17          0.788              1.414              0.872
 Vibration    18          0.828              1.315              0.735
 Vibration    19          0.868              1.220              0.625
 Vibration    20          0.887              1.180              0.583
 Vibration    21          0.892              1.167              0.571
 Vibration    22          0.915              1.118              0.524

                           ! Non-Optimized Parameters !
 Normal termination of Gaussian 16 at Sun Dec 13 16:18:29 2020.

 ----------------------------------------------------------------------
 # B3LYP/6-311++G(d,p) empiricaldispersion=gd3bj scf=xqc pop=npa geom=c
 heck
 ----------------------------------------------------------------------

 --------------------------------------
 CID_67343043_JID_7705_Energie_neutraal
 --------------------------------------
 Structure from the checkpoint file:  "JID_7705.chk"
 Charge =  0 Multiplicity = 1

 SCF Done:  E(RB3LYP) =  -780.069289232     A.U. after   16 cycles
 Normal termination of Gaussian 16 at Sun Dec 13 16:23:14 2020.

 ----------------------------------------------------------------------
 # B3LYP/6-311++G(d,p) empiricaldispersion=gd3bj scf=xqc pop=npa geom=c
 heck
 ----------------------------------------------------------------------

 ------------------------------------
 CID_67343043_JID_7705_Energie_kation
 ------------------------------------
 Structure from the checkpoint file:  "JID_7705.chk"
 Charge =  1 Multiplicity = 2

 SCF Done:  E(UB3LYP) =  -779.770243175     A.U. after   33 cycles
 SCF Done:  E(UB3LYP) =  -779.770243175     a.u. after    1 cycles
 Normal termination of Gaussian 16 at Sun Dec 13 16:37:05 2020.
 Gaussian 16:  ES64L-G16RevA.03 25-Dec-2016

 ----------------------------------------------------------------------
 # B3LYP/6-311++G(d,p) empiricaldispersion=gd3bj scf=xqc pop=npa geom=c
 heck
 ----------------------------------------------------------------------

 -----------------------------------
 CID_67343043_JID_7705_Energie_anion
 -----------------------------------
 Structure from the checkpoint file:  "JID_7705.chk"
 Charge = -1 Multiplicity = 2

                         Standard orientation:
 ---------------------------------------------------------------------
 Center     Atomic      Atomic             Coordinates (Angstroms)
 Number     Number       Type             X           Y           Z
 ---------------------------------------------------------------------
      1          6           0       -4.971931    1.854695   -0.832386
      2          8           0       -4.597061    1.069818    0.288285
      3          6           0       -3.450239    0.338103    0.201689
      4          6           0       -3.124904   -0.421126    1.332923
      5          6           0       -1.971314   -1.196003    1.340343
      6          6           0       -1.124623   -1.238655    0.227136
      7          6           0       -1.457992   -0.478095   -0.896079
      8          6           0       -2.608296    0.309279   -0.918055
      9          6           0        0.128010   -2.086735    0.233844
     10          7           0        1.325011   -1.322713   -0.100962
     11          6           0        2.004738   -0.461595    0.690171
     12          6           0        2.983273    0.126009   -0.102889
     13          6           0        2.792157   -0.458803   -1.379161
     14          7           0        1.784036   -1.324307   -1.381199
     15          6           0        4.027913    1.113376    0.232100
     16          8           0        4.958110    1.361878   -0.524740
     17          7           0        3.911969    1.714572    1.471037
     18          1           0       -5.904373    2.348059   -0.553783
     19          1           0       -5.140815    1.232358   -1.720764
     20          1           0       -4.213494    2.613975   -1.063634
     21          1           0       -3.786871   -0.383063    2.191786
     22          1           0       -1.727241   -1.778530    2.225866
     23          1           0       -0.801987   -0.494362   -1.761983
     24          1           0       -2.837681    0.889665   -1.803654
     25          1           0        0.276186   -2.545591    1.216351
     26          1           0        0.080301   -2.887510   -0.508569
     27          1           0        1.761858   -0.353240    1.737720
     28          1           0        3.364359   -0.269821   -2.276296
     29          1           0        2.996324    1.802370    1.889918
     30          1           0        4.537173    2.496566    1.618732
 ---------------------------------------------------------------------

 SCF Done:  E(UB3LYP) =  -780.062730956     A.U. after   33 cycles
 SCF Done:  E(UB3LYP) =  -780.062730957     a.u. after    2 cycles

 The electronic state is 2-A.
 Alpha  occ. eigenvalues --  -19.07011 -19.00039 -14.31224 -14.25074 -14.23823
 Alpha  occ. eigenvalues --  -10.19018 -10.15078 -10.13927 -10.13712 -10.13033
 Alpha  occ. eigenvalues --  -10.11038 -10.09564 -10.09282 -10.09242 -10.09060
 Alpha  occ. eigenvalues --  -10.08909 -10.08570  -0.98634  -0.97322  -0.94920
 Alpha  occ. eigenvalues --   -0.81313  -0.78553  -0.75936  -0.71450  -0.68320
 Alpha  occ. eigenvalues --   -0.66827  -0.63528  -0.59777  -0.56017  -0.53196
 Alpha  occ. eigenvalues --   -0.50899  -0.49354  -0.48606  -0.46160  -0.45264
 Alpha  occ. eigenvalues --   -0.42531  -0.41500  -0.39850  -0.38606  -0.38431
 Alpha  occ. eigenvalues --   -0.37147  -0.36571  -0.35147  -0.34500  -0.33930
 Alpha  occ. eigenvalues --   -0.33178  -0.32146  -0.31774  -0.30964  -0.29437
 Alpha  occ. eigenvalues --   -0.28734  -0.27645  -0.24667  -0.23836  -0.21843
 Alpha  occ. eigenvalues --   -0.19199  -0.18073  -0.17442  -0.17360  -0.16940
 Alpha  occ. eigenvalues --   -0.13949   0.03631
 Alpha virt. eigenvalues --    0.05191   0.05529   0.06410   0.06774   0.07335
 Alpha virt. eigenvalues --    0.07771   0.08415   0.08954   0.09120   0.09252
 Alpha virt. eigenvalues --    0.09562   0.09896   0.10921   0.11178   0.11861

  Beta  occ. eigenvalues --  -19.07004 -19.00027 -14.31224 -14.25073 -14.23766
  Beta  occ. eigenvalues --  -10.19007 -10.15081 -10.13914 -10.13668 -10.12999
  Beta  occ. eigenvalues --  -10.11035 -10.09568 -10.09263 -10.09240 -10.09041
  Beta  occ. eigenvalues --  -10.08891 -10.08551  -0.98617  -0.97316  -0.94895
  Beta  occ. eigenvalues --   -0.81236  -0.78535  -0.75918  -0.71423  -0.68294
  Beta  occ. eigenvalues --   -0.66785  -0.63488  -0.59730  -0.55976  -0.53143
  Beta  occ. eigenvalues --   -0.50870  -0.49286  -0.48569  -0.46082  -0.45225
  Beta  occ. eigenvalues --   -0.42478  -0.41465  -0.39816  -0.38576  -0.38398
  Beta  occ. eigenvalues --   -0.37122  -0.36542  -0.35118  -0.34468  -0.33901
  Beta  occ. eigenvalues --   -0.33150  -0.32106  -0.31740  -0.30935  -0.29397
  Beta  occ. eigenvalues --   -0.28708  -0.27609  -0.24636  -0.23804  -0.21838
  Beta  occ. eigenvalues --   -0.19128  -0.18052  -0.17372  -0.17312  -0.16929
  Beta  occ. eigenvalues --   -0.13910
  Beta virt. eigenvalues --    0.05778   0.05901   0.06460   0.06662   0.07228
  Beta virt. eigenvalues --    0.07581   0.08121   0.08690   0.09144   0.09283
  Beta virt. eigenvalues --    0.09564   0.10064   0.10314   0.11175   0.11468

 Mulliken charges and spin densities:
               1          2
     1  C    0.769705  -1.096615
     2  O   -0.197348   0.050732
     3  C   -0.317342  -0.333296
     4  C   -0.472751   0.035893
     5  C    0.018122  -0.233374
     6  C    1.746778  -0.288615
     7  C   -0.846890   0.285279
     8  C    0.027914   0.155713
     9  C    0.090836  -0.957806
    10  N    0.416309   0.000272
    11  C    0.468498  -1.028034
    12  C    0.592977  -0.052579
    13  C    0.051508  -0.083884
    14  N   -0.295632   0.066330
    15  C   -0.434041   0.043619
    16  O   -0.372031   0.002717
    17  N   -0.208821  -0.117357
    18  H   -0.442260   0.616285
    19  H   -0.158074   0.309340
    20  H   -0.205301   0.366470
    21  H   -0.046926   0.234788
    22  H   -0.638428   0.793470
    23  H    0.033223   0.166539
    24  H   -0.078964   0.274567
    25  H   -0.055756   0.255758
    26  H    0.162544   0.031044
    27  H   -0.569927   0.759998
    28  H    0.181363  -0.010552
    29  H   -0.224789   0.467193
    30  H    0.005505   0.286106
 Sum of Mulliken charges =  -1.00000   1.00000

 Dipole moment (field-independent basis, Debye):
    X=             -0.0723    Y=             -3.9641    Z=             -2.1393  Tot=              4.5051
 Quadrupole moment (field-independent basis, Debye-Ang):
   XX=           -205.4924   YY=           -136.1260   ZZ=           -140.8164
   XY=              2.5636   XZ=             -4.0603   YZ=              1.0466

 Summary of Natural Population Analysis:

                                       Natural Population
                Natural  -----------------------------------------------
    Atom  No    Charge         Core      Valence    Rydberg      Total
 -----------------------------------------------------------------------
      C    1   -0.10178      0.99960     2.09289    0.00929     3.10178
      O    2   -0.27260      0.99986     3.26267    0.01007     4.27260
      C    3    0.16291      0.99939     1.82496    0.01274     2.83709
      C    4   -0.11387      0.99952     2.10450    0.00985     3.11387
      C    5   -0.08952      0.99952     2.07952    0.01047     3.08952
      C    6   -0.04734      0.99949     2.03771    0.01014     3.04734
      C    7   -0.08320      0.99952     2.07520    0.00848     3.08320
      C    8   -0.13738      0.99952     2.13001    0.00784     3.13738
      C    9   -0.08680      0.99957     2.07505    0.01218     3.08680
      N   10   -0.10320      0.99966     2.58970    0.01384     3.60320
      C   11    0.01830      0.99952     1.97069    0.01150     2.98170
      C   12   -0.12719      0.99948     2.11693    0.01078     3.12719
      C   13    0.01057      0.99960     1.97627    0.01356     2.98943
      N   14   -0.15387      0.99973     2.64375    0.01038     3.65387
      C   15    0.33149      0.99964     1.64677    0.02210     2.66851
      O   16   -0.31904      0.99988     3.31369    0.00547     4.31904
      N   17   -0.40162      0.99972     2.89357    0.00833     3.90162
      H   18    0.09523      0.00000     0.40346    0.00130     0.40477
      H   19    0.08436      0.00000     0.41396    0.00168     0.41564
      H   20    0.08688      0.00000     0.41129    0.00182     0.41312
      H   21    0.10669      0.00000     0.39202    0.00128     0.39331
      H   22    0.10246      0.00000     0.39588    0.00166     0.39754
      H   23    0.10765      0.00000     0.39069    0.00166     0.39235
      H   24    0.10656      0.00000     0.39217    0.00128     0.39344
      H   25    0.10510      0.00000     0.39372    0.00118     0.39490
      H   26    0.11119      0.00000     0.38737    0.00144     0.38881
      H   27    0.11346      0.00000     0.38396    0.00259     0.38654
      H   28    0.10534      0.00000     0.39380    0.00086     0.39466
      H   29    0.19599      0.00000     0.29784    0.00617     0.30401
      H   30    0.19325      0.00000     0.30490    0.00185     0.30675
 =======================================================================
   * Total *    0.00000     16.99321    43.79499    0.21179    61.00000

 Normal termination of Gaussian 16 at Sun Dec 13 17:11:10 2020.
