 Gaussian 16, Revision A.03,

 -----------------------------------------------------------
 # opt freq B3LYP/6-31G(d) empiricaldispersion=gd3bj scf=xqc
 -----------------------------------------------------------

 ------------------------------
 CID_43208691_JID_3633_neutraal
 ------------------------------
 Symbolic Z-matrix:
 Charge =  0 Multiplicity = 1

 SCF Done:  E(RB3LYP) =  -593.948733682     A.U. after   14 cycles
 SCF Done:  E(RB3LYP) =  -593.953627970     A.U. after   12 cycles
 SCF Done:  E(RB3LYP) =  -593.953984308     A.U. after   12 cycles
 SCF Done:  E(RB3LYP) =  -593.954952469     A.U. after   11 cycles
 SCF Done:  E(RB3LYP) =  -593.955155605     A.U. after   10 cycles
 SCF Done:  E(RB3LYP) =  -593.955223592     A.U. after   10 cycles
 SCF Done:  E(RB3LYP) =  -593.955290261     A.U. after   10 cycles
 SCF Done:  E(RB3LYP) =  -593.955352412     A.U. after   10 cycles
 SCF Done:  E(RB3LYP) =  -593.955374000     A.U. after   10 cycles
 SCF Done:  E(RB3LYP) =  -593.955380252     A.U. after    8 cycles
 SCF Done:  E(RB3LYP) =  -593.955382346     A.U. after    8 cycles
 SCF Done:  E(RB3LYP) =  -593.955382591     A.U. after    8 cycles
 SCF Done:  E(RB3LYP) =  -593.955382676     A.U. after    7 cycles
 SCF Done:  E(RB3LYP) =  -593.955382741     A.U. after    7 cycles
 SCF Done:  E(RB3LYP) =  -593.955382755     A.U. after    6 cycles
 Optimization completed.
    -- Stationary point found.
 Normal termination of Gaussian 16 at Mon Dec 14 16:37:09 2020.

 --------------------------------------------------------------------
 #N Geom=AllCheck Guess=TCheck SCRF=Check GenChk RB3LYP/6-31G(d) Freq
 --------------------------------------------------------------------

 Structure from the checkpoint file:  "JID_3633.chk"
 ------------------------------
 CID_43208691_JID_3633_neutraal
 ------------------------------
 Charge =  0 Multiplicity = 1

 SCF Done:  E(RB3LYP) =  -593.955382755     A.U. after    1 cycles

  Exact polarizability: 135.018   1.663 113.920   2.553  -2.144  98.236
 Approx polarizability: 162.606   6.352 171.270   4.220 -10.583 145.435

                      1                      2                      3
                      A                      A                      A
 Frequencies --     30.1511                63.6133                68.9996
 Red. masses --      2.8158                 3.2871                 3.7126
 Frc consts  --      0.0015                 0.0078                 0.0104
 IR Inten    --      0.2763                 0.6608                 1.5962

                      4                      5                      6
                      A                      A                      A
 Frequencies --    100.4212               112.2301               149.1714
 Red. masses --      5.1261                 3.6082                 4.2804
 Frc consts  --      0.0305                 0.0268                 0.0561
 IR Inten    --      2.5166                 0.1843                 0.4056

                      7                      8                      9
                      A                      A                      A
 Frequencies --    219.1371               238.8778               243.0338
 Red. masses --      2.6976                 1.9366                 1.1389
 Frc consts  --      0.0763                 0.0651                 0.0396
 IR Inten    --      1.1856                 4.9732                 0.7141

                     10                     11                     12
                      A                      A                      A
 Frequencies --    280.8359               298.3598               333.0377
 Red. masses --      1.2473                 2.4993                 2.5491
 Frc consts  --      0.0580                 0.1311                 0.1666
 IR Inten    --      0.0791                 0.8672                 2.2763

                     13                     14                     15
                      A                      A                      A
 Frequencies --    383.2998               411.7192               424.1317
 Red. masses --      2.4177                 2.7108                 1.9716
 Frc consts  --      0.2093                 0.2707                 0.2090
 IR Inten    --      3.6833                 0.8948                 1.4575

                     16                     17                     18
                      A                      A                      A
 Frequencies --    465.7841               489.6236               510.6390
 Red. masses --      2.3017                 3.5248                 2.4327
 Frc consts  --      0.2942                 0.4979                 0.3737
 IR Inten    --      1.5412                 9.1588                 2.0217

                     19                     20                     21
                      A                      A                      A
 Frequencies --    545.1552               577.8302               676.7459
 Red. masses --      2.9317                 3.1776                 2.4344
 Frc consts  --      0.5134                 0.6251                 0.6569
 IR Inten    --     37.9666                 6.3615                25.1151

                     22                     23                     24
                      A                      A                      A
 Frequencies --    719.0867               766.5771               788.1429
 Red. masses --      1.9707                 2.1176                 1.6636
 Frc consts  --      0.6004                 0.7332                 0.6088
 IR Inten    --     73.9055                 9.8064                48.5688

                     25                     26                     27
                      A                      A                      A
 Frequencies --    834.2640               843.8807               877.3515
 Red. masses --      2.1445                 3.5346                 2.1494
 Frc consts  --      0.8794                 1.4830                 0.9748
 IR Inten    --    112.1285                 3.2530                 8.4607

                     28                     29                     30
                      A                      A                      A
 Frequencies --    883.9948               901.8584               911.0505
 Red. masses --      2.0618                 2.5076                 1.7770
 Frc consts  --      0.9493                 1.2017                 0.8690
 IR Inten    --     10.7150                 0.3260                 1.1693

                     31                     32                     33
                      A                      A                      A
 Frequencies --    935.0578               942.9636               964.7042
 Red. masses --      1.5525                 1.2027                 1.4641
 Frc consts  --      0.7998                 0.6301                 0.8028
 IR Inten    --      6.8127                 2.7537                 1.1717

                     34                     35                     36
                      A                      A                      A
 Frequencies --    971.5838              1019.8643              1061.2759
 Red. masses --      1.7965                 1.7565                 2.4281
 Frc consts  --      0.9992                 1.0764                 1.6113
 IR Inten    --      8.7921                 0.2850                20.9691

                     37                     38                     39
                      A                      A                      A
 Frequencies --   1065.0430              1094.5163              1117.0269
 Red. masses --      1.7545                 1.9767                 1.9631
 Frc consts  --      1.1725                 1.3952                 1.4432
 IR Inten    --      1.9206                 3.2775                 5.5236

                     40                     41                     42
                      A                      A                      A
 Frequencies --   1142.5917              1161.7057              1180.8841
 Red. masses --      2.4403                 2.0878                 2.4804
 Frc consts  --      1.8770                 1.6601                 2.0379
 IR Inten    --     27.4871                18.0835                34.5664

                     43                     44                     45
                      A                      A                      A
 Frequencies --   1195.8643              1202.2322              1209.1679
 Red. masses --      1.4329                 1.7406                 2.1131
 Frc consts  --      1.2073                 1.4823                 1.8203
 IR Inten    --      2.9936                 5.1972                52.3502

                     46                     47                     48
                      A                      A                      A
 Frequencies --   1221.5658              1292.6807              1322.8649
 Red. masses --      1.3348                 1.2315                 1.2110
 Frc consts  --      1.1735                 1.2124                 1.2487
 IR Inten    --     14.3911                70.6265                 2.9399

                     49                     50                     51
                      A                      A                      A
 Frequencies --   1335.1531              1359.4371              1362.1099
 Red. masses --      1.3597                 1.3711                 1.3399
 Frc consts  --      1.4281                 1.4929                 1.4647
 IR Inten    --     15.0473                 9.1576                 7.5896

                     52                     53                     54
                      A                      A                      A
 Frequencies --   1369.1988              1389.4278              1390.4244
 Red. masses --      1.3191                 1.5191                 1.2984
 Frc consts  --      1.4570                 1.7279                 1.4790
 IR Inten    --     11.6928                39.8859                14.8096

                     55                     56                     57
                      A                      A                      A
 Frequencies --   1404.2380              1423.4343              1428.8371
 Red. masses --      1.5466                 2.1490                 1.5615
 Frc consts  --      1.7969                 2.5654                 1.8783
 IR Inten    --     50.4452               195.2058               104.9385

                     58                     59                     60
                      A                      A                      A
 Frequencies --   1441.7290              1447.2177              1483.0766
 Red. masses --      1.5793                 1.2923                 1.3126
 Frc consts  --      1.9341                 1.5948                 1.7010
 IR Inten    --     25.2099                42.8718                20.6341

                     61                     62                     63
                      A                      A                      A
 Frequencies --   1483.5975              1499.6151              1507.9242
 Red. masses --      1.2999                 1.3173                 1.0962
 Frc consts  --      1.6858                 1.7454                 1.4686
 IR Inten    --      1.7459                16.1418                 3.8197

                     64                     65                     66
                      A                      A                      A
 Frequencies --   1516.7094              1518.0892              1519.2862
 Red. masses --      1.0579                 1.0483                 1.0923
 Frc consts  --      1.4338                 1.4234                 1.4855
 IR Inten    --      1.8429                 2.3353                 4.9839

                     67                     68                     69
                      A                      A                      A
 Frequencies --   1523.9355              1534.2634              1536.8702
 Red. masses --      1.1291                 1.0755                 1.1044
 Frc consts  --      1.5450                 1.4917                 1.5370
 IR Inten    --      2.2012                 1.2730                 2.9639

                     70                     71                     72
                      A                      A                      A
 Frequencies --   1539.8842              1797.6342              2925.8881
 Red. masses --      1.0515                 6.5193                 1.0737
 Frc consts  --      1.4690                12.4124                 5.4158
 IR Inten    --      3.4578               475.1929                64.4324

                     73                     74                     75
                      A                      A                      A
 Frequencies --   2938.8534              3035.0979              3043.6209
 Red. masses --      1.0723                 1.0660                 1.0375
 Frc consts  --      5.4568                 5.7855                 5.6626
 IR Inten    --    102.3407                31.3606                17.1204

                     76                     77                     78
                      A                      A                      A
 Frequencies --   3048.2682              3057.7597              3088.2131
 Red. masses --      1.0379                 1.0613                 1.0884
 Frc consts  --      5.6824                 5.8465                 6.1158
 IR Inten    --     26.1659                19.3302                59.7022

                     79                     80                     81
                      A                      A                      A
 Frequencies --   3091.6143              3096.1874              3097.7721
 Red. masses --      1.0954                 1.0886                 1.0900
 Frc consts  --      6.1686                 6.1484                 6.1627
 IR Inten    --     39.7078                 0.8297                16.3060

                     82                     83                     84
                      A                      A                      A
 Frequencies --   3102.1809              3108.7350              3117.3426
 Red. masses --      1.1046                 1.1006                 1.0878
 Frc consts  --      6.2630                 6.2670                 6.2282
 IR Inten    --     53.8568                 2.9687                20.8777

                     85                     86                     87
                      A                      A                      A
 Frequencies --   3124.6787              3133.6207              3134.6350
 Red. masses --      1.0943                 1.1016                 1.1029
 Frc consts  --      6.2951                 6.3731                 6.3851
 IR Inten    --     59.3284                20.2225                32.6487

                     88                     89                     90
                      A                      A                      A
 Frequencies --   3520.2186              3542.3187              3547.7284
 Red. masses --      1.0752                 1.0744                 1.0744
 Frc consts  --      7.8498                 7.9430                 7.9676
 IR Inten    --      0.1596                54.8555                 7.5486

 - Thermochemistry -
 -------------------
 Temperature   298.150 Kelvin.  Pressure   1.00000 Atm.
 Atom     1 has atomic number  6 and mass  12.00000

 Molecular mass:   185.15281 amu.
 Principal axes and moments of inertia in atomic units:
                           1         2         3
     Eigenvalues --  1362.644043886.531124418.82650
           X            0.99988  -0.01512   0.00122
           Y            0.01507   0.99939   0.03159
           Z           -0.00169  -0.03157   0.99950
 This molecule is an asymmetric top.
 Rotational symmetry number  1.
 Warning -- assumption of classical behavior for rotation
           may cause significant error
 Rotational temperatures (Kelvin)      0.06356     0.02229     0.01960
 Rotational constants (GHZ):           1.32444     0.46436     0.40842
 Zero-point vibrational energy     764518.0 (Joules/Mol)
                                  182.72418 (Kcal/Mol)
 Warning -- explicit consideration of  20 degrees of freedom as
           vibrations may cause significant error
 Vibrational temperatures:     43.38    91.53    99.28   144.48   161.47
          (Kelvin)            214.62   315.29   343.69   349.67   404.06
                              429.27   479.17   551.48   592.37   610.23
                              670.16   704.46   734.70   784.36   831.37
                              973.69  1034.61  1102.93  1133.96  1200.32
                             1214.16  1262.31  1271.87  1297.57  1310.80
                             1345.34  1356.71  1387.99  1397.89  1467.36
                             1526.94  1532.36  1574.76  1607.15  1643.93
                             1671.44  1699.03  1720.58  1729.74  1739.72
                             1757.56  1859.88  1903.31  1920.99  1955.93
                             1959.77  1969.97  1999.08  2000.51  2020.39
                             2048.00  2055.78  2074.33  2082.22  2133.82
                             2134.57  2157.61  2169.57  2182.21  2184.19
                             2185.91  2192.60  2207.46  2211.21  2215.55
                             2586.39  4209.70  4228.35  4366.83  4379.09
                             4385.78  4399.43  4443.25  4448.14  4454.72
                             4457.00  4463.35  4472.78  4485.16  4495.72
                             4508.58  4510.04  5064.81  5096.61  5104.39

 Zero-point correction=                           0.291190 (Hartree/Particle)
 Thermal correction to Energy=                    0.304698
 Thermal correction to Enthalpy=                  0.305643
 Thermal correction to Gibbs Free Energy=         0.250542
 Sum of electronic and zero-point Energies=           -593.664193
 Sum of electronic and thermal Energies=              -593.650684
 Sum of electronic and thermal Enthalpies=            -593.649740
 Sum of electronic and thermal Free Energies=         -593.704841

                     E (Thermal)             CV                S
                      KCal/Mol        Cal/Mol-Kelvin    Cal/Mol-Kelvin
 Total                  191.201             51.766            115.970
 Electronic               0.000              0.000              0.000
 Translational            0.889              2.981             41.554
 Rotational               0.889              2.981             31.526
 Vibrational            189.424             45.804             42.889
 Vibration     1          0.594              1.984              5.819
 Vibration     2          0.597              1.972              4.342
 Vibration     3          0.598              1.969              4.182
 Vibration     4          0.604              1.949              3.446
 Vibration     5          0.607              1.939              3.230
 Vibration     6          0.618              1.904              2.683
 Vibration     7          0.647              1.812              1.966
 Vibration     8          0.657              1.781              1.811
 Vibration     9          0.659              1.774              1.781
 Vibration    10          0.681              1.709              1.529
 Vibration    11          0.691              1.677              1.426
 Vibration    12          0.715              1.610              1.245
 Vibration    13          0.752              1.506              1.026
 Vibration    14          0.776              1.445              0.921
 Vibration    15          0.786              1.418              0.878
 Vibration    16          0.823              1.326              0.749
 Vibration    17          0.845              1.273              0.685
 Vibration    18          0.866              1.226              0.632
 Vibration    19          0.900              1.150              0.554
 Vibration    20          0.934              1.079              0.489

 Optimization completed.
    -- Stationary point found.
 Normal termination of Gaussian 16 at Mon Dec 14 16:45:50 2020.

 ----------------------------------------------------------------------
 # B3LYP/6-311++G(d,p) empiricaldispersion=gd3bj scf=xqc pop=npa geom=c
 heck
 ----------------------------------------------------------------------

 --------------------------------------
 CID_43208691_JID_3633_Energie_neutraal
 --------------------------------------
 Structure from the checkpoint file:  "JID_3633.chk"
 Charge =  0 Multiplicity = 1

 SCF Done:  E(RB3LYP) =  -594.134933857     A.U. after   13 cycles
 Normal termination of Gaussian 16 at Mon Dec 14 16:49:40 2020.

 ----------------------------------------------------------------------
 # B3LYP/6-311++G(d,p) empiricaldispersion=gd3bj scf=xqc pop=npa geom=c
 heck
 ----------------------------------------------------------------------

 ------------------------------------
 CID_43208691_JID_3633_Energie_kation
 ------------------------------------
 Structure from the checkpoint file:  "JID_3633.chk"
 Charge =  1 Multiplicity = 2

 SCF Done:  E(UB3LYP) =  -593.830714252     A.U. after   25 cycles
 Normal termination of Gaussian 16 at Mon Dec 14 16:59:55 2020.
 Gaussian 16:  ES64L-G16RevA.03 25-Dec-2016

 ----------------------------------------------------------------------
 # B3LYP/6-311++G(d,p) empiricaldispersion=gd3bj scf=xqc pop=npa geom=c
 heck
 ----------------------------------------------------------------------

 -----------------------------------
 CID_43208691_JID_3633_Energie_anion
 -----------------------------------
 Structure from the checkpoint file:  "JID_3633.chk"
 Charge = -1 Multiplicity = 2

                         Standard orientation:
 ---------------------------------------------------------------------
 Center     Atomic      Atomic             Coordinates (Angstroms)
 Number     Number       Type             X           Y           Z
 ---------------------------------------------------------------------
      1          6           0        2.749198   -0.908327   -1.319594
      2          6           0        2.394005   -0.674742    0.153463
      3          6           0        3.541503   -1.054025    1.089368
      4          7           0        2.023269    0.726748    0.425367
      5          6           0        0.998456    1.376211   -0.267347
      6          8           0        1.140698    2.508519   -0.715798
      7          7           0       -0.180303    0.664534   -0.419864
      8          6           0       -0.781518   -0.149813    0.645043
      9          6           0       -1.264670   -1.508091    0.105612
     10          6           0       -2.421590   -1.325172   -0.887367
     11          6           0       -3.532563   -0.463487   -0.278864
     12          7           0       -2.965216    0.808887    0.176005
     13          6           0       -1.980646    0.608822    1.238625
     14          1           0        3.613396   -0.298987   -1.610418
     15          1           0        1.906482   -0.639575   -1.963769
     16          1           0        2.998324   -1.960991   -1.498288
     17          1           0        1.533755   -1.300997    0.403035
     18          1           0        4.431728   -0.447411    0.878037
     19          1           0        3.260370   -0.894811    2.135144
     20          1           0        3.817371   -2.104992    0.955467
     21          1           0        2.831981    1.341624    0.420051
     22          1           0       -0.878232    1.238147   -0.885690
     23          1           0       -0.034325   -0.293625    1.428615
     24          1           0       -0.433429   -2.038428   -0.371567
     25          1           0       -1.601550   -2.120199    0.954142
     26          1           0       -2.047111   -0.834720   -1.793449
     27          1           0       -2.826447   -2.299101   -1.185996
     28          1           0       -4.305868   -0.253712   -1.025663
     29          1           0       -4.012222   -1.023075    0.548757
     30          1           0       -3.701184    1.435735    0.489406
     31          1           0       -2.382175    0.032165    2.094321
     32          1           0       -1.653746    1.585365    1.610059
 ---------------------------------------------------------------------

 SCF Done:  E(UB3LYP) =  -594.123970631     A.U. after   30 cycles

 The electronic state is 2-A.
 Alpha  occ. eigenvalues --  -18.98416 -14.22679 -14.22135 -14.20423 -10.19166
 Alpha  occ. eigenvalues --  -10.11938 -10.11090 -10.09631 -10.09278 -10.07229
 Alpha  occ. eigenvalues --  -10.06874 -10.06817 -10.06727  -0.94732  -0.83875
 Alpha  occ. eigenvalues --   -0.82175  -0.79494  -0.68724  -0.67837  -0.65124
 Alpha  occ. eigenvalues --   -0.60147  -0.54412  -0.53282  -0.51699  -0.50552
 Alpha  occ. eigenvalues --   -0.46440  -0.42515  -0.40344  -0.38107  -0.36894
 Alpha  occ. eigenvalues --   -0.36357  -0.35302  -0.34961  -0.33489  -0.32711
 Alpha  occ. eigenvalues --   -0.31781  -0.31180  -0.30262  -0.29574  -0.29233
 Alpha  occ. eigenvalues --   -0.29094  -0.28162  -0.26153  -0.25237  -0.24134
 Alpha  occ. eigenvalues --   -0.22736  -0.22159  -0.18126  -0.15942  -0.14997
 Alpha  occ. eigenvalues --   -0.13642   0.04112
 Alpha virt. eigenvalues --    0.05948   0.07323   0.07579   0.08363   0.08771
 Alpha virt. eigenvalues --    0.09220   0.10107   0.10709   0.11062   0.11361
 Alpha virt. eigenvalues --    0.11714   0.11803   0.12546   0.12828   0.13664

  Beta  occ. eigenvalues --  -18.98415 -14.22672 -14.22131 -14.20398 -10.19165
  Beta  occ. eigenvalues --  -10.11929 -10.11086 -10.09608 -10.09250 -10.07191
  Beta  occ. eigenvalues --  -10.06854 -10.06796 -10.06716  -0.94727  -0.83858
  Beta  occ. eigenvalues --   -0.82153  -0.79472  -0.68689  -0.67805  -0.65084
  Beta  occ. eigenvalues --   -0.60093  -0.54346  -0.53242  -0.51656  -0.50517
  Beta  occ. eigenvalues --   -0.46389  -0.42446  -0.40306  -0.38080  -0.36865
  Beta  occ. eigenvalues --   -0.36320  -0.35271  -0.34928  -0.33466  -0.32680
  Beta  occ. eigenvalues --   -0.31745  -0.31141  -0.30234  -0.29533  -0.29200
  Beta  occ. eigenvalues --   -0.29064  -0.28127  -0.26122  -0.25198  -0.24099
  Beta  occ. eigenvalues --   -0.22696  -0.22118  -0.18121  -0.15926  -0.14986
  Beta  occ. eigenvalues --   -0.13592
  Beta virt. eigenvalues --    0.06345   0.07001   0.07894   0.08318   0.08882
  Beta virt. eigenvalues --    0.09299   0.09618   0.10609   0.11104   0.11338
  Beta virt. eigenvalues --    0.11791   0.11942   0.12109   0.12615   0.13156

 Mulliken charges and spin densities:
               1          2
     1  C    0.295825  -0.755720
     2  C   -1.127217   0.940694
     3  C    0.724296  -1.225608
     4  N   -0.087365   0.027178
     5  C    0.333012  -0.218584
     6  O   -0.344076  -0.001989
     7  N   -0.026753  -0.033999
     8  C   -1.297575   1.320750
     9  C    0.686308  -0.958690
    10  C   -0.922415   0.568948
    11  C    1.177652  -1.553796
    12  N   -0.448256   0.263818
    13  C    1.349474  -2.093477
    14  H    0.128675   0.007245
    15  H    0.059722   0.102578
    16  H   -0.218313   0.371689
    17  H    0.333123  -0.207474
    18  H   -0.143488   0.269656
    19  H   -0.282877   0.444905
    20  H   -0.246733   0.401145
    21  H    0.272776  -0.004599
    22  H    0.344044  -0.022525
    23  H    0.105955   0.149799
    24  H   -0.233859   0.382077
    25  H   -0.323485   0.488629
    26  H    0.215693  -0.071866
    27  H   -0.308273   0.481827
    28  H   -0.472243   0.636925
    29  H   -0.159968   0.285123
    30  H   -0.047316   0.314847
    31  H   -0.377763   0.526610
    32  H    0.041422   0.163883
 Sum of Mulliken charges =  -1.00000   1.00000

 Dipole moment (field-independent basis, Debye):
    X=              2.6572    Y=              1.5228    Z=             -1.6519  Tot=              3.4797
 Quadrupole moment (field-independent basis, Debye-Ang):
   XX=           -156.1046   YY=           -133.5120   ZZ=           -116.1543
   XY=              1.8410   XZ=              0.9758   YZ=              5.1549

 Summary of Natural Population Analysis:

                                       Natural Population
                Natural  -----------------------------------------------
    Atom  No    Charge         Core      Valence    Rydberg      Total
 -----------------------------------------------------------------------
      C    1   -0.29207      0.99964     2.28699    0.00544     3.29207
      C    2   -0.01885      0.99961     2.00786    0.01139     3.01885
      C    3   -0.28572      0.99965     2.27981    0.00626     3.28572
      N    4   -0.34112      0.99968     2.83138    0.01006     3.84112
      C    5    0.41264      0.99970     1.56452    0.02314     2.58736
      O    6   -0.33747      0.99988     3.33255    0.00504     4.33747
      N    7   -0.34300      0.99966     2.83379    0.00955     3.84300
      C    8   -0.01940      0.99957     2.00640    0.01343     3.01940
      C    9   -0.19275      0.99960     2.18343    0.00972     3.19275
      C   10   -0.19589      0.99962     2.18729    0.00897     3.19589
      C   11   -0.08615      0.99962     2.07511    0.01142     3.08615
      N   12   -0.34962      0.99974     2.83743    0.01245     3.84962
      C   13   -0.08957      0.99960     2.07846    0.01151     3.08957
      H   14    0.09564      0.00000     0.40351    0.00086     0.40436
      H   15    0.10538      0.00000     0.39359    0.00103     0.39462
      H   16    0.10205      0.00000     0.39707    0.00088     0.39795
      H   17    0.09744      0.00000     0.39967    0.00289     0.40256
      H   18    0.09392      0.00000     0.40502    0.00106     0.40608
      H   19    0.10495      0.00000     0.39386    0.00120     0.39505
      H   20    0.10466      0.00000     0.39406    0.00128     0.39534
      H   21    0.18745      0.00000     0.31036    0.00219     0.31255
      H   22    0.20099      0.00000     0.29621    0.00280     0.29901
      H   23    0.10631      0.00000     0.39128    0.00241     0.39369
      H   24    0.10167      0.00000     0.39679    0.00154     0.39833
      H   25    0.09930      0.00000     0.39894    0.00176     0.40070
      H   26    0.09640      0.00000     0.40200    0.00159     0.40360
      H   27    0.10149      0.00000     0.39744    0.00107     0.39851
      H   28    0.09612      0.00000     0.40256    0.00132     0.40388
      H   29    0.07963      0.00000     0.41795    0.00242     0.42037
      H   30    0.18074      0.00000     0.31613    0.00313     0.31926
      H   31    0.08591      0.00000     0.41221    0.00188     0.41409
      H   32    0.09890      0.00000     0.40004    0.00106     0.40110
 =======================================================================
   * Total *   -0.00000     12.99557    37.83367    0.17076    51.00000

 Normal termination of Gaussian 16 at Mon Dec 14 17:12:01 2020.
