 Gaussian 16, Revision A.03,

 -----------------------------------------------------------
 # opt freq B3LYP/6-31G(d) empiricaldispersion=gd3bj scf=xqc
 -----------------------------------------------------------

 -------------------------------
 CID_62016431_JID_10595_neutraal
 -------------------------------
 Symbolic Z-matrix:
 Charge =  0 Multiplicity = 1

 SCF Done:  E(RB3LYP) =  -863.080624711     A.U. after   14 cycles
 SCF Done:  E(RB3LYP) =  -863.088970378     A.U. after   12 cycles
 SCF Done:  E(RB3LYP) =  -863.089884858     A.U. after   12 cycles
 SCF Done:  E(RB3LYP) =  -863.090067407     A.U. after   12 cycles
 SCF Done:  E(RB3LYP) =  -863.090078586     A.U. after   11 cycles
 SCF Done:  E(RB3LYP) =  -863.090632407     A.U. after   11 cycles
 SCF Done:  E(RB3LYP) =  -863.090731110     A.U. after   11 cycles
 SCF Done:  E(RB3LYP) =  -863.090814471     A.U. after   11 cycles
 SCF Done:  E(RB3LYP) =  -863.090886827     A.U. after   11 cycles
 SCF Done:  E(RB3LYP) =  -863.090895437     A.U. after   11 cycles
 SCF Done:  E(RB3LYP) =  -863.091132810     A.U. after    9 cycles
 SCF Done:  E(RB3LYP) =  -863.091133037     A.U. after    7 cycles
 SCF Done:  E(RB3LYP) =  -863.091133084     A.U. after    7 cycles
 SCF Done:  E(RB3LYP) =  -863.091133158     A.U. after    7 cycles
 SCF Done:  E(RB3LYP) =  -863.091133174     A.U. after    6 cycles
 Optimization completed.
    -- Stationary point found.
 Normal termination of Gaussian 16 at Sun Dec 13 17:03:51 2020.

 --------------------------------------------------------------------
 #N Geom=AllCheck Guess=TCheck SCRF=Check GenChk RB3LYP/6-31G(d) Freq
 --------------------------------------------------------------------

 Structure from the checkpoint file:  "JID_10595.chk"
 -------------------------------
 CID_62016431_JID_10595_neutraal
 -------------------------------
 Charge =  0 Multiplicity = 1

 SCF Done:  E(RB3LYP) =  -863.091133174     A.U. after    1 cycles

  Exact polarizability: 247.952 -15.886 178.277 -13.401 -19.728 138.281
 Approx polarizability: 352.735 -26.330 275.981 -27.722 -45.880 224.632

                      1                      2                      3
                      A                      A                      A
 Frequencies --     20.7677                25.4251                41.4582
 Red. masses --      4.2585                 3.8937                 4.2745
 Frc consts  --      0.0011                 0.0015                 0.0043
 IR Inten    --      0.5429                 0.8252                 0.0883

                      4                      5                      6
                      A                      A                      A
 Frequencies --     48.7811                70.5077                98.9285
 Red. masses --      4.2453                 2.6961                 2.7859
 Frc consts  --      0.0060                 0.0079                 0.0161
 IR Inten    --      1.4767                 0.1906                 1.3444

                      7                      8                      9
                      A                      A                      A
 Frequencies --    115.9714               139.0052               151.2562
 Red. masses --      1.0969                 4.2671                 3.2594
 Frc consts  --      0.0087                 0.0486                 0.0439
 IR Inten    --      0.4803                 2.1927                 1.9536

                     10                     11                     12
                      A                      A                      A
 Frequencies --    161.5156               177.7465               187.8352
 Red. masses --      3.5773                 3.3198                 3.8669
 Frc consts  --      0.0550                 0.0618                 0.0804
 IR Inten    --      0.3334                 6.2745                 1.9804

                     13                     14                     15
                      A                      A                      A
 Frequencies --    243.2043               257.5693               263.6931
 Red. masses --      1.9417                 2.5043                 3.2573
 Frc consts  --      0.0677                 0.0979                 0.1334
 IR Inten    --      0.7864                13.6870                 0.5781

                     16                     17                     18
                      A                      A                      A
 Frequencies --    288.1134               319.4154               332.1085
 Red. masses --      2.3225                 1.6948                 2.4009
 Frc consts  --      0.1136                 0.1019                 0.1560
 IR Inten    --     20.1876                71.4248                32.3941

                     19                     20                     21
                      A                      A                      A
 Frequencies --    342.9832               394.7150               416.1216
 Red. masses --      2.2079                 4.1215                 2.9601
 Frc consts  --      0.1530                 0.3783                 0.3020
 IR Inten    --      8.2349                 8.4980                 0.9658

                     22                     23                     24
                      A                      A                      A
 Frequencies --    468.6033               499.2720               520.5040
 Red. masses --      2.8157                 3.0541                 3.2185
 Frc consts  --      0.3643                 0.4485                 0.5138
 IR Inten    --     14.4012                 0.5381                 3.6116

                     25                     26                     27
                      A                      A                      A
 Frequencies --    528.1088               537.1390               556.9118
 Red. masses --      3.7026                 3.5475                 2.0278
 Frc consts  --      0.6084                 0.6030                 0.3706
 IR Inten    --      2.7426                 0.7680                 2.5558

                     28                     29                     30
                      A                      A                      A
 Frequencies --    578.5178               608.2746               615.2614
 Red. masses --      3.3528                 2.6481                 4.4506
 Frc consts  --      0.6611                 0.5773                 0.9926
 IR Inten    --      0.7071                 0.1920                 1.3156

                     31                     32                     33
                      A                      A                      A
 Frequencies --    649.3476               684.8391               721.2164
 Red. masses --      4.5535                 1.2846                 4.1594
 Frc consts  --      1.1312                 0.3550                 1.2747
 IR Inten    --      1.8808                16.0691                 5.8006

                     34                     35                     36
                      A                      A                      A
 Frequencies --    755.1391               771.5693               774.6266
 Red. masses --      1.7453                 2.0775                 2.3931
 Frc consts  --      0.5864                 0.7287                 0.8460
 IR Inten    --     41.9747                 4.6760                 4.0805

                     37                     38                     39
                      A                      A                      A
 Frequencies --    809.1824               838.0524               863.4623
 Red. masses --      3.9677                 2.0587                 2.3802
 Frc consts  --      1.5307                 0.8519                 1.0456
 IR Inten    --     10.0580                 1.7481                 1.5669

                     40                     41                     42
                      A                      A                      A
 Frequencies --    865.6422               877.4748               885.5121
 Red. masses --      2.4939                 1.2966                 2.6270
 Frc consts  --      1.1010                 0.5882                 1.2137
 IR Inten    --      1.4873                 1.3470                 7.9732

                     43                     44                     45
                      A                      A                      A
 Frequencies --    896.8363               912.8016               934.5968
 Red. masses --      3.8716                 2.5706                 1.2580
 Frc consts  --      1.8347                 1.2620                 0.6474
 IR Inten    --      1.5586                 0.0901                 0.5583

                     46                     47                     48
                      A                      A                      A
 Frequencies --    950.3138               962.6437               983.9919
 Red. masses --      1.8018                 2.0487                 1.6827
 Frc consts  --      0.9587                 1.1185                 0.9599
 IR Inten    --      2.4827                 4.6761                 6.5419

                     49                     50                     51
                      A                      A                      A
 Frequencies --    994.8074               995.6631              1024.8577
 Red. masses --      1.9464                 1.7588                 4.4231
 Frc consts  --      1.1349                 1.0273                 2.7372
 IR Inten    --      1.5636                13.0074                 7.6623

                     52                     53                     54
                      A                      A                      A
 Frequencies --   1035.9074              1049.9437              1076.1529
 Red. masses --      1.4227                 2.0724                 2.2984
 Frc consts  --      0.8995                 1.3461                 1.5683
 IR Inten    --      1.4737                 1.7219                24.2668

                     55                     56                     57
                      A                      A                      A
 Frequencies --   1079.6695              1089.7920              1092.3877
 Red. masses --      1.4947                 3.2702                 3.3575
 Frc consts  --      1.0265                 2.2883                 2.3606
 IR Inten    --      3.8607                78.9784                 6.2189

                     58                     59                     60
                      A                      A                      A
 Frequencies --   1094.0843              1112.9921              1152.9492
 Red. masses --      2.9202                 1.7745                 1.9462
 Frc consts  --      2.0595                 1.2951                 1.5243
 IR Inten    --      3.9971                 0.7254                32.7311

                     61                     62                     63
                      A                      A                      A
 Frequencies --   1171.3177              1184.4955              1201.0753
 Red. masses --      1.4113                 2.0987                 1.4826
 Frc consts  --      1.1408                 1.7349                 1.2601
 IR Inten    --     48.7420                23.0169                19.6309

                     64                     65                     66
                      A                      A                      A
 Frequencies --   1213.0839              1215.6997              1239.3038
 Red. masses --      1.3781                 1.4092                 1.4896
 Frc consts  --      1.1949                 1.2271                 1.3480
 IR Inten    --      2.8341                 3.6814                14.6351

                     67                     68                     69
                      A                      A                      A
 Frequencies --   1254.4970              1272.2354              1276.0942
 Red. masses --      1.4180                 1.5268                 2.2226
 Frc consts  --      1.3148                 1.4561                 2.1324
 IR Inten    --      1.9854                 9.9230                31.7148

                     70                     71                     72
                      A                      A                      A
 Frequencies --   1288.6617              1308.7056              1322.6092
 Red. masses --      1.8407                 2.1677                 1.2930
 Frc consts  --      1.8010                 2.1875                 1.3326
 IR Inten    --      0.6110                11.1808                 0.6363

                     73                     74                     75
                      A                      A                      A
 Frequencies --   1343.5690              1346.1903              1362.4475
 Red. masses --      1.2708                 1.3651                 1.3941
 Frc consts  --      1.3516                 1.4576                 1.5247
 IR Inten    --      2.6750                24.4163                 1.1206

                     76                     77                     78
                      A                      A                      A
 Frequencies --   1367.7862              1379.8342              1383.8693
 Red. masses --      1.3786                 1.3085                 2.7051
 Frc consts  --      1.5196                 1.4678                 3.0523
 IR Inten    --      1.4995                 7.1524                16.1357

                     79                     80                     81
                      A                      A                      A
 Frequencies --   1391.6625              1405.1252              1410.6015
 Red. masses --      2.0077                 2.2898                 1.4425
 Frc consts  --      2.2909                 2.6636                 1.6912
 IR Inten    --     65.6355                16.7269                 0.5192

                     82                     83                     84
                      A                      A                      A
 Frequencies --   1412.5305              1428.1883              1435.7208
 Red. masses --      1.3161                 1.4731                 1.3238
 Frc consts  --      1.5471                 1.7703                 1.6077
 IR Inten    --     41.1351                24.7747                11.7483

                     85                     86                     87
                      A                      A                      A
 Frequencies --   1445.6791              1451.9663              1491.5636
 Red. masses --      1.3143                 1.3915                 2.0585
 Frc consts  --      1.6185                 1.7284                 2.6982
 IR Inten    --      2.8738                22.8511                 0.0857

                     88                     89                     90
                      A                      A                      A
 Frequencies --   1497.8317              1502.4568              1513.7265
 Red. masses --      1.1276                 1.0442                 1.1225
 Frc consts  --      1.4905                 1.3888                 1.5154
 IR Inten    --      5.3802                 5.0948                 3.7744

                     91                     92                     93
                      A                      A                      A
 Frequencies --   1517.4215              1520.0823              1524.5707
 Red. masses --      1.1776                 1.3605                 1.0946
 Frc consts  --      1.5975                 1.8522                 1.4989
 IR Inten    --      3.4936                 1.1157                 2.4420

                     94                     95                     96
                      A                      A                      A
 Frequencies --   1525.8856              1531.3000              1545.3302
 Red. masses --      1.0945                 1.1149                 1.2509
 Frc consts  --      1.5014                 1.5404                 1.7601
 IR Inten    --      0.5540                 5.5815                19.0976

                     97                     98                     99
                      A                      A                      A
 Frequencies --   1550.4593              1576.1565              1609.0775
 Red. masses --      2.3916                 5.0975                 5.9821
 Frc consts  --      3.3874                 7.4611                 9.1255
 IR Inten    --     21.0634                 2.0535                 6.7359

                    100                    101                    102
                      A                      A                      A
 Frequencies --   1688.9642              2981.9465              2998.0248
 Red. masses --      5.9454                 1.0703                 1.0692
 Frc consts  --      9.9925                 5.6072                 5.6620
 IR Inten    --      5.5728                22.2463                65.9399

                    103                    104                    105
                      A                      A                      A
 Frequencies --   3013.9006              3031.8219              3041.5868
 Red. masses --      1.0680                 1.0683                 1.0687
 Frc consts  --      5.7159                 5.7855                 5.8250
 IR Inten    --     57.3761                56.5657                89.2724

                    106                    107                    108
                      A                      A                      A
 Frequencies --   3054.2439              3059.5011              3064.6383
 Red. masses --      1.0361                 1.0753                 1.0647
 Frc consts  --      5.6943                 5.9302                 5.8916
 IR Inten    --     18.1069                17.8201                33.0240

                    109                    110                    111
                      A                      A                      A
 Frequencies --   3067.8169              3075.3593              3082.2425
 Red. masses --      1.0886                 1.0865                 1.0906
 Frc consts  --      6.0365                 6.0543                 6.1045
 IR Inten    --     23.7491                31.8678                26.2803

                    112                    113                    114
                      A                      A                      A
 Frequencies --   3088.8843              3092.8049              3107.0462
 Red. masses --      1.0958                 1.0943                 1.1039
 Frc consts  --      6.1603                 6.1671                 6.2788
 IR Inten    --     95.0290                24.9740                48.9808

                    115                    116                    117
                      A                      A                      A
 Frequencies --   3109.6929              3128.0051              3138.8903
 Red. masses --      1.0998                 1.0941                 1.1035
 Frc consts  --      6.2659                 6.3071                 6.4057
 IR Inten    --     11.0601                16.3232                19.2110

                    118                    119                    120
                      A                      A                      A
 Frequencies --   3147.2878              3200.3345              3223.5967
 Red. masses --      1.0950                 1.0893                 1.0897
 Frc consts  --      6.3903                 6.5735                 6.6716
 IR Inten    --     30.7702                10.1055                 5.5970

                    121                    122                    123
                      A                      A                      A
 Frequencies --   3244.5459              3289.5449              3768.3131
 Red. masses --      1.0972                 1.0974                 1.0654
 Frc consts  --      6.8050                 6.9967                 8.9136
 IR Inten    --      7.6086                 0.1671                53.6014

 - Thermochemistry -
 -------------------
 Temperature   298.150 Kelvin.  Pressure   1.00000 Atm.
 Atom     1 has atomic number  6 and mass  12.00000

 Molecular mass:   273.18411 amu.
 Principal axes and moments of inertia in atomic units:
                           1         2         3
     Eigenvalues --  2749.295018710.713939903.48093
           X            0.99994  -0.01067   0.00033
           Y            0.01067   0.99987  -0.01231
           Z           -0.00020   0.01231   0.99992
 This molecule is an asymmetric top.
 Rotational symmetry number  1.
 Warning -- assumption of classical behavior for rotation
           may cause significant error
 Rotational temperatures (Kelvin)      0.03150     0.00994     0.00875
 Rotational constants (GHZ):           0.65644     0.20719     0.18223
 Zero-point vibrational energy     987301.8 (Joules/Mol)
                                  235.97080 (Kcal/Mol)
 Warning -- explicit consideration of  30 degrees of freedom as
           vibrations may cause significant error
 Vibrational temperatures:     29.88    36.58    59.65    70.19   101.44
          (Kelvin)            142.34   166.86   200.00   217.62   232.38
                              255.74   270.25   349.92   370.58   379.40
                              414.53   459.57   477.83   493.48   567.91
                              598.71   674.22   718.34   748.89   759.83
                              772.82   801.27   832.36   875.17   885.22
                              934.27   985.33  1037.67  1086.48  1110.12
                             1114.51  1164.23  1205.77  1242.33  1245.47
                             1262.49  1274.05  1290.35  1313.32  1344.68
                             1367.29  1385.03  1415.74  1431.31  1432.54
                             1474.54  1490.44  1510.63  1548.34  1553.40
                             1567.97  1571.70  1574.14  1601.35  1658.84
                             1685.26  1704.22  1728.08  1745.36  1749.12
                             1783.08  1804.94  1830.46  1836.01  1854.10
                             1882.94  1902.94  1933.10  1936.87  1960.26
                             1967.94  1985.27  1991.08  2002.29  2021.66
                             2029.54  2032.32  2054.84  2065.68  2080.01
                             2089.06  2146.03  2155.05  2161.70  2177.91
                             2183.23  2187.06  2193.52  2195.41  2203.20
                             2223.39  2230.77  2267.74  2315.10  2430.04
                             4290.36  4313.49  4336.33  4362.12  4376.17
                             4394.38  4401.94  4409.33  4413.90  4424.76
                             4434.66  4444.22  4449.86  4470.35  4474.15
                             4500.50  4516.16  4528.25  4604.57  4638.04
                             4668.18  4732.92  5421.76

 Zero-point correction=                           0.376043 (Hartree/Particle)
 Thermal correction to Energy=                    0.395037
 Thermal correction to Enthalpy=                  0.395981
 Thermal correction to Gibbs Free Energy=         0.327052
 Sum of electronic and zero-point Energies=           -862.715090
 Sum of electronic and thermal Energies=              -862.696096
 Sum of electronic and thermal Enthalpies=            -862.695152
 Sum of electronic and thermal Free Energies=         -862.764081

                     E (Thermal)             CV                S
                      KCal/Mol        Cal/Mol-Kelvin    Cal/Mol-Kelvin
 Total                  247.889             73.317            145.072
 Electronic               0.000              0.000              0.000
 Translational            0.889              2.981             42.714
 Rotational               0.889              2.981             33.827
 Vibrational            246.112             67.355             68.531
 Vibration     1          0.593              1.986              6.559
 Vibration     2          0.593              1.985              6.158
 Vibration     3          0.594              1.981              5.188
 Vibration     4          0.595              1.978              4.866
 Vibration     5          0.598              1.968              4.139
 Vibration     6          0.604              1.950              3.475
 Vibration     7          0.608              1.936              3.166
 Vibration     8          0.615              1.914              2.818
 Vibration     9          0.619              1.901              2.656
 Vibration    10          0.622              1.890              2.532
 Vibration    11          0.628              1.870              2.352
 Vibration    12          0.633              1.857              2.249
 Vibration    13          0.659              1.774              1.779
 Vibration    14          0.667              1.750              1.678
 Vibration    15          0.670              1.739              1.637
 Vibration    16          0.685              1.696              1.485
 Vibration    17          0.705              1.636              1.313
 Vibration    18          0.714              1.611              1.250
 Vibration    19          0.722              1.590              1.198
 Vibration    20          0.762              1.481              0.982
 Vibration    21          0.779              1.435              0.905
 Vibration    22          0.826              1.320              0.741
 Vibration    23          0.855              1.252              0.660
 Vibration    24          0.875              1.205              0.609
 Vibration    25          0.883              1.188              0.591
 Vibration    26          0.892              1.168              0.571
 Vibration    27          0.912              1.125              0.530
 Vibration    28          0.935              1.078              0.488
 Vibration    29          0.967              1.014              0.436
 Vibration    30          0.975              1.000              0.424

                           ! Non-Optimized Parameters !
 Normal termination of Gaussian 16 at Sun Dec 13 17:28:22 2020.

 ----------------------------------------------------------------------
 # B3LYP/6-311++G(d,p) empiricaldispersion=gd3bj scf=xqc pop=npa geom=c
 heck
 ----------------------------------------------------------------------

 ---------------------------------------
 CID_62016431_JID_10595_Energie_neutraal
 ---------------------------------------
 Structure from the checkpoint file:  "JID_10595.chk"
 Charge =  0 Multiplicity = 1

 SCF Done:  E(RB3LYP) =  -863.327318323     A.U. after   15 cycles
 Normal termination of Gaussian 16 at Sun Dec 13 17:38:31 2020.

 ----------------------------------------------------------------------
 # B3LYP/6-311++G(d,p) empiricaldispersion=gd3bj scf=xqc pop=npa geom=c
 heck
 ----------------------------------------------------------------------

 -------------------------------------
 CID_62016431_JID_10595_Energie_kation
 -------------------------------------
 Structure from the checkpoint file:  "JID_10595.chk"
 Charge =  1 Multiplicity = 2

 SCF Done:  E(UB3LYP) =  -863.068902003     A.U. after   23 cycles
 Normal termination of Gaussian 16 at Sun Dec 13 17:59:43 2020.
 Gaussian 16:  ES64L-G16RevA.03 25-Dec-2016

 ----------------------------------------------------------------------
 # B3LYP/6-311++G(d,p) empiricaldispersion=gd3bj scf=xqc pop=npa geom=c
 heck
 ----------------------------------------------------------------------

 ------------------------------------
 CID_62016431_JID_10595_Energie_anion
 ------------------------------------
 Structure from the checkpoint file:  "JID_10595.chk"
 Charge = -1 Multiplicity = 2

                         Standard orientation:
 ---------------------------------------------------------------------
 Center     Atomic      Atomic             Coordinates (Angstroms)
 Number     Number       Type             X           Y           Z
 ---------------------------------------------------------------------
      1          6           0       -3.171737    1.858165   -1.588991
      2          6           0       -3.315090    0.633302   -0.732284
      3          6           0       -4.487173    0.262909   -0.111575
      4          6           0       -4.557155   -0.904911    0.698421
      5          6           0       -3.455521   -1.689350    0.884564
      6          7           0       -2.277705   -1.331596    0.275304
      7          6           0       -2.175354   -0.189393   -0.539103
      8          7           0       -0.936552   -0.059915   -1.013116
      9          6           0       -0.226285   -1.111946   -0.501307
     10          6           0       -1.027731   -1.915526    0.289369
     11          6           0        1.243391   -1.278980   -0.772688
     12          7           0        2.092622   -0.845710    0.334179
     13          6           0        3.385949   -1.513859    0.393859
     14          6           0        4.389546   -1.230979   -0.731739
     15          8           0        4.916641    0.089382   -0.700989
     16          6           0        2.048723    0.570091    0.726284
     17          6           0        1.841116    1.637729   -0.380510
     18          6           0        1.344018    2.862286    0.396490
     19          6           0        0.330572    2.255302    1.384851
     20          6           0        0.939798    0.892175    1.783984
     21          1           0       -2.429682    2.543736   -1.163263
     22          1           0       -2.811816    1.593045   -2.589164
     23          1           0       -4.124664    2.386350   -1.683069
     24          1           0       -5.375718    0.873855   -0.239417
     25          1           0       -5.488133   -1.182618    1.179650
     26          1           0       -3.435304   -2.587260    1.489834
     27          1           0       -0.821434   -2.809447    0.857361
     28          1           0        1.452351   -2.343893   -0.928608
     29          1           0        1.462685   -0.773375   -1.727440
     30          1           0        3.861726   -1.250273    1.345845
     31          1           0        3.203563   -2.599049    0.417220
     32          1           0        5.251221   -1.898173   -0.613334
     33          1           0        3.936704   -1.455623   -1.711278
     34          1           0        4.194501    0.692150   -0.931402
     35          1           0        3.017920    0.775673    1.190780
     36          1           0        2.746604    1.853358   -0.963797
     37          1           0        1.061804    1.320205   -1.078222
     38          1           0        0.905118    3.629095   -0.250957
     39          1           0        2.176058    3.328550    0.941803
     40          1           0       -0.621366    2.095539    0.867164
     41          1           0        0.134510    2.906516    2.243188
     42          1           0        0.193196    0.097232    1.798584
     43          1           0        1.386076    0.927811    2.784109
 ---------------------------------------------------------------------

 SCF Done:  E(UB3LYP) =  -863.318801724     A.U. after   33 cycles
 SCF Done:  E(UB3LYP) =  -863.318801724     a.u. after    1 cycles

 The electronic state is 2-A.
 Alpha  occ. eigenvalues --  -19.03084 -14.26266 -14.19903 -14.17043 -10.11792
 Alpha  occ. eigenvalues --  -10.10835 -10.09843 -10.09458 -10.09291 -10.08492
 Alpha  occ. eigenvalues --  -10.07819 -10.07734 -10.07135 -10.06442 -10.06215
 Alpha  occ. eigenvalues --  -10.05878 -10.05875 -10.05489 -10.05416 -10.05198
 Alpha  occ. eigenvalues --   -0.93248  -0.90886  -0.82159  -0.78446  -0.72898
 Alpha  occ. eigenvalues --   -0.71655  -0.65830  -0.64485  -0.63287  -0.61015
 Alpha  occ. eigenvalues --   -0.60179  -0.58544  -0.56739  -0.51282  -0.50040
 Alpha  occ. eigenvalues --   -0.49296  -0.48087  -0.46886  -0.44447  -0.41992
 Alpha  occ. eigenvalues --   -0.40483  -0.39745  -0.39357  -0.37742  -0.36587
 Alpha  occ. eigenvalues --   -0.35931  -0.35418  -0.34465  -0.33416  -0.32431
 Alpha  occ. eigenvalues --   -0.31636  -0.31512  -0.31266  -0.30624  -0.30306
 Alpha  occ. eigenvalues --   -0.28953  -0.28124  -0.27050  -0.25796  -0.25358
 Alpha  occ. eigenvalues --   -0.24819  -0.24534  -0.24313  -0.23884  -0.23489
 Alpha  occ. eigenvalues --   -0.23256  -0.22181  -0.21238  -0.19224  -0.19128
 Alpha  occ. eigenvalues --   -0.16050  -0.12416  -0.10395  -0.09283   0.04669
 Alpha virt. eigenvalues --    0.06272   0.06940   0.07183   0.07680   0.08368
 Alpha virt. eigenvalues --    0.08408   0.09295   0.09509   0.09697   0.10481
 Alpha virt. eigenvalues --    0.10640   0.11181   0.11860   0.11981   0.12148

  Beta  occ. eigenvalues --  -19.03080 -14.26115 -14.19898 -14.16990 -10.11776
  Beta  occ. eigenvalues --  -10.10878 -10.09841 -10.09440 -10.09290 -10.08215
  Beta  occ. eigenvalues --  -10.07837 -10.07682 -10.07134 -10.06440 -10.06214
  Beta  occ. eigenvalues --  -10.05897 -10.05896 -10.05411 -10.05224 -10.05090
  Beta  occ. eigenvalues --   -0.93236  -0.90671  -0.82132  -0.78250  -0.72890
  Beta  occ. eigenvalues --   -0.71335  -0.65685  -0.64286  -0.63230  -0.61003
  Beta  occ. eigenvalues --   -0.60108  -0.58331  -0.56694  -0.51227  -0.49958
  Beta  occ. eigenvalues --   -0.49024  -0.48027  -0.46850  -0.44402  -0.41955
  Beta  occ. eigenvalues --   -0.40294  -0.39670  -0.39331  -0.37628  -0.36541
  Beta  occ. eigenvalues --   -0.35834  -0.35361  -0.33997  -0.33346  -0.32257
  Beta  occ. eigenvalues --   -0.31598  -0.31475  -0.31208  -0.30586  -0.30018
  Beta  occ. eigenvalues --   -0.28883  -0.28083  -0.27000  -0.25751  -0.25280
  Beta  occ. eigenvalues --   -0.24760  -0.24459  -0.24222  -0.23867  -0.23476
  Beta  occ. eigenvalues --   -0.23203  -0.21926  -0.20954  -0.19205  -0.18366
  Beta  occ. eigenvalues --   -0.15970  -0.11855  -0.10240  -0.08574
  Beta virt. eigenvalues --    0.06558   0.07185   0.07326   0.07823   0.08459
  Beta virt. eigenvalues --    0.08693   0.09000   0.09327   0.09654   0.09959
  Beta virt. eigenvalues --    0.10547   0.10714   0.11255   0.11832   0.12118

 Mulliken charges and spin densities:
               1          2
     1  C   -0.508269  -0.223873
     2  C    0.130112   0.423796
     3  C   -0.240740  -0.186940
     4  C   -0.190892  -0.158636
     5  C    0.374202  -0.270507
     6  N    0.259544   0.029891
     7  C   -0.656372   0.195411
     8  N    0.080164   0.042793
     9  C    0.745037  -0.558133
    10  C   -0.407720   0.184997
    11  C   -0.216045  -0.308489
    12  N    0.417349   0.062509
    13  C   -0.222124   0.346125
    14  C    0.472705  -0.897512
    15  O   -0.224585   0.008396
    16  C   -0.745352   0.017276
    17  C    0.191048  -0.130204
    18  C   -0.596993  -0.076704
    19  C   -0.239423   0.110554
    20  C   -0.289327  -0.232365
    21  H    0.144933   0.013333
    22  H    0.108445   0.053754
    23  H    0.095202   0.029567
    24  H    0.021260   0.092607
    25  H   -0.101691   0.252937
    26  H   -0.148196   0.259452
    27  H   -0.353097   0.508590
    28  H   -0.027054   0.180958
    29  H    0.188642  -0.023591
    30  H    0.035744   0.122340
    31  H   -0.303253   0.446118
    32  H   -0.272606   0.447391
    33  H    0.012911   0.152049
    34  H    0.168618   0.048617
    35  H    0.230589  -0.057242
    36  H    0.091619   0.008320
    37  H    0.182286   0.008129
    38  H    0.157400   0.000534
    39  H    0.073581   0.033607
    40  H    0.097686  -0.044417
    41  H    0.134508   0.023405
    42  H    0.282469  -0.054120
    43  H    0.047683   0.119277
 Sum of Mulliken charges =  -1.00000   1.00000

 Dipole moment (field-independent basis, Debye):
    X=              0.3749    Y=              4.2414    Z=             -0.1017  Tot=              4.2591
 Quadrupole moment (field-independent basis, Debye-Ang):
   XX=           -211.1546   YY=           -154.9423   ZZ=           -148.8020
   XY=              4.9479   XZ=              3.0045   YZ=              3.7555

 Summary of Natural Population Analysis:

                                       Natural Population
                Natural  -----------------------------------------------
    Atom  No    Charge         Core      Valence    Rydberg      Total
 -----------------------------------------------------------------------
      C    1   -0.29001      0.99965     2.28540    0.00496     3.29001
      C    2    0.01162      0.99948     1.98129    0.00761     2.98838
      C    3   -0.09035      0.99953     2.08075    0.01007     3.09035
      C    4   -0.13354      0.99958     2.12452    0.00944     3.13354
      C    5    0.05679      0.99956     1.93211    0.01154     2.94321
      N    6   -0.16179      0.99961     2.65401    0.00817     3.66179
      C    7    0.17638      0.99954     1.80842    0.01566     2.82362
      N    8   -0.27443      0.99968     2.76575    0.00901     3.77443
      C    9    0.06919      0.99955     1.91596    0.01530     2.93081
      C   10   -0.05362      0.99949     2.04283    0.01130     3.05362
      C   11   -0.09961      0.99956     2.08843    0.01161     3.09961
      N   12   -0.28333      0.99969     2.76900    0.01464     3.78333
      C   13   -0.09044      0.99960     2.07853    0.01231     3.09044
      C   14   -0.02098      0.99959     2.00892    0.01246     3.02098
      O   15   -0.37295      0.99990     3.36614    0.00692     4.37295
      C   16   -0.00388      0.99957     1.99106    0.01324     3.00388
      C   17   -0.20718      0.99961     2.20071    0.00687     3.20718
      C   18   -0.18792      0.99964     2.18107    0.00720     3.18792
      C   19   -0.19582      0.99964     2.18900    0.00718     3.19582
      C   20   -0.19715      0.99962     2.18771    0.00982     3.19715
      H   21    0.10364      0.00000     0.39504    0.00132     0.39636
      H   22    0.10617      0.00000     0.39248    0.00134     0.39383
      H   23    0.09469      0.00000     0.40437    0.00094     0.40531
      H   24    0.09363      0.00000     0.40545    0.00092     0.40637
      H   25    0.10000      0.00000     0.39917    0.00082     0.40000
      H   26    0.09426      0.00000     0.40475    0.00099     0.40574
      H   27    0.10318      0.00000     0.39570    0.00113     0.39682
      H   28    0.10163      0.00000     0.39709    0.00129     0.39837
      H   29    0.08812      0.00000     0.40999    0.00189     0.41188
      H   30    0.09451      0.00000     0.40438    0.00111     0.40549
      H   31    0.09628      0.00000     0.40202    0.00170     0.40372
      H   32    0.08503      0.00000     0.41324    0.00172     0.41497
      H   33    0.07629      0.00000     0.42255    0.00115     0.42371
      H   34    0.22840      0.00000     0.26844    0.00316     0.27160
      H   35    0.09546      0.00000     0.40304    0.00150     0.40454
      H   36    0.08261      0.00000     0.41608    0.00132     0.41739
      H   37    0.11788      0.00000     0.38027    0.00184     0.38212
      H   38    0.09682      0.00000     0.40216    0.00102     0.40318
      H   39    0.08822      0.00000     0.41057    0.00120     0.41178
      H   40    0.10473      0.00000     0.39385    0.00142     0.39527
      H   41    0.09333      0.00000     0.40576    0.00091     0.40667
      H   42    0.11172      0.00000     0.38656    0.00172     0.38828
      H   43    0.09241      0.00000     0.40667    0.00092     0.40759
 =======================================================================
   * Total *    0.00000     19.99210    53.77125    0.23665    74.00000

 Normal termination of Gaussian 16 at Sun Dec 13 18:30:51 2020.
