 Gaussian 16, Revision A.03,

 -----------------------------------------------------------
 # opt freq B3LYP/6-31G(d) empiricaldispersion=gd3bj scf=xqc
 -----------------------------------------------------------

 -------------------------------
 CID_114760946_JID_7808_neutraal
 -------------------------------
 Symbolic Z-matrix:
 Charge =  0 Multiplicity = 1

 SCF Done:  E(RB3LYP) =  -821.783511795     A.U. after   14 cycles
 SCF Done:  E(RB3LYP) =  -821.782669374     A.U. after   13 cycles
 SCF Done:  E(RB3LYP) =  -821.790025160     A.U. after   11 cycles
 SCF Done:  E(RB3LYP) =  -821.790903045     A.U. after   13 cycles
 SCF Done:  E(RB3LYP) =  -821.791643732     A.U. after   12 cycles
 SCF Done:  E(RB3LYP) =  -821.792322829     A.U. after   11 cycles
 SCF Done:  E(RB3LYP) =  -821.792490769     A.U. after   11 cycles
 SCF Done:  E(RB3LYP) =  -821.792630606     A.U. after   10 cycles
 SCF Done:  E(RB3LYP) =  -821.792706604     A.U. after   11 cycles
 SCF Done:  E(RB3LYP) =  -821.792744302     A.U. after    9 cycles
 SCF Done:  E(RB3LYP) =  -821.794746122     A.U. after   10 cycles
 SCF Done:  E(RB3LYP) =  -821.794751249     A.U. after   10 cycles
 SCF Done:  E(RB3LYP) =  -821.794753176     A.U. after    8 cycles
 SCF Done:  E(RB3LYP) =  -821.794755106     A.U. after    8 cycles
 SCF Done:  E(RB3LYP) =  -821.794755289     A.U. after    8 cycles
 SCF Done:  E(RB3LYP) =  -821.794755659     A.U. after    7 cycles
 Optimization completed.
    -- Stationary point found.
 Normal termination of Gaussian 16 at Fri Dec 11 13:24:31 2020.

 --------------------------------------------------------------------
 #N Geom=AllCheck Guess=TCheck SCRF=Check GenChk RB3LYP/6-31G(d) Freq
 --------------------------------------------------------------------

 Structure from the checkpoint file:  "JID_7808.chk"
 -------------------------------
 CID_114760946_JID_7808_neutraal
 -------------------------------
 Charge =  0 Multiplicity = 1

 SCF Done:  E(RB3LYP) =  -821.794755659     A.U. after    1 cycles

  Exact polarizability: 157.483  -1.463 140.592  -5.150   2.617 117.351
 Approx polarizability: 203.709   2.699 199.044  -5.566   7.536 179.682

                      1                      2                      3
                      A                      A                      A
 Frequencies --     37.8945                52.5481                71.4471
 Red. masses --      3.9735                 2.7768                 3.6528
 Frc consts  --      0.0034                 0.0045                 0.0110
 IR Inten    --      0.6593                 0.5886                 1.2712

                      4                      5                      6
                      A                      A                      A
 Frequencies --     83.2096                92.1118               117.2950
 Red. masses --      4.6127                 3.5971                 3.5345
 Frc consts  --      0.0188                 0.0180                 0.0287
 IR Inten    --      5.4935                 1.7861                 2.4096

                      7                      8                      9
                      A                      A                      A
 Frequencies --    136.7737               144.9540               172.6489
 Red. masses --      2.5493                 2.9266                 1.3961
 Frc consts  --      0.0281                 0.0362                 0.0245
 IR Inten    --      1.3365                 3.7977                 0.7006

                     10                     11                     12
                      A                      A                      A
 Frequencies --    191.1728               215.6359               239.8419
 Red. masses --      2.8562                 3.0461                 3.2101
 Frc consts  --      0.0615                 0.0835                 0.1088
 IR Inten    --      7.8557                 2.4734                 8.3961

                     13                     14                     15
                      A                      A                      A
 Frequencies --    265.2015               275.0767               308.3184
 Red. masses --      3.4624                 5.2777                 3.4759
 Frc consts  --      0.1435                 0.2353                 0.1947
 IR Inten    --     21.0527                 3.3281                 3.1290

                     16                     17                     18
                      A                      A                      A
 Frequencies --    365.0638               381.0010               403.7285
 Red. masses --      3.9078                 2.6132                 2.4897
 Frc consts  --      0.3068                 0.2235                 0.2391
 IR Inten    --      8.0799                 2.3721                 8.4289

                     19                     20                     21
                      A                      A                      A
 Frequencies --    412.2587               434.6132               474.3877
 Red. masses --      2.2289                 2.3841                 3.1308
 Frc consts  --      0.2232                 0.2653                 0.4151
 IR Inten    --      0.8277                 0.9314                 6.5926

                     22                     23                     24
                      A                      A                      A
 Frequencies --    526.1259               598.5361               662.7818
 Red. masses --      3.1324                 1.1122                 3.1899
 Frc consts  --      0.5109                 0.2348                 0.8256
 IR Inten    --      3.7987               206.6316                19.7749

                     25                     26                     27
                      A                      A                      A
 Frequencies --    666.9255               694.3895               714.8524
 Red. masses --      3.5670                 3.6753                 5.4538
 Frc consts  --      0.9348                 1.0441                 1.6420
 IR Inten    --      0.7509                19.7936                 6.4363

                     28                     29                     30
                      A                      A                      A
 Frequencies --    763.5723               790.2134               797.1928
 Red. masses --      3.6298                 3.4165                 3.9538
 Frc consts  --      1.2469                 1.2570                 1.4804
 IR Inten    --      3.0945                12.9304                49.9236

                     31                     32                     33
                      A                      A                      A
 Frequencies --    815.5615               829.7913               862.1506
 Red. masses --      1.6238                 1.4659                 1.4256
 Frc consts  --      0.6363                 0.5947                 0.6243
 IR Inten    --      5.1679                 5.1958                20.7946

                     34                     35                     36
                      A                      A                      A
 Frequencies --    878.2657               894.7720               900.6768
 Red. masses --      1.8356                 3.5634                 2.7625
 Frc consts  --      0.8342                 1.6809                 1.3203
 IR Inten    --    158.7251                 0.2096                 4.0874

                     37                     38                     39
                      A                      A                      A
 Frequencies --    911.6032               920.1357               934.5018
 Red. masses --      2.4621                 2.7076                 2.3426
 Frc consts  --      1.2055                 1.3506                 1.2053
 IR Inten    --      1.8765                10.9313                 5.8290

                     40                     41                     42
                      A                      A                      A
 Frequencies --    937.8222               952.9024               970.5298
 Red. masses --      2.7571                 2.9630                 1.8535
 Frc consts  --      1.4287                 1.5852                 1.0286
 IR Inten    --     10.8237                22.5662                15.7951

                     43                     44                     45
                      A                      A                      A
 Frequencies --    984.3179              1011.5622              1043.6345
 Red. masses --      2.0561                 2.3516                 1.8280
 Frc consts  --      1.1737                 1.4177                 1.1731
 IR Inten    --      3.7472                20.0835                74.2155

                     46                     47                     48
                      A                      A                      A
 Frequencies --   1063.1701              1074.6830              1091.4566
 Red. masses --      2.0378                 3.1255                 1.6954
 Frc consts  --      1.3571                 2.1268                 1.1900
 IR Inten    --      8.1883                53.5216                54.9965

                     49                     50                     51
                      A                      A                      A
 Frequencies --   1103.1497              1104.7258              1130.2613
 Red. masses --      2.7982                 2.2657                 2.2905
 Frc consts  --      2.0063                 1.6292                 1.7240
 IR Inten    --      1.8224                30.8996                22.7699

                     52                     53                     54
                      A                      A                      A
 Frequencies --   1152.9100              1162.6287              1166.0417
 Red. masses --      2.2708                 1.7259                 1.6673
 Frc consts  --      1.7784                 1.3745                 1.3356
 IR Inten    --      7.6950                 5.9213                16.8244

                     55                     56                     57
                      A                      A                      A
 Frequencies --   1204.3351              1219.5128              1238.7105
 Red. masses --      1.7124                 1.4806                 1.2236
 Frc consts  --      1.4634                 1.2974                 1.1062
 IR Inten    --     10.9544                 2.9241                11.5480

                     58                     59                     60
                      A                      A                      A
 Frequencies --   1245.7557              1262.9320              1263.6402
 Red. masses --      1.3827                 1.3733                 1.9941
 Frc consts  --      1.2643                 1.2905                 1.8760
 IR Inten    --     11.1743                27.9489                10.9342

                     61                     62                     63
                      A                      A                      A
 Frequencies --   1284.0155              1297.0609              1307.2719
 Red. masses --      1.8218                 1.3562                 1.4392
 Frc consts  --      1.7696                 1.3443                 1.4491
 IR Inten    --     20.0795                 5.4498                 5.6507

                     64                     65                     66
                      A                      A                      A
 Frequencies --   1317.6341              1329.4331              1336.0694
 Red. masses --      1.9456                 1.3895                 1.3704
 Frc consts  --      1.9902                 1.4469                 1.4413
 IR Inten    --    113.0738               102.9300                11.8167

                     67                     68                     69
                      A                      A                      A
 Frequencies --   1343.4368              1361.6818              1367.9127
 Red. masses --      1.3397                 1.3809                 1.4881
 Frc consts  --      1.4246                 1.5086                 1.6406
 IR Inten    --     17.1725                44.8662                73.6467

                     70                     71                     72
                      A                      A                      A
 Frequencies --   1385.4498              1391.6399              1412.6302
 Red. masses --      1.3260                 1.4631                 1.4058
 Frc consts  --      1.4996                 1.6695                 1.6528
 IR Inten    --      8.6121                 9.5716                 7.3477

                     73                     74                     75
                      A                      A                      A
 Frequencies --   1429.3317              1435.8079              1477.8152
 Red. masses --      1.4772                 1.4806                 1.1531
 Frc consts  --      1.7781                 1.7983                 1.4837
 IR Inten    --     14.5414                31.3559                 6.2705

                     76                     77                     78
                      A                      A                      A
 Frequencies --   1500.2856              1507.7227              1510.1529
 Red. masses --      1.1426                 1.0980                 1.0993
 Frc consts  --      1.5153                 1.4706                 1.4771
 IR Inten    --      8.9148                 2.9423                 7.2930

                     79                     80                     81
                      A                      A                      A
 Frequencies --   1515.4223              1519.6286              1528.8834
 Red. masses --      1.0994                 1.0591                 1.0869
 Frc consts  --      1.4875                 1.4410                 1.4969
 IR Inten    --      3.1760                13.0900                11.0036

                     82                     83                     84
                      A                      A                      A
 Frequencies --   1534.7619              1538.0270              1540.9848
 Red. masses --      1.0585                 1.0941                 1.0929
 Frc consts  --      1.4691                 1.5248                 1.5291
 IR Inten    --      6.6222                 1.5132                 8.3308

                     85                     86                     87
                      A                      A                      A
 Frequencies --   1559.4332              1644.6736              1783.9890
 Red. masses --      1.0968                 1.4921                 7.2760
 Frc consts  --      1.5715                 2.3780                13.6436
 IR Inten    --      4.0735               221.3484               318.7558

                     88                     89                     90
                      A                      A                      A
 Frequencies --   3019.7956              3026.2366              3035.3721
 Red. masses --      1.0528                 1.0653                 1.0689
 Frc consts  --      5.6565                 5.7482                 5.8022
 IR Inten    --     54.1448                35.4987                59.6283

                     91                     92                     93
                      A                      A                      A
 Frequencies --   3048.2977              3053.3012              3054.4167
 Red. masses --      1.0697                 1.0681                 1.0623
 Frc consts  --      5.8564                 5.8667                 5.8391
 IR Inten    --     32.1219                48.3071                53.2891

                     94                     95                     96
                      A                      A                      A
 Frequencies --   3067.4291              3078.8335              3092.7748
 Red. masses --      1.0629                 1.0742                 1.0879
 Frc consts  --      5.8926                 5.9996                 6.1313
 IR Inten    --     35.3354                15.3754                31.7385

                     97                     98                     99
                      A                      A                      A
 Frequencies --   3094.9737              3100.2921              3104.1212
 Red. masses --      1.0959                 1.0981                 1.0941
 Frc consts  --      6.1847                 6.2185                 6.2113
 IR Inten    --     12.2139                85.3854                12.1492

                    100                    101                    102
                      A                      A                      A
 Frequencies --   3106.8210              3125.1751              3131.6421
 Red. masses --      1.0961                 1.1024                 1.0981
 Frc consts  --      6.2336                 6.3435                 6.3449
 IR Inten    --     37.5505                43.1085                17.4565

                    103                    104                    105
                      A                      A                      A
 Frequencies --   3148.7391              3156.8491              3175.7729
 Red. masses --      1.0962                 1.0989                 1.0989
 Frc consts  --      6.4036                 6.4526                 6.5299
 IR Inten    --     14.2216                 9.2385                 9.1995

                    106                    107                    108
                      A                      A                      A
 Frequencies --   3462.1232              3481.3421              3585.5008
 Red. masses --      1.0803                 1.0739                 1.0673
 Frc consts  --      7.6290                 7.6682                 8.0842
 IR Inten    --    300.0790                 0.2093               225.4278

 - Thermochemistry -
 -------------------
 Temperature   298.150 Kelvin.  Pressure   1.00000 Atm.
 Atom     1 has atomic number  6 and mass  12.00000

 Molecular mass:   243.15829 amu.
 Principal axes and moments of inertia in atomic units:
                           1         2         3
     Eigenvalues --  2665.721594995.876346580.79091
           X            0.99983  -0.01827  -0.00382
           Y            0.01830   0.99981   0.00734
           Z            0.00368  -0.00741   0.99997
 This molecule is an asymmetric top.
 Rotational symmetry number  1.
 Warning -- assumption of classical behavior for rotation
           may cause significant error
 Rotational temperatures (Kelvin)      0.03249     0.01734     0.01316
 Rotational constants (GHZ):           0.67702     0.36125     0.27424
 Zero-point vibrational energy     883638.8 (Joules/Mol)
                                  211.19475 (Kcal/Mol)
 Warning -- explicit consideration of  23 degrees of freedom as
           vibrations may cause significant error
 Vibrational temperatures:     54.52    75.60   102.80   119.72   132.53
          (Kelvin)            168.76   196.79   208.56   248.40   275.06
                              310.25   345.08   381.57   395.77   443.60
                              525.25   548.18   580.88   593.15   625.31
                              682.54   756.98   861.16   953.60   959.56
                              999.07  1028.51  1098.61  1136.94  1146.98
                             1173.41  1193.88  1240.44  1263.63  1287.38
                             1295.87  1311.59  1323.87  1344.54  1349.32
                             1371.01  1396.38  1416.21  1455.41  1501.56
                             1529.66  1546.23  1570.36  1587.19  1589.45
                             1626.19  1658.78  1672.76  1677.67  1732.77
                             1754.61  1782.23  1792.36  1817.08  1818.10
                             1847.41  1866.18  1880.87  1895.78  1912.76
                             1922.31  1932.91  1959.16  1968.12  1993.35
                             2002.26  2032.46  2056.49  2065.81  2126.25
                             2158.58  2169.28  2172.77  2180.35  2186.41
                             2199.72  2208.18  2212.88  2217.13  2243.68
                             2366.32  2566.76  4344.81  4354.08  4367.22
                             4385.82  4393.02  4394.62  4413.35  4429.75
                             4449.81  4452.98  4460.63  4466.14  4470.02
                             4496.43  4505.73  4530.33  4542.00  4569.23
                             4981.22  5008.87  5158.74

 Zero-point correction=                           0.336560 (Hartree/Particle)
 Thermal correction to Energy=                    0.353087
 Thermal correction to Enthalpy=                  0.354031
 Thermal correction to Gibbs Free Energy=         0.292132
 Sum of electronic and zero-point Energies=           -821.458195
 Sum of electronic and thermal Energies=              -821.441669
 Sum of electronic and thermal Enthalpies=            -821.440725
 Sum of electronic and thermal Free Energies=         -821.502624

                     E (Thermal)             CV                S
                      KCal/Mol        Cal/Mol-Kelvin    Cal/Mol-Kelvin
 Total                  221.565             63.546            130.277
 Electronic               0.000              0.000              0.000
 Translational            0.889              2.981             42.367
 Rotational               0.889              2.981             32.838
 Vibrational            219.788             57.584             55.073
 Vibration     1          0.594              1.982              5.366
 Vibration     2          0.596              1.977              4.719
 Vibration     3          0.598              1.968              4.113
 Vibration     4          0.600              1.961              3.814
 Vibration     5          0.602              1.955              3.615
 Vibration     6          0.608              1.935              3.144
 Vibration     7          0.614              1.917              2.849
 Vibration     8          0.616              1.908              2.737
 Vibration     9          0.626              1.876              2.406
 Vibration    10          0.634              1.852              2.216
 Vibration    11          0.645              1.817              1.995
 Vibration    12          0.657              1.779              1.804
 Vibration    13          0.671              1.737              1.627
 Vibration    14          0.677              1.719              1.564
 Vibration    15          0.698              1.658              1.371
 Vibration    16          0.738              1.544              1.100
 Vibration    17          0.751              1.511              1.035
 Vibration    18          0.769              1.462              0.949
 Vibration    19          0.776              1.444              0.919
 Vibration    20          0.795              1.395              0.844
 Vibration    21          0.831              1.307              0.725
 Vibration    22          0.881              1.192              0.596
 Vibration    23          0.957              1.035              0.452

                           ! Non-Optimized Parameters !
 Normal termination of Gaussian 16 at Fri Dec 11 13:39:46 2020.

 ----------------------------------------------------------------------
 # B3LYP/6-311++G(d,p) empiricaldispersion=gd3bj scf=xqc pop=npa geom=c
 heck
 ----------------------------------------------------------------------

 ---------------------------------------
 CID_114760946_JID_7808_Energie_neutraal
 ---------------------------------------
 Structure from the checkpoint file:  "JID_7808.chk"
 Charge =  0 Multiplicity = 1

 SCF Done:  E(RB3LYP) =  -822.041228604     A.U. after   15 cycles
 Normal termination of Gaussian 16 at Fri Dec 11 13:46:43 2020.

 ----------------------------------------------------------------------
 # B3LYP/6-311++G(d,p) empiricaldispersion=gd3bj scf=xqc pop=npa geom=c
 heck
 ----------------------------------------------------------------------

 -------------------------------------
 CID_114760946_JID_7808_Energie_kation
 -------------------------------------
 Structure from the checkpoint file:  "JID_7808.chk"
 Charge =  1 Multiplicity = 2

 SCF Done:  E(UB3LYP) =  -821.743511575     A.U. after   26 cycles
 Normal termination of Gaussian 16 at Fri Dec 11 14:02:55 2020.
 Gaussian 16:  ES64L-G16RevA.03 25-Dec-2016

 ----------------------------------------------------------------------
 # B3LYP/6-311++G(d,p) empiricaldispersion=gd3bj scf=xqc pop=npa geom=c
 heck
 ----------------------------------------------------------------------

 ------------------------------------
 CID_114760946_JID_7808_Energie_anion
 ------------------------------------
 Structure from the checkpoint file:  "JID_7808.chk"
 Charge = -1 Multiplicity = 2

                         Standard orientation:
 ---------------------------------------------------------------------
 Center     Atomic      Atomic             Coordinates (Angstroms)
 Number     Number       Type             X           Y           Z
 ---------------------------------------------------------------------
      1          6           0       -0.400503    3.240516    0.380019
      2          7           0       -0.102214    1.854683    0.030757
      3          6           0       -0.766346    0.845511    0.876286
      4          6           0       -1.660841   -0.183533    0.168397
      5          6           0       -2.573135   -0.964343    1.147220
      6          6           0       -3.918332   -1.121998    0.368274
      7          7           0       -3.716379   -0.587187   -0.990544
      8          6           0       -2.675092    0.428553   -0.813847
      9          8           0       -0.911102   -1.126626   -0.626876
     10          6           0        1.241241    1.616591   -0.323214
     11          8           0        2.136298    2.443719   -0.175113
     12          7           0        1.422628    0.374258   -0.860448
     13          6           0        2.663258   -0.377056   -0.776619
     14          6           0        3.201904   -0.453183    0.666053
     15          6           0        2.342768   -1.570322    1.298821
     16          8           0        1.660091   -2.239656    0.215253
     17          6           0        2.309603   -1.847230   -1.003374
     18          1           0       -0.064807    3.502840    1.394190
     19          1           0       -1.480107    3.402777    0.307157
     20          1           0        0.108485    3.901265   -0.321739
     21          1           0       -0.022892    0.314897    1.488502
     22          1           0       -1.402920    1.391657    1.579330
     23          1           0       -2.119553   -1.927971    1.399450
     24          1           0       -2.719942   -0.416928    2.084861
     25          1           0       -4.701321   -0.533848    0.861828
     26          1           0       -4.268786   -2.156365    0.320701
     27          1           0       -3.303283   -1.327484   -1.557075
     28          1           0       -3.120351    1.328989   -0.369888
     29          1           0       -2.211800    0.706141   -1.762391
     30          1           0       -0.306838   -1.643461   -0.054098
     31          1           0        0.574873   -0.159444   -1.040268
     32          1           0        3.413213    0.001517   -1.478517
     33          1           0        4.259506   -0.736295    0.649205
     34          1           0        3.118309    0.508314    1.174855
     35          1           0        1.576130   -1.185395    1.978584
     36          1           0        2.951773   -2.298317    1.847993
     37          1           0        1.607172   -2.019339   -1.822762
     38          1           0        3.215452   -2.446352   -1.172483
 ---------------------------------------------------------------------

 SCF Done:  E(UB3LYP) =  -822.031022911     A.U. after   31 cycles

 The electronic state is 2-A.
 Alpha  occ. eigenvalues --  -19.04519 -19.03830 -18.98808 -14.23627 -14.22377
 Alpha  occ. eigenvalues --  -14.20796 -10.19199 -10.14198 -10.13299 -10.12717
 Alpha  occ. eigenvalues --  -10.12441 -10.11763 -10.10251 -10.10162 -10.09993
 Alpha  occ. eigenvalues --  -10.08080 -10.07772  -0.96035  -0.94941  -0.94161
 Alpha  occ. eigenvalues --   -0.84240  -0.82842  -0.81655  -0.69122  -0.68287
 Alpha  occ. eigenvalues --   -0.65635  -0.64180  -0.60871  -0.58471  -0.51967
 Alpha  occ. eigenvalues --   -0.51763  -0.51406  -0.49684  -0.47065  -0.44839
 Alpha  occ. eigenvalues --   -0.42834  -0.41896  -0.41467  -0.40033  -0.38501
 Alpha  occ. eigenvalues --   -0.37395  -0.36740  -0.35832  -0.35082  -0.34053
 Alpha  occ. eigenvalues --   -0.32980  -0.32481  -0.32103  -0.31151  -0.30382
 Alpha  occ. eigenvalues --   -0.29460  -0.28560  -0.28179  -0.27573  -0.27022
 Alpha  occ. eigenvalues --   -0.26903  -0.26447  -0.25180  -0.24751  -0.24066
 Alpha  occ. eigenvalues --   -0.20307  -0.18150  -0.17900  -0.15847  -0.14928
 Alpha  occ. eigenvalues --   -0.14214   0.03986
 Alpha virt. eigenvalues --    0.05649   0.07026   0.07236   0.08058   0.08432
 Alpha virt. eigenvalues --    0.08919   0.09373   0.09623   0.10333   0.10929
 Alpha virt. eigenvalues --    0.11097   0.11260   0.11794   0.11983   0.12479

  Beta  occ. eigenvalues --  -19.04516 -19.03821 -18.98802 -14.23626 -14.22373
  Beta  occ. eigenvalues --  -14.20792 -10.19198 -10.14198 -10.13272 -10.12683
  Beta  occ. eigenvalues --  -10.12435 -10.11736 -10.10234 -10.10146 -10.09977
  Beta  occ. eigenvalues --  -10.08063 -10.07743  -0.96025  -0.94931  -0.94145
  Beta  occ. eigenvalues --   -0.84229  -0.82827  -0.81644  -0.69095  -0.68260
  Beta  occ. eigenvalues --   -0.65585  -0.64140  -0.60837  -0.58433  -0.51930
  Beta  occ. eigenvalues --   -0.51694  -0.51361  -0.49646  -0.47038  -0.44820
  Beta  occ. eigenvalues --   -0.42801  -0.41870  -0.41424  -0.40005  -0.38465
  Beta  occ. eigenvalues --   -0.37364  -0.36708  -0.35794  -0.35046  -0.34028
  Beta  occ. eigenvalues --   -0.32956  -0.32453  -0.32079  -0.31123  -0.30357
  Beta  occ. eigenvalues --   -0.29431  -0.28535  -0.28158  -0.27550  -0.26991
  Beta  occ. eigenvalues --   -0.26869  -0.26419  -0.25151  -0.24720  -0.24039
  Beta  occ. eigenvalues --   -0.20288  -0.18127  -0.17885  -0.15828  -0.14914
  Beta  occ. eigenvalues --   -0.14200
  Beta virt. eigenvalues --    0.06203   0.06791   0.07353   0.07907   0.08507
  Beta virt. eigenvalues --    0.08996   0.09239   0.09644   0.09874   0.10609
  Beta virt. eigenvalues --    0.11345   0.11392   0.11673   0.11959   0.12101

 Mulliken charges and spin densities:
               1          2
     1  C    0.148644  -0.419510
     2  N    0.249997   0.127204
     3  C   -0.232288  -1.066934
     4  C   -1.326759   1.752814
     5  C    0.487384  -0.907706
     6  C   -0.022403  -0.406954
     7  N   -0.083181   0.057421
     8  C    0.109275  -0.742737
     9  O   -0.120038  -0.012954
    10  C    0.303149  -0.348118
    11  O   -0.366194   0.014832
    12  N   -0.041696  -0.147907
    13  C   -1.093416   1.420221
    14  C    0.484117  -0.955840
    15  C    0.558464  -0.797249
    16  O   -0.169188   0.019236
    17  C    0.652504  -1.339531
    18  H   -0.027104   0.187045
    19  H   -0.075143   0.203125
    20  H    0.145460   0.033651
    21  H    0.621653  -0.445029
    22  H   -0.344201   0.564852
    23  H   -0.009027   0.145114
    24  H   -0.453036   0.619430
    25  H   -0.101023   0.268811
    26  H   -0.008261   0.161495
    27  H    0.168054   0.079143
    28  H    0.070634   0.146411
    29  H    0.075135   0.109941
    30  H    0.365182  -0.034397
    31  H    0.635206  -0.209149
    32  H   -0.149380   0.400911
    33  H   -0.175594   0.361182
    34  H    0.121986   0.064756
    35  H   -0.468288   0.621414
    36  H   -0.438714   0.622809
    37  H   -0.025715   0.228057
    38  H   -0.466195   0.624140
 Sum of Mulliken charges =  -1.00000   1.00000

 Dipole moment (field-independent basis, Debye):
    X=             -1.6266    Y=              0.9162    Z=             -2.8442  Tot=              3.4022
 Quadrupole moment (field-independent basis, Debye-Ang):
   XX=           -185.5035   YY=           -154.4947   ZZ=           -144.5908
   XY=              8.0623   XZ=              2.8769   YZ=              1.1031

 Summary of Natural Population Analysis:

                                       Natural Population
                Natural  -----------------------------------------------
    Atom  No    Charge         Core      Valence    Rydberg      Total
 -----------------------------------------------------------------------
      C    1   -0.17427      0.99965     2.16623    0.00840     3.17427
      N    2   -0.28334      0.99967     2.77350    0.01018     3.78334
      C    3   -0.09637      0.99952     2.08392    0.01292     3.09637
      C    4    0.11732      0.99950     1.86675    0.01643     2.88268
      C    5   -0.21006      0.99959     2.20159    0.00888     3.21006
      C    6   -0.09088      0.99965     2.08025    0.01098     3.09088
      N    7   -0.33302      0.99977     2.82256    0.01069     3.83302
      C    8   -0.09483      0.99956     2.08390    0.01137     3.09483
      O    9   -0.39481      0.99989     3.38747    0.00745     4.39481
      C   10    0.41623      0.99965     1.56092    0.02320     2.58377
      O   11   -0.33688      0.99988     3.33238    0.00463     4.33688
      N   12   -0.34624      0.99964     2.83664    0.00996     3.84624
      C   13   -0.01984      0.99959     2.00671    0.01354     3.01984
      C   14   -0.21192      0.99962     2.20410    0.00820     3.21192
      C   15   -0.01223      0.99960     2.00089    0.01174     3.01223
      O   16   -0.31355      0.99990     3.30408    0.00958     4.31355
      C   17   -0.01336      0.99957     2.00117    0.01262     3.01336
      H   18    0.09055      0.00000     0.40850    0.00095     0.40945
      H   19    0.09323      0.00000     0.40590    0.00088     0.40677
      H   20    0.10567      0.00000     0.39357    0.00076     0.39433
      H   21    0.09826      0.00000     0.39943    0.00230     0.40174
      H   22    0.10689      0.00000     0.39101    0.00211     0.39311
      H   23    0.10407      0.00000     0.39455    0.00138     0.39593
      H   24    0.10528      0.00000     0.39248    0.00224     0.39472
      H   25    0.09083      0.00000     0.40774    0.00143     0.40917
      H   26    0.09475      0.00000     0.40441    0.00084     0.40525
      H   27    0.17284      0.00000     0.32401    0.00316     0.32716
      H   28    0.09311      0.00000     0.40549    0.00140     0.40689
      H   29    0.10507      0.00000     0.39379    0.00115     0.39493
      H   30    0.24521      0.00000     0.25078    0.00401     0.25479
      H   31    0.20894      0.00000     0.28662    0.00445     0.29106
      H   32    0.10360      0.00000     0.39534    0.00106     0.39640
      H   33    0.10328      0.00000     0.39527    0.00144     0.39672
      H   34    0.11553      0.00000     0.38332    0.00115     0.38447
      H   35    0.08668      0.00000     0.41139    0.00193     0.41332
      H   36    0.08935      0.00000     0.40859    0.00207     0.41065
      H   37    0.09618      0.00000     0.40272    0.00110     0.40382
      H   38    0.08877      0.00000     0.40947    0.00176     0.41123
 =======================================================================
   * Total *    0.00000     16.99423    48.77743    0.22833    66.00000

 Normal termination of Gaussian 16 at Fri Dec 11 14:22:08 2020.
