 Gaussian 16, Revision A.03,

 -----------------------------------------------------------
 # opt freq B3LYP/6-31G(d) empiricaldispersion=gd3bj scf=xqc
 -----------------------------------------------------------

 --------------------------------
 CID_104037464_JID_10701_neutraal
 --------------------------------
 Symbolic Z-matrix:
 Charge =  0 Multiplicity = 1

 SCF Done:  E(RB3LYP) =  -1252.81781651     A.U. after   15 cycles
 SCF Done:  E(RB3LYP) =  -1252.82914105     A.U. after   13 cycles
 SCF Done:  E(RB3LYP) =  -1252.83210619     A.U. after   13 cycles
 SCF Done:  E(RB3LYP) =  -1252.83357377     A.U. after   12 cycles
 SCF Done:  E(RB3LYP) =  -1252.83519462     A.U. after   13 cycles
 SCF Done:  E(RB3LYP) =  -1252.83670791     A.U. after   15 cycles
 SCF Done:  E(RB3LYP) =  -1252.83699348     A.U. after   12 cycles
 SCF Done:  E(RB3LYP) =  -1252.83736924     A.U. after   12 cycles
 SCF Done:  E(RB3LYP) =  -1252.83752334     A.U. after   12 cycles
 SCF Done:  E(RB3LYP) =  -1252.83754684     A.U. after   11 cycles
 SCF Done:  E(RB3LYP) =  -1252.83755173     A.U. after   10 cycles
 SCF Done:  E(RB3LYP) =  -1252.83755508     A.U. after    9 cycles
 SCF Done:  E(RB3LYP) =  -1252.83755525     A.U. after    8 cycles
 SCF Done:  E(RB3LYP) =  -1252.83755541     A.U. after    8 cycles
 SCF Done:  E(RB3LYP) =  -1252.83755550     A.U. after    7 cycles
 Optimization completed.
    -- Stationary point found.
 Normal termination of Gaussian 16 at Sun Dec 13 13:18:29 2020.

 --------------------------------------------------------------------
 #N Geom=AllCheck Guess=TCheck SCRF=Check GenChk RB3LYP/6-31G(d) Freq
 --------------------------------------------------------------------

 Structure from the checkpoint file:  "JID_10701.chk"
 --------------------------------
 CID_104037464_JID_10701_neutraal
 --------------------------------
 Charge =  0 Multiplicity = 1

 SCF Done:  E(RB3LYP) =  -1252.83755550     A.U. after    1 cycles

  Exact polarizability: 251.609  22.082 151.421  12.383   2.163 153.581
 Approx polarizability: 339.510  48.480 246.422  24.100   1.105 265.948

                      1                      2                      3
                      A                      A                      A
 Frequencies --     16.8831                30.4964                36.4815
 Red. masses --      5.3131                 4.6676                 5.1867
 Frc consts  --      0.0009                 0.0026                 0.0041
 IR Inten    --      0.1546                 0.4148                 0.2920

                      4                      5                      6
                      A                      A                      A
 Frequencies --     44.1646                59.4635                76.5730
 Red. masses --      3.4517                 5.8084                 2.5326
 Frc consts  --      0.0040                 0.0121                 0.0087
 IR Inten    --      0.0406                 0.5122                 0.0971

                      7                      8                      9
                      A                      A                      A
 Frequencies --    103.4505               109.5282               150.1268
 Red. masses --      2.4614                 4.7310                 4.0042
 Frc consts  --      0.0155                 0.0334                 0.0532
 IR Inten    --      1.1039                 0.7962                 0.8521

                     10                     11                     12
                      A                      A                      A
 Frequencies --    160.7713               172.5066               195.7045
 Red. masses --      4.0730                 5.3909                 2.9859
 Frc consts  --      0.0620                 0.0945                 0.0674
 IR Inten    --      0.1744                 1.9515                 0.7514

                     13                     14                     15
                      A                      A                      A
 Frequencies --    205.6588               252.5647               261.7344
 Red. masses --      3.3647                 1.5707                 7.0614
 Frc consts  --      0.0838                 0.0590                 0.2850
 IR Inten    --      1.7073                 1.7381                 2.0388

                     16                     17                     18
                      A                      A                      A
 Frequencies --    275.8544               303.0109               351.7044
 Red. masses --      4.1837                 5.5262                 2.5518
 Frc consts  --      0.1876                 0.2989                 0.1860
 IR Inten    --      2.8859                 6.8381                 4.6350

                     19                     20                     21
                      A                      A                      A
 Frequencies --    378.0370               399.2535               430.5175
 Red. masses --      3.7026                 3.8834                 4.0502
 Frc consts  --      0.3118                 0.3647                 0.4423
 IR Inten    --      2.8809                10.8379                 4.2743

                     22                     23                     24
                      A                      A                      A
 Frequencies --    439.4575               456.5421               466.4982
 Red. masses --      2.5689                 3.6097                 2.4834
 Frc consts  --      0.2923                 0.4433                 0.3184
 IR Inten    --      1.9223                 8.2663                58.1923

                     25                     26                     27
                      A                      A                      A
 Frequencies --    510.4576               514.3055               525.8465
 Red. masses --      2.6124                 2.1950                 2.9992
 Frc consts  --      0.4011                 0.3421                 0.4886
 IR Inten    --     61.2869                53.2082                 9.1690

                     28                     29                     30
                      A                      A                      A
 Frequencies --    566.5355               621.8212               631.4592
 Red. masses --      4.5493                 2.7966                 3.1359
 Frc consts  --      0.8603                 0.6371                 0.7367
 IR Inten    --     10.7803                52.3984                 4.4364

                     31                     32                     33
                      A                      A                      A
 Frequencies --    668.4433               687.8156               714.5594
 Red. masses --      2.9110                 6.7450                 6.9169
 Frc consts  --      0.7663                 1.8801                 2.0808
 IR Inten    --      5.0237                 6.4602                12.5688

                     34                     35                     36
                      A                      A                      A
 Frequencies --    740.5314               754.0277               782.8408
 Red. masses --      8.4258                 3.3645                 1.3740
 Frc consts  --      2.7224                 1.1271                 0.4961
 IR Inten    --      7.8126                 3.9566                21.2784

                     37                     38                     39
                      A                      A                      A
 Frequencies --    786.5926               794.3630               820.5364
 Red. masses --      1.4627                 2.9512                 1.2620
 Frc consts  --      0.5332                 1.0972                 0.5006
 IR Inten    --      9.4526                 4.7088                25.2811

                     40                     41                     42
                      A                      A                      A
 Frequencies --    839.0058               848.5496               868.7577
 Red. masses --      1.3618                 1.5730                 2.8124
 Frc consts  --      0.5648                 0.6673                 1.2506
 IR Inten    --     16.0462                10.2033                 7.2259

                     43                     44                     45
                      A                      A                      A
 Frequencies --    880.0333               917.4144               943.5170
 Red. masses --      2.0366                 3.2866                 1.8058
 Frc consts  --      0.9293                 1.6298                 0.9472
 IR Inten    --     11.5066                 5.5902                 3.9828

                     46                     47                     48
                      A                      A                      A
 Frequencies --    954.8891               975.3746               998.4057
 Red. masses --      4.8137                 1.3509                 6.0463
 Frc consts  --      2.5860                 0.7572                 3.5510
 IR Inten    --      5.1748                 0.7251                12.5500

                     49                     50                     51
                      A                      A                      A
 Frequencies --   1022.5890              1036.5506              1078.8690
 Red. masses --      1.7852                 4.8459                 1.3867
 Frc consts  --      1.0998                 3.0677                 0.9509
 IR Inten    --     12.3869                27.7217                31.1924

                     52                     53                     54
                      A                      A                      A
 Frequencies --   1085.5302              1093.4383              1098.4490
 Red. masses --      2.0021                 1.5223                 2.5743
 Frc consts  --      1.3900                 1.0724                 1.8300
 IR Inten    --      4.0226                 6.8898                14.5570

                     55                     56                     57
                      A                      A                      A
 Frequencies --   1103.5879              1128.9027              1130.3270
 Red. masses --      2.2408                 1.2348                 2.1485
 Frc consts  --      1.6079                 0.9271                 1.6173
 IR Inten    --     19.2553                 0.6166                14.7038

                     58                     59                     60
                      A                      A                      A
 Frequencies --   1131.0838              1149.0915              1183.3223
 Red. masses --      1.7309                 1.7144                 2.0336
 Frc consts  --      1.3047                 1.3337                 1.6777
 IR Inten    --      8.9663                 5.9635                 6.0317

                     61                     62                     63
                      A                      A                      A
 Frequencies --   1206.0956              1220.9421              1243.3170
 Red. masses --      1.3719                 3.9737                 2.5904
 Frc consts  --      1.1758                 3.4901                 2.3592
 IR Inten    --      0.7921                13.8028                17.2346

                     64                     65                     66
                      A                      A                      A
 Frequencies --   1275.3386              1305.7008              1309.9917
 Red. masses --      1.5420                 4.4366                 1.6086
 Frc consts  --      1.4777                 4.4564                 1.6265
 IR Inten    --      9.2013                71.6908                26.2835

                     67                     68                     69
                      A                      A                      A
 Frequencies --   1325.0058              1328.3153              1347.6108
 Red. masses --      1.7897                 1.7181                 1.8400
 Frc consts  --      1.8513                 1.7861                 1.9688
 IR Inten    --     22.0419                40.1160                14.8945

                     70                     71                     72
                      A                      A                      A
 Frequencies --   1384.3988              1397.6336              1408.5712
 Red. masses --      1.8801                 1.3483                 1.3597
 Frc consts  --      2.1230                 1.5518                 1.5895
 IR Inten    --      4.7091                11.8019                51.0610

                     73                     74                     75
                      A                      A                      A
 Frequencies --   1411.4313              1428.3238              1444.2112
 Red. masses --      1.5428                 3.9067                 1.2967
 Frc consts  --      1.8108                 4.6958                 1.5935
 IR Inten    --      7.4886               100.3049                28.6659

                     76                     77                     78
                      A                      A                      A
 Frequencies --   1475.1460              1482.7932              1495.3468
 Red. masses --      2.6493                 1.6552                 1.0933
 Frc consts  --      3.3966                 2.1442                 1.4403
 IR Inten    --     70.1675                 3.1422                 2.9086

                     79                     80                     81
                      A                      A                      A
 Frequencies --   1514.9404              1523.4804              1533.5227
 Red. masses --      1.0758                 1.1066                 1.0743
 Frc consts  --      1.4548                 1.5133                 1.4885
 IR Inten    --      2.3338                 2.6974                 6.8521

                     82                     83                     84
                      A                      A                      A
 Frequencies --   1534.2348              1539.7518              1565.7001
 Red. masses --      1.3550                 1.0574                 2.7420
 Frc consts  --      1.8792                 1.4771                 3.9604
 IR Inten    --      6.2945                 6.9548               148.3434

                     85                     86                     87
                      A                      A                      A
 Frequencies --   1573.1562              1610.5833              1644.5923
 Red. masses --      7.1463                 4.5871                 6.1054
 Frc consts  --     10.4202                 7.0106                 9.7292
 IR Inten    --     83.1269                90.8777               526.2888

                     88                     89                     90
                      A                      A                      A
 Frequencies --   1848.8531              3043.4694              3046.0966
 Red. masses --     10.7324                 1.0591                 1.0413
 Frc consts  --     21.6148                 5.7801                 5.6927
 IR Inten    --    579.2407                12.2407                28.8385

                     91                     92                     93
                      A                      A                      A
 Frequencies --   3054.9929              3078.9495              3098.4890
 Red. masses --      1.0617                 1.1016                 1.1022
 Frc consts  --      5.8383                 6.1526                 6.2348
 IR Inten    --     42.9901                14.1711                27.8420

                     94                     95                     96
                      A                      A                      A
 Frequencies --   3114.2011              3124.7165              3167.4539
 Red. masses --      1.1010                 1.1021                 1.0587
 Frc consts  --      6.2911                 6.3402                 6.2581
 IR Inten    --     66.5999                36.0944                 5.7456

                     97                     98                     99
                      A                      A                      A
 Frequencies --   3170.1455              3170.7341              3176.7213
 Red. masses --      1.0897                 1.0729                 1.0712
 Frc consts  --      6.4525                 6.3551                 6.3693
 IR Inten    --     27.6387                 8.6806                13.3536

                    100                    101                    102
                      A                      A                      A
 Frequencies --   3222.8306              3232.6377              3251.8499
 Red. masses --      1.0905                 1.0930                 1.1185
 Frc consts  --      6.6734                 6.7294                 6.9689
 IR Inten    --      5.9102                 2.0131                 3.8959

                    103                    104                    105
                      A                      A                      A
 Frequencies --   3267.9365              3605.8098              3681.5276
 Red. masses --      1.1145                 1.0758                 1.0816
 Frc consts  --      7.0123                 8.2413                 8.6369
 IR Inten    --      4.4190                35.2045               105.4872

 - Thermochemistry -
 -------------------
 Temperature   298.150 Kelvin.  Pressure   1.00000 Atm.
 Atom     1 has atomic number  6 and mass  12.00000

 Molecular mass:   291.11538 amu.
 Principal axes and moments of inertia in atomic units:
                           1         2         3
     Eigenvalues --  2590.34943********************
           X            0.99994  -0.00785   0.00743
           Y            0.00738   0.99809   0.06134
           Z           -0.00789  -0.06128   0.99809
 This molecule is an asymmetric top.
 Rotational symmetry number  1.
 Warning -- assumption of classical behavior for rotation
           may cause significant error
 Rotational temperatures (Kelvin)      0.03344     0.00766     0.00729
 Rotational constants (GHZ):           0.69672     0.15952     0.15191
 Zero-point vibrational energy     788652.2 (Joules/Mol)
                                  188.49241 (Kcal/Mol)
 Warning -- explicit consideration of  28 degrees of freedom as
           vibrations may cause significant error
 Vibrational temperatures:     24.29    43.88    52.49    63.54    85.55
          (Kelvin)            110.17   148.84   157.59   216.00   231.31
                              248.20   281.58   295.90   363.38   376.58
                              396.89   435.97   506.02   543.91   574.44
                              619.42   632.28   656.86   671.19   734.43
                              739.97   756.58   815.12   894.66   908.53
                              961.74   989.61  1028.09  1065.46  1084.88
                             1126.33  1131.73  1142.91  1180.57  1207.14
                             1220.87  1249.95  1266.17  1319.95  1357.51
                             1373.87  1403.35  1436.48  1471.28  1491.37
                             1552.25  1561.84  1573.21  1580.42  1587.82
                             1624.24  1626.29  1627.38  1653.29  1702.54
                             1735.30  1756.66  1788.86  1834.93  1878.61
                             1884.79  1906.39  1911.15  1938.91  1991.84
                             2010.88  2026.62  2030.73  2055.04  2077.90
                             2122.41  2133.41  2151.47  2179.66  2191.95
                             2206.40  2207.42  2215.36  2252.69  2263.42
                             2317.27  2366.20  2660.09  4378.87  4382.65
                             4395.45  4429.92  4458.03  4480.64  4495.77
                             4557.26  4561.13  4561.98  4570.59  4636.93
                             4651.04  4678.69  4701.83  5187.96  5296.90

 Zero-point correction=                           0.300382 (Hartree/Particle)
 Thermal correction to Energy=                    0.319563
 Thermal correction to Enthalpy=                  0.320507
 Thermal correction to Gibbs Free Energy=         0.250178
 Sum of electronic and zero-point Energies=          -1252.537174
 Sum of electronic and thermal Energies=             -1252.517992
 Sum of electronic and thermal Enthalpies=           -1252.517048
 Sum of electronic and thermal Free Energies=        -1252.587377

                     E (Thermal)             CV                S
                      KCal/Mol        Cal/Mol-Kelvin    Cal/Mol-Kelvin
 Total                  200.529             71.880            148.020
 Electronic               0.000              0.000              0.000
 Translational            0.889              2.981             42.903
 Rotational               0.889              2.981             34.209
 Vibrational            198.751             65.918             70.908
 Vibration     1          0.593              1.986              6.971
 Vibration     2          0.594              1.984              5.797
 Vibration     3          0.594              1.982              5.442
 Vibration     4          0.595              1.980              5.063
 Vibration     5          0.597              1.974              4.475
 Vibration     6          0.599              1.965              3.977
 Vibration     7          0.605              1.946              3.388
 Vibration     8          0.606              1.942              3.277
 Vibration     9          0.618              1.903              2.671
 Vibration    10          0.622              1.890              2.541
 Vibration    11          0.626              1.876              2.408
 Vibration    12          0.636              1.846              2.173
 Vibration    13          0.640              1.832              2.082
 Vibration    14          0.664              1.758              1.713
 Vibration    15          0.669              1.743              1.650
 Vibration    16          0.677              1.718              1.559
 Vibration    17          0.694              1.668              1.400
 Vibration    18          0.728              1.572              1.159
 Vibration    19          0.748              1.517              1.047
 Vibration    20          0.765              1.472              0.965
 Vibration    21          0.792              1.404              0.857
 Vibration    22          0.799              1.384              0.828
 Vibration    23          0.815              1.346              0.776
 Vibration    24          0.824              1.324              0.747
 Vibration    25          0.866              1.227              0.632
 Vibration    26          0.869              1.218              0.623
 Vibration    27          0.881              1.193              0.597
 Vibration    28          0.922              1.104              0.511

                           ! Non-Optimized Parameters !
 Normal termination of Gaussian 16 at Sun Dec 13 13:36:56 2020.

 ----------------------------------------------------------------------
 # B3LYP/6-311++G(d,p) empiricaldispersion=gd3bj scf=xqc pop=npa geom=c
 heck
 ----------------------------------------------------------------------

 ----------------------------------------
 CID_104037464_JID_10701_Energie_neutraal
 ----------------------------------------
 Structure from the checkpoint file:  "JID_10701.chk"
 Charge =  0 Multiplicity = 1

 SCF Done:  E(RB3LYP) =  -1253.09950606     A.U. after   16 cycles
 Normal termination of Gaussian 16 at Sun Dec 13 13:44:27 2020.

 ----------------------------------------------------------------------
 # B3LYP/6-311++G(d,p) empiricaldispersion=gd3bj scf=xqc pop=npa geom=c
 heck
 ----------------------------------------------------------------------

 --------------------------------------
 CID_104037464_JID_10701_Energie_kation
 --------------------------------------
 Structure from the checkpoint file:  "JID_10701.chk"
 Charge =  1 Multiplicity = 2

 SCF Done:  E(UB3LYP) =  -1252.81523233     A.U. after   27 cycles
 Normal termination of Gaussian 16 at Sun Dec 13 14:02:05 2020.
 Gaussian 16:  ES64L-G16RevA.03 25-Dec-2016

 ----------------------------------------------------------------------
 # B3LYP/6-311++G(d,p) empiricaldispersion=gd3bj scf=xqc pop=npa geom=c
 heck
 ----------------------------------------------------------------------

 -------------------------------------
 CID_104037464_JID_10701_Energie_anion
 -------------------------------------
 Structure from the checkpoint file:  "JID_10701.chk"
 Charge = -1 Multiplicity = 2

                         Standard orientation:
 ---------------------------------------------------------------------
 Center     Atomic      Atomic             Coordinates (Angstroms)
 Number     Number       Type             X           Y           Z
 ---------------------------------------------------------------------
      1          6           0        5.926505   -0.834068    0.127598
      2          6           0        4.912718   -0.381408    1.179743
      3          6           0        4.321397    1.006271    0.883373
      4          7           0        3.622258    1.109391   -0.387891
      5          6           0        2.465438    0.432598   -0.686849
      6          7           0        2.180705    0.334860   -1.999934
      7          6           0        1.045645   -0.277554   -2.345658
      8          6           0        0.138306   -0.833528   -1.447705
      9          6           0        0.440544   -0.711078   -0.086869
     10          6           0        1.608840   -0.076845    0.313800
     11         16           0       -0.623768   -1.392257    1.185754
     12          6           0       -2.204244   -1.091558    0.477035
     13          7           0       -2.964498   -2.036497   -0.001696
     14          7           0       -4.112941   -1.383084   -0.370646
     15          6           0       -4.109829   -0.024908   -0.107870
     16          8           0       -4.987930    0.795480   -0.304135
     17          7           0       -2.819146    0.152457    0.431133
     18          6           0       -2.293246    1.386428    0.942831
     19          6           0       -1.240598    2.129262    0.152143
     20          6           0       -2.641123    2.667644    0.236342
     21          1           0        5.459202   -0.916104   -0.859907
     22          1           0        6.344951   -1.814308    0.377906
     23          1           0        6.760298   -0.124890    0.048851
     24          1           0        4.098390   -1.113426    1.245753
     25          1           0        5.384704   -0.346807    2.170517
     26          1           0        3.639799    1.307238    1.688190
     27          1           0        5.121779    1.754165    0.864493
     28          1           0        4.177765    1.299388   -1.211693
     29          1           0        0.853065   -0.339241   -3.415631
     30          1           0       -0.755037   -1.343769   -1.787309
     31          1           0        1.836794    0.047280    1.365600
     32          1           0       -4.895822   -1.901754   -0.737428
     33          1           0       -2.218636    1.403514    2.026711
     34          1           0       -0.446113    2.609588    0.714536
     35          1           0       -0.923569    1.683181   -0.783889
     36          1           0       -3.280462    2.590556   -0.634422
     37          1           0       -2.840158    3.530235    0.864504
 ---------------------------------------------------------------------

 SCF Done:  E(UB3LYP) =  -1253.09755836     A.U. after   33 cycles
 SCF Done:  E(UB3LYP) =  -1253.09755836     a.u. after    1 cycles

 The electronic state is 2-A.
 Alpha  occ. eigenvalues --  -88.76075 -19.00034 -14.28757 -14.27681 -14.24734
 Alpha  occ. eigenvalues --  -14.21631 -14.17337 -10.21055 -10.16163 -10.12796
 Alpha  occ. eigenvalues --  -10.12670 -10.10623 -10.09096 -10.08358 -10.08324
 Alpha  occ. eigenvalues --  -10.07767 -10.07486 -10.06860 -10.05467 -10.05450
 Alpha  occ. eigenvalues --   -7.84641  -5.81060  -5.80640  -5.80017  -0.99787
 Alpha  occ. eigenvalues --   -0.93137  -0.85627  -0.85357  -0.79353  -0.76331
 Alpha  occ. eigenvalues --   -0.74466  -0.71002  -0.68540  -0.63675  -0.63405
 Alpha  occ. eigenvalues --   -0.59040  -0.58850  -0.53758  -0.52012  -0.51264
 Alpha  occ. eigenvalues --   -0.50023  -0.49037  -0.47814  -0.45183  -0.42336
 Alpha  occ. eigenvalues --   -0.41219  -0.40254  -0.39888  -0.38091  -0.37245
 Alpha  occ. eigenvalues --   -0.36169  -0.35852  -0.34987  -0.33561  -0.32690
 Alpha  occ. eigenvalues --   -0.32148  -0.31053  -0.30384  -0.29429  -0.28201
 Alpha  occ. eigenvalues --   -0.27389  -0.26935  -0.26585  -0.25855  -0.25307
 Alpha  occ. eigenvalues --   -0.24631  -0.24475  -0.23755  -0.21333  -0.21131
 Alpha  occ. eigenvalues --   -0.19818  -0.18445  -0.17618  -0.14723  -0.14310
 Alpha  occ. eigenvalues --   -0.13048  -0.10309   0.04068
 Alpha virt. eigenvalues --    0.05807   0.07019   0.07330   0.07864   0.07985
 Alpha virt. eigenvalues --    0.08263   0.09131   0.09367   0.09735   0.10396
 Alpha virt. eigenvalues --    0.11110   0.11302   0.11487   0.11719   0.12009

  Beta  occ. eigenvalues --  -88.76080 -19.00039 -14.28740 -14.27663 -14.24589
  Beta  occ. eigenvalues --  -14.21633 -14.17085 -10.21060 -10.16074 -10.12816
  Beta  occ. eigenvalues --  -10.12660 -10.10603 -10.08814 -10.08319 -10.08250
  Beta  occ. eigenvalues --  -10.07753 -10.07480 -10.06836 -10.05515 -10.05349
  Beta  occ. eigenvalues --   -7.84642  -5.81071  -5.80647  -5.80021  -0.99713
  Beta  occ. eigenvalues --   -0.93096  -0.85479  -0.85278  -0.79135  -0.76269
  Beta  occ. eigenvalues --   -0.74318  -0.70661  -0.68484  -0.63475  -0.63250
  Beta  occ. eigenvalues --   -0.59000  -0.58782  -0.53571  -0.51945  -0.51100
  Beta  occ. eigenvalues --   -0.49907  -0.48960  -0.47741  -0.45130  -0.42247
  Beta  occ. eigenvalues --   -0.41065  -0.40160  -0.39814  -0.37945  -0.37143
  Beta  occ. eigenvalues --   -0.36052  -0.35793  -0.34971  -0.33472  -0.32608
  Beta  occ. eigenvalues --   -0.32089  -0.30840  -0.30189  -0.29159  -0.28040
  Beta  occ. eigenvalues --   -0.27320  -0.26782  -0.26400  -0.25707  -0.25200
  Beta  occ. eigenvalues --   -0.24597  -0.24318  -0.23623  -0.21303  -0.20667
  Beta  occ. eigenvalues --   -0.19618  -0.17979  -0.17390  -0.14431  -0.13851
  Beta  occ. eigenvalues --   -0.12602  -0.09897
  Beta virt. eigenvalues --    0.06270   0.07015   0.07406   0.07948   0.08303
  Beta virt. eigenvalues --    0.08551   0.08756   0.09381   0.09429   0.10004
  Beta virt. eigenvalues --    0.10615   0.11190   0.11412   0.11648   0.11775

 Mulliken charges and spin densities:
               1          2
     1  C    0.135787  -0.791071
     2  C   -0.481959   0.452090
     3  C    0.587821  -0.817458
     4  N   -0.137766   0.087244
     5  C   -0.752740   0.000928
     6  N   -0.143835   0.113329
     7  C   -0.572334   0.192135
     8  C   -0.140723  -0.010509
     9  C    1.089015   0.019162
    10  C   -0.323955   0.008679
    11  S    0.131420  -0.139931
    12  C   -0.668040   0.137089
    13  N    0.001201   0.054553
    14  N   -0.156971   0.016240
    15  C    0.260041  -0.016048
    16  O   -0.395934  -0.000487
    17  N    0.132916  -0.013472
    18  C   -0.469271   0.206432
    19  C   -0.045932  -0.209449
    20  C   -0.045037  -0.427378
    21  H    0.044285   0.127329
    22  H   -0.094298   0.221031
    23  H   -0.066500   0.197439
    24  H    0.184367  -0.056106
    25  H   -0.152196   0.286928
    26  H   -0.096944   0.259624
    27  H   -0.251826   0.425315
    28  H    0.162959   0.115016
    29  H    0.131780   0.016051
    30  H    0.201484   0.004382
    31  H    0.170052  -0.008491
    32  H    0.344140   0.003344
    33  H   -0.015436   0.268245
    34  H   -0.004105   0.170392
    35  H    0.260280  -0.029790
    36  H    0.164920   0.000304
    37  H    0.013336   0.136909
 Sum of Mulliken charges =  -1.00000   1.00000

 Dipole moment (field-independent basis, Debye):
    X=             -3.9754    Y=             -1.8782    Z=             -0.0374  Tot=              4.3969
 Quadrupole moment (field-independent basis, Debye-Ang):
   XX=           -220.4777   YY=           -156.1141   ZZ=           -150.2093
   XY=              4.0123   XZ=              1.3624   YZ=              0.1728

 Summary of Natural Population Analysis:

                                       Natural Population
                Natural  -----------------------------------------------
    Atom  No    Charge         Core      Valence    Rydberg      Total
 -----------------------------------------------------------------------
      C    1   -0.29030      0.99967     2.28499    0.00564     3.29030
      C    2   -0.19975      0.99964     2.19279    0.00733     3.19975
      C    3   -0.08684      0.99962     2.07568    0.01154     3.08684
      N    4   -0.31574      0.99967     2.80490    0.01117     3.81574
      C    5    0.20342      0.99953     1.78066    0.01639     2.79658
      N    6   -0.23645      0.99968     2.72594    0.01084     3.73645
      C    7    0.05403      0.99960     1.93208    0.01429     2.94597
      C    8   -0.17350      0.99948     2.16308    0.01094     3.17350
      C    9   -0.01936      0.99939     2.00789    0.01208     3.01936
      C   10   -0.14688      0.99944     2.13788    0.00957     3.14688
      S   11    0.14295      4.99944     2.83787    0.01973     7.85705
      C   12    0.12441      0.99958     1.85090    0.02512     2.87559
      N   13   -0.13768      0.99965     2.62629    0.01174     3.63768
      N   14   -0.21873      0.99968     2.70875    0.01030     3.71873
      C   15    0.38523      0.99969     1.59108    0.02400     2.61477
      O   16   -0.33512      0.99987     3.32991    0.00534     4.33512
      N   17   -0.24684      0.99957     2.73634    0.01093     3.74684
      C   18   -0.01862      0.99958     2.00628    0.01276     3.01862
      C   19   -0.19693      0.99962     2.18780    0.00951     3.19693
      C   20   -0.19535      0.99962     2.18645    0.00928     3.19535
      H   21    0.10128      0.00000     0.39772    0.00100     0.39872
      H   22    0.09803      0.00000     0.40128    0.00069     0.40197
      H   23    0.09496      0.00000     0.40383    0.00121     0.40504
      H   24    0.09929      0.00000     0.39942    0.00129     0.40071
      H   25    0.09403      0.00000     0.40487    0.00111     0.40597
      H   26    0.09663      0.00000     0.40205    0.00132     0.40337
      H   27    0.09566      0.00000     0.40322    0.00112     0.40434
      H   28    0.19036      0.00000     0.30628    0.00337     0.30964
      H   29    0.08397      0.00000     0.41501    0.00102     0.41603
      H   30    0.10696      0.00000     0.39183    0.00121     0.39304
      H   31    0.10373      0.00000     0.39500    0.00127     0.39627
      H   32    0.19818      0.00000     0.30014    0.00168     0.30182
      H   33    0.10501      0.00000     0.39366    0.00134     0.39499
      H   34    0.10801      0.00000     0.39079    0.00119     0.39199
      H   35    0.11507      0.00000     0.38352    0.00141     0.38493
      H   36    0.11430      0.00000     0.38469    0.00101     0.38570
      H   37    0.10259      0.00000     0.39669    0.00072     0.39741
 =======================================================================
   * Total *    0.00000     23.99201    52.73754    0.27044    77.00000

 Normal termination of Gaussian 16 at Sun Dec 13 14:22:52 2020.
