 Gaussian 16, Revision A.03,

 -----------------------------------------------------------
 # opt freq B3LYP/6-31G(d) empiricaldispersion=gd3bj scf=xqc
 -----------------------------------------------------------

 -------------------------------
 CID_103432930_JID_7041_neutraal
 -------------------------------
 Symbolic Z-matrix:
 Charge =  0 Multiplicity = 1

 SCF Done:  E(RB3LYP) =  -1094.23588128     A.U. after   15 cycles
 SCF Done:  E(RB3LYP) =  -1094.23866770     A.U. after   13 cycles
 SCF Done:  E(RB3LYP) =  -1094.23580046     A.U. after   14 cycles
 SCF Done:  E(RB3LYP) =  -1094.23938475     A.U. after   13 cycles
 SCF Done:  E(RB3LYP) =  -1094.23877825     A.U. after   13 cycles
 SCF Done:  E(RB3LYP) =  -1094.24224697     A.U. after   12 cycles
 SCF Done:  E(RB3LYP) =  -1094.24295354     A.U. after   13 cycles
 SCF Done:  E(RB3LYP) =  -1094.24342700     A.U. after   13 cycles
 SCF Done:  E(RB3LYP) =  -1094.24343776     A.U. after   10 cycles
 SCF Done:  E(RB3LYP) =  -1094.24425109     A.U. after   13 cycles
 SCF Done:  E(RB3LYP) =  -1094.24570690     A.U. after   10 cycles
 SCF Done:  E(RB3LYP) =  -1094.24570868     A.U. after    9 cycles
 SCF Done:  E(RB3LYP) =  -1094.24570896     A.U. after    7 cycles
 SCF Done:  E(RB3LYP) =  -1094.24570904     A.U. after    7 cycles
 SCF Done:  E(RB3LYP) =  -1094.24570911     A.U. after    6 cycles
 SCF Done:  E(RB3LYP) =  -1094.24570916     A.U. after    6 cycles
 Optimization completed.
    -- Stationary point found.
 Normal termination of Gaussian 16 at Mon Dec 14 19:02:12 2020.

 --------------------------------------------------------------------
 #N Geom=AllCheck Guess=TCheck SCRF=Check GenChk RB3LYP/6-31G(d) Freq
 --------------------------------------------------------------------

 Structure from the checkpoint file:  "JID_7041.chk"
 -------------------------------
 CID_103432930_JID_7041_neutraal
 -------------------------------
 Charge =  0 Multiplicity = 1

 SCF Done:  E(RB3LYP) =  -1094.24570916     A.U. after    1 cycles

  Exact polarizability: 206.769 -10.385 175.197 -16.280  -7.151 127.557
 Approx polarizability: 277.686 -21.256 289.430 -32.466  -9.070 205.171

                      1                      2                      3
                      A                      A                      A
 Frequencies --     24.5850                45.6570                60.7175
 Red. masses --      4.1241                 4.7191                 3.6897
 Frc consts  --      0.0015                 0.0058                 0.0080
 IR Inten    --      0.3134                 0.3036                 1.1504

                      4                      5                      6
                      A                      A                      A
 Frequencies --     89.0306               105.4511               110.8577
 Red. masses --      3.2792                 3.4463                 3.5237
 Frc consts  --      0.0153                 0.0226                 0.0255
 IR Inten    --      1.5168                 1.2392                 2.4313

                      7                      8                      9
                      A                      A                      A
 Frequencies --    130.7010               131.8217               148.3349
 Red. masses --      2.8742                 1.3879                 1.1756
 Frc consts  --      0.0289                 0.0142                 0.0152
 IR Inten    --      0.6851                 1.0924                 0.7045

                     10                     11                     12
                      A                      A                      A
 Frequencies --    166.7115               179.2947               188.5563
 Red. masses --      1.3357                 2.5346                 2.1646
 Frc consts  --      0.0219                 0.0480                 0.0453
 IR Inten    --      1.1904                 3.4520                 0.3353

                     13                     14                     15
                      A                      A                      A
 Frequencies --    207.5022               245.5278               278.1130
 Red. masses --      3.1837                 2.5388                 1.2878
 Frc consts  --      0.0808                 0.0902                 0.0587
 IR Inten    --      1.6715                 2.7032                 1.9947

                     16                     17                     18
                      A                      A                      A
 Frequencies --    288.0683               296.7690               321.9613
 Red. masses --      2.3510                 1.2171                 2.6748
 Frc consts  --      0.1149                 0.0632                 0.1634
 IR Inten    --      1.3532                 0.3689                 1.1368

                     19                     20                     21
                      A                      A                      A
 Frequencies --    324.2894               334.8725               349.9491
 Red. masses --      3.5009                 4.3015                 2.5830
 Frc consts  --      0.2169                 0.2842                 0.1864
 IR Inten    --      2.0474                 1.8994                 0.3079

                     22                     23                     24
                      A                      A                      A
 Frequencies --    363.5458               373.3529               427.6460
 Red. masses --      3.6415                 3.4381                 3.8729
 Frc consts  --      0.2836                 0.2824                 0.4173
 IR Inten    --     10.6941                 0.8903                 7.0884

                     25                     26                     27
                      A                      A                      A
 Frequencies --    461.9797               495.7052               513.4555
 Red. masses --      2.7467                 5.1855                 4.3022
 Frc consts  --      0.3454                 0.7507                 0.6683
 IR Inten    --      1.4340                 5.6089                 1.2602

                     28                     29                     30
                      A                      A                      A
 Frequencies --    530.6964               572.8828               600.8392
 Red. masses --      3.9199                 3.7892                 4.0246
 Frc consts  --      0.6504                 0.7327                 0.8560
 IR Inten    --     18.1152                 2.3200                 4.7785

                     31                     32                     33
                      A                      A                      A
 Frequencies --    608.9625               647.3928               676.6054
 Red. masses --      4.3277                 4.6013                 3.9185
 Frc consts  --      0.9456                 1.1362                 1.0569
 IR Inten    --      0.2511                 5.1125                 6.8611

                     34                     35                     36
                      A                      A                      A
 Frequencies --    716.6626               766.8367               797.3098
 Red. masses --      4.6622                 4.7584                 2.1970
 Frc consts  --      1.4108                 1.6486                 0.8229
 IR Inten    --     13.7244                 2.2646                16.0845

                     37                     38                     39
                      A                      A                      A
 Frequencies --    838.4196               873.5784               899.1498
 Red. masses --      2.1225                 4.1875                 2.6231
 Frc consts  --      0.8791                 1.8828                 1.2495
 IR Inten    --      7.7235                 6.7379                 1.9691

                     40                     41                     42
                      A                      A                      A
 Frequencies --    917.1587               937.4076               945.6047
 Red. masses --      2.6408                 1.9786                 1.4193
 Frc consts  --      1.3088                 1.0244                 0.7477
 IR Inten    --      1.5163                 4.8882                 0.7514

                     43                     44                     45
                      A                      A                      A
 Frequencies --    952.0992               971.2441              1024.6107
 Red. masses --      1.1718                 1.4195                 1.4215
 Frc consts  --      0.6258                 0.7890                 0.8793
 IR Inten    --      4.7260                 0.3242                24.5156

                     46                     47                     48
                      A                      A                      A
 Frequencies --   1043.4576              1057.9729              1084.5733
 Red. masses --      3.2336                 1.4505                 1.5912
 Frc consts  --      2.0744                 0.9566                 1.1028
 IR Inten    --     59.1694                 0.5018                 1.3211

                     49                     50                     51
                      A                      A                      A
 Frequencies --   1090.8698              1109.9386              1133.4473
 Red. masses --      1.5269                 1.9227                 2.3609
 Frc consts  --      1.0706                 1.3956                 1.7870
 IR Inten    --      9.9671                30.8719                81.9875

                     52                     53                     54
                      A                      A                      A
 Frequencies --   1145.0357              1180.5130              1185.6990
 Red. masses --      2.2933                 1.4315                 1.3879
 Frc consts  --      1.7715                 1.1754                 1.1496
 IR Inten    --      3.1167                 2.9628                14.0697

                     55                     56                     57
                      A                      A                      A
 Frequencies --   1205.1575              1220.4008              1227.0917
 Red. masses --      1.8439                 1.5604                 1.5114
 Frc consts  --      1.5779                 1.3692                 1.3409
 IR Inten    --      5.6047                 2.1726                 8.1657

                     58                     59                     60
                      A                      A                      A
 Frequencies --   1266.1736              1267.4829              1295.6532
 Red. masses --      1.3847                 2.0207                 3.6521
 Frc consts  --      1.3079                 1.9126                 3.6122
 IR Inten    --     16.8290                35.7276                81.3546

                     61                     62                     63
                      A                      A                      A
 Frequencies --   1310.3609              1317.9255              1346.0515
 Red. masses --      2.5656                 1.3247                 7.3379
 Frc consts  --      2.5955                 1.3557                 7.8334
 IR Inten    --    130.6978                10.5928                25.7519

                     64                     65                     66
                      A                      A                      A
 Frequencies --   1354.9699              1433.3791              1434.3090
 Red. masses --      1.3447                 1.2633                 1.2374
 Frc consts  --      1.4546                 1.5293                 1.4999
 IR Inten    --      3.9427                 4.8281                 5.6679

                     67                     68                     69
                      A                      A                      A
 Frequencies --   1440.2805              1447.0305              1454.1676
 Red. masses --      2.4853                 1.2671                 1.2205
 Frc consts  --      3.0376                 1.5633                 1.5206
 IR Inten    --     37.7091                 1.3627                 5.6465

                     70                     71                     72
                      A                      A                      A
 Frequencies --   1484.8447              1497.4041              1509.6857
 Red. masses --      1.1282                 1.3975                 1.0681
 Frc consts  --      1.4656                 1.8462                 1.4342
 IR Inten    --     16.1654                 1.9187                 4.1258

                     73                     74                     75
                      A                      A                      A
 Frequencies --   1513.0644              1515.9338              1516.1193
 Red. masses --      1.0695                 1.0912                 1.1078
 Frc consts  --      1.4426                 1.4774                 1.5003
 IR Inten    --      4.3801                12.0941                 5.7014

                     76                     77                     78
                      A                      A                      A
 Frequencies --   1521.0148              1530.2520              1532.7484
 Red. masses --      1.3789                 1.5069                 1.0602
 Frc consts  --      1.8796                 2.0791                 1.4674
 IR Inten    --     22.1599                 5.3158                 6.0225

                     79                     80                     81
                      A                      A                      A
 Frequencies --   1533.4392              1538.5368              1539.9228
 Red. masses --      1.0842                 1.0520                 1.0539
 Frc consts  --      1.5020                 1.4671                 1.4725
 IR Inten    --     24.0818                 0.9924                 7.2538

                     82                     83                     84
                      A                      A                      A
 Frequencies --   1551.6790              1623.2466              1654.5918
 Red. masses --      1.0489                 5.3544                 6.3724
 Frc consts  --      1.4880                 8.3124                10.2786
 IR Inten    --      4.9126                 3.3136                94.2564

                     85                     86                     87
                      A                      A                      A
 Frequencies --   1758.4334              3039.9146              3042.6881
 Red. masses --     11.2495                 1.0414                 1.0396
 Frc consts  --     20.4944                 5.6703                 5.6705
 IR Inten    --    195.1551                36.7808                12.1817

                     88                     89                     90
                      A                      A                      A
 Frequencies --   3044.0661              3044.6789              3050.2993
 Red. masses --      1.0438                 1.0469                 1.0531
 Frc consts  --      5.6987                 5.7178                 5.7731
 IR Inten    --     55.1697                38.6513                20.2545

                     91                     92                     93
                      A                      A                      A
 Frequencies --   3055.8128              3091.9086              3094.2716
 Red. masses --      1.0664                 1.0993                 1.0603
 Frc consts  --      5.8669                 6.1916                 5.9811
 IR Inten    --     36.9743                26.8174                 6.8136

                     94                     95                     96
                      A                      A                      A
 Frequencies --   3095.0921              3115.6182              3119.6763
 Red. masses --      1.0962                 1.0983                 1.0938
 Frc consts  --      6.1873                 6.2816                 6.2720
 IR Inten    --      8.8569                14.8001                24.5444

                     97                     98                     99
                      A                      A                      A
 Frequencies --   3132.0092              3133.1181              3141.1832
 Red. masses --      1.0923                 1.1003                 1.1035
 Frc consts  --      6.3131                 6.3640                 6.4152
 IR Inten    --     31.9594                15.6712                12.6005

                    100                    101                    102
                      A                      A                      A
 Frequencies --   3154.3692              3162.1845              3168.5197
 Red. masses --      1.1040                 1.1010                 1.1059
 Frc consts  --      6.4720                 6.4865                 6.5418
 IR Inten    --      5.3976                 6.8230                18.8910

                    103                    104                    105
                      A                      A                      A
 Frequencies --   3170.0617              3190.4273              3220.7462
 Red. masses --      1.0976                 1.0887                 1.0919
 Frc consts  --      6.4989                 6.5294                 6.6736
 IR Inten    --      1.4106                14.8488                14.0560

 - Thermochemistry -
 -------------------
 Temperature   298.150 Kelvin.  Pressure   1.00000 Atm.
 Atom     1 has atomic number  6 and mass  12.00000

 Molecular mass:   252.11840 amu.
 Principal axes and moments of inertia in atomic units:
                           1         2         3
     Eigenvalues --  2660.008846294.845847227.90619
           X            0.99991  -0.01293  -0.00409
           Y            0.01281   0.99957  -0.02624
           Z            0.00443   0.02618   0.99965
 This molecule is an asymmetric top.
 Rotational symmetry number  1.
 Warning -- assumption of classical behavior for rotation
           may cause significant error
 Rotational temperatures (Kelvin)      0.03256     0.01376     0.01198
 Rotational constants (GHZ):           0.67847     0.28670     0.24969
 Zero-point vibrational energy     825910.3 (Joules/Mol)
                                  197.39730 (Kcal/Mol)
 Warning -- explicit consideration of  31 degrees of freedom as
           vibrations may cause significant error
 Vibrational temperatures:     35.37    65.69    87.36   128.10   151.72
          (Kelvin)            159.50   188.05   189.66   213.42   239.86
                              257.97   271.29   298.55   353.26   400.14
                              414.47   426.98   463.23   466.58   481.81
                              503.50   523.06   537.17   615.29   664.69
                              713.21   738.75   763.55   824.25   864.47
                              876.16   931.45   973.48  1031.12  1103.31
                             1147.15  1206.30  1256.88  1293.68  1319.59
                             1348.72  1360.51  1369.86  1397.40  1474.19
                             1501.30  1522.19  1560.46  1569.52  1596.95
                             1630.78  1647.45  1698.49  1705.96  1733.95
                             1755.88  1765.51  1821.74  1823.63  1864.16
                             1885.32  1896.20  1936.67  1949.50  2062.31
                             2063.65  2072.24  2081.95  2092.22  2136.36
                             2154.43  2172.10  2176.96  2181.09  2181.36
                             2188.40  2201.69  2205.28  2206.28  2213.61
                             2215.61  2232.52  2335.49  2380.59  2529.99
                             4373.76  4377.75  4379.73  4380.61  4388.70
                             4396.63  4448.57  4451.97  4453.15  4482.68
                             4488.52  4506.26  4507.86  4519.46  4538.43
                             4549.68  4558.79  4561.01  4590.31  4633.94

 Zero-point correction=                           0.314573 (Hartree/Particle)
 Thermal correction to Energy=                    0.333571
 Thermal correction to Enthalpy=                  0.334515
 Thermal correction to Gibbs Free Energy=         0.267437
 Sum of electronic and zero-point Energies=          -1093.931137
 Sum of electronic and thermal Energies=             -1093.912139
 Sum of electronic and thermal Enthalpies=           -1093.911194
 Sum of electronic and thermal Free Energies=        -1093.978272

                     E (Thermal)             CV                S
                      KCal/Mol        Cal/Mol-Kelvin    Cal/Mol-Kelvin
 Total                  209.319             70.507            141.177
 Electronic               0.000              0.000              0.000
 Translational            0.889              2.981             42.474
 Rotational               0.889              2.981             33.159
 Vibrational            207.541             64.546             65.544
 Vibration     1          0.593              1.985              6.224
 Vibration     2          0.595              1.979              4.997
 Vibration     3          0.597              1.973              4.434
 Vibration     4          0.602              1.957              3.681
 Vibration     5          0.605              1.945              3.351
 Vibration     6          0.607              1.940              3.254
 Vibration     7          0.612              1.923              2.936
 Vibration     8          0.612              1.922              2.919
 Vibration     9          0.618              1.904              2.693
 Vibration    10          0.624              1.883              2.472
 Vibration    11          0.629              1.868              2.336
 Vibration    12          0.633              1.856              2.242
 Vibration    13          0.641              1.829              2.066
 Vibration    14          0.660              1.770              1.762
 Vibration    15          0.679              1.714              1.545
 Vibration    16          0.685              1.696              1.485
 Vibration    17          0.690              1.680              1.435
 Vibration    18          0.707              1.631              1.300
 Vibration    19          0.709              1.627              1.288
 Vibration    20          0.716              1.606              1.236
 Vibration    21          0.727              1.575              1.166
 Vibration    22          0.737              1.547              1.107
 Vibration    23          0.745              1.527              1.066
 Vibration    24          0.789              1.410              0.866
 Vibration    25          0.820              1.334              0.760
 Vibration    26          0.851              1.260              0.669
 Vibration    27          0.869              1.220              0.625
 Vibration    28          0.886              1.182              0.586
 Vibration    29          0.929              1.090              0.499
 Vibration    30          0.959              1.030              0.448
 Vibration    31          0.968              1.013              0.434

 Optimization completed.
    -- Stationary point found.
 Normal termination of Gaussian 16 at Mon Dec 14 19:17:20 2020.

 ----------------------------------------------------------------------
 # B3LYP/6-311++G(d,p) empiricaldispersion=gd3bj scf=xqc pop=npa geom=c
 heck
 ----------------------------------------------------------------------

 ---------------------------------------
 CID_103432930_JID_7041_Energie_neutraal
 ---------------------------------------
 Structure from the checkpoint file:  "JID_7041.chk"
 Charge =  0 Multiplicity = 1

 SCF Done:  E(RB3LYP) =  -1094.46132273     A.U. after   16 cycles
 Normal termination of Gaussian 16 at Mon Dec 14 19:25:42 2020.

 ----------------------------------------------------------------------
 # B3LYP/6-311++G(d,p) empiricaldispersion=gd3bj scf=xqc pop=npa geom=c
 heck
 ----------------------------------------------------------------------

 -------------------------------------
 CID_103432930_JID_7041_Energie_kation
 -------------------------------------
 Structure from the checkpoint file:  "JID_7041.chk"
 Charge =  1 Multiplicity = 2

 SCF Done:  E(UB3LYP) =  -1094.17264532     A.U. after   31 cycles
 Normal termination of Gaussian 16 at Mon Dec 14 19:48:36 2020.
 Gaussian 16:  ES64L-G16RevA.03 25-Dec-2016

 ----------------------------------------------------------------------
 # B3LYP/6-311++G(d,p) empiricaldispersion=gd3bj scf=xqc pop=npa geom=c
 heck
 ----------------------------------------------------------------------

 ------------------------------------
 CID_103432930_JID_7041_Energie_anion
 ------------------------------------
 Structure from the checkpoint file:  "JID_7041.chk"
 Charge = -1 Multiplicity = 2

                         Standard orientation:
 ---------------------------------------------------------------------
 Center     Atomic      Atomic             Coordinates (Angstroms)
 Number     Number       Type             X           Y           Z
 ---------------------------------------------------------------------
      1          6           0        4.347757   -1.411370   -0.678518
      2          6           0        2.977685   -1.028297   -0.180366
      3          6           0        2.499909    0.285977   -0.345769
      4          6           0        1.228561    0.621163    0.147432
      5          6           0        0.400755   -0.344671    0.762359
      6          6           0        0.891348   -1.651381    0.882597
      7          6           0        2.164618   -1.981018    0.439870
      8          6           0       -0.959240    0.001008    1.267770
      9          8           0       -1.249432    1.115524    1.681375
     10          6           0       -2.045067   -1.068258    1.231461
     11         16           0       -2.505743   -1.601628   -0.462899
     12          6           0       -3.153808   -0.047742   -1.251056
     13          6           0       -4.098320    0.731078   -0.335176
     14          6           0       -2.043756    0.832393   -1.831044
     15          8           0        0.759746    1.894559   -0.072297
     16          6           0        1.069262    2.837729    0.958966
     17          6           0        3.334121    1.322293   -1.055982
     18          1           0        4.421544   -1.309032   -1.768727
     19          1           0        5.126857   -0.769830   -0.248980
     20          1           0        4.583554   -2.448165   -0.423093
     21          1           0        0.278939   -2.419756    1.340779
     22          1           0        2.531504   -2.996119    0.563210
     23          1           0       -1.724563   -1.991467    1.722622
     24          1           0       -2.911869   -0.680016    1.768613
     25          1           0       -3.735972   -0.471434   -2.078819
     26          1           0       -3.554439    1.180695    0.500970
     27          1           0       -4.566059    1.545390   -0.901820
     28          1           0       -4.891654    0.089887    0.061934
     29          1           0       -1.378775    0.252890   -2.477823
     30          1           0       -2.491194    1.636478   -2.430284
     31          1           0       -1.439046    1.299927   -1.050374
     32          1           0        0.658841    3.792700    0.624724
     33          1           0        0.595266    2.542563    1.897316
     34          1           0        2.155347    2.930822    1.088221
     35          1           0        2.740018    2.209642   -1.276039
     36          1           0        4.200330    1.625975   -0.453261
     37          1           0        3.727790    0.930799   -2.000682
 ---------------------------------------------------------------------

 SCF Done:  E(UB3LYP) =  -1094.46857691     A.U. after   30 cycles

 The electronic state is 2-A.
 Alpha  occ. eigenvalues --  -88.70259 -18.99827 -18.91717 -10.08511 -10.08483
 Alpha  occ. eigenvalues --  -10.07660 -10.06209 -10.05664 -10.05227 -10.04842
 Alpha  occ. eigenvalues --  -10.04743 -10.04007 -10.03506 -10.03167 -10.02894
 Alpha  occ. eigenvalues --  -10.02515 -10.01908  -7.78892  -5.75288  -5.74926
 Alpha  occ. eigenvalues --   -5.74260  -0.91585  -0.86035  -0.71955  -0.69467
 Alpha  occ. eigenvalues --   -0.65214  -0.63073  -0.62430  -0.58528  -0.56997
 Alpha  occ. eigenvalues --   -0.55914  -0.54091  -0.52476  -0.46282  -0.44923
 Alpha  occ. eigenvalues --   -0.43859  -0.39754  -0.37428  -0.35475  -0.34781
 Alpha  occ. eigenvalues --   -0.33543  -0.33281  -0.32243  -0.31300  -0.30665
 Alpha  occ. eigenvalues --   -0.29744  -0.29497  -0.28701  -0.28445  -0.27829
 Alpha  occ. eigenvalues --   -0.27266  -0.27061  -0.26329  -0.25216  -0.25004
 Alpha  occ. eigenvalues --   -0.23339  -0.23283  -0.23257  -0.21774  -0.21048
 Alpha  occ. eigenvalues --   -0.19819  -0.18840  -0.17472  -0.13977  -0.11059
 Alpha  occ. eigenvalues --   -0.10349  -0.09982  -0.07536   0.04807
 Alpha virt. eigenvalues --    0.07679   0.08233   0.08929   0.09587   0.10295
 Alpha virt. eigenvalues --    0.10376   0.10711   0.11296   0.11789   0.12224
 Alpha virt. eigenvalues --    0.12707   0.12781   0.13334   0.13553   0.14191

  Beta  occ. eigenvalues --  -88.70230 -18.99822 -18.91096 -10.08510 -10.08456
  Beta  occ. eigenvalues --  -10.07475 -10.05798 -10.05696 -10.05253 -10.04837
  Beta  occ. eigenvalues --  -10.04741 -10.04081 -10.03506 -10.02972 -10.02826
  Beta  occ. eigenvalues --  -10.02360 -10.01831  -7.78861  -5.75238  -5.74886
  Beta  occ. eigenvalues --   -5.74238  -0.91502  -0.84905  -0.71669  -0.69413
  Beta  occ. eigenvalues --   -0.64894  -0.62892  -0.62276  -0.58411  -0.56994
  Beta  occ. eigenvalues --   -0.55625  -0.53968  -0.52313  -0.45653  -0.44825
  Beta  occ. eigenvalues --   -0.43719  -0.39372  -0.37275  -0.35224  -0.34682
  Beta  occ. eigenvalues --   -0.33435  -0.33080  -0.32150  -0.31125  -0.30579
  Beta  occ. eigenvalues --   -0.29694  -0.29357  -0.28576  -0.28346  -0.27590
  Beta  occ. eigenvalues --   -0.27215  -0.26825  -0.25842  -0.24962  -0.24843
  Beta  occ. eigenvalues --   -0.23267  -0.22982  -0.22544  -0.21568  -0.20727
  Beta  occ. eigenvalues --   -0.19472  -0.17933  -0.16372  -0.13899  -0.10414
  Beta  occ. eigenvalues --   -0.09627  -0.09046  -0.07056
  Beta virt. eigenvalues --    0.07575   0.08153   0.08853   0.09438   0.10215
  Beta virt. eigenvalues --    0.10327   0.10489   0.11251   0.11404   0.11815
  Beta virt. eigenvalues --    0.12265   0.12721   0.12924   0.13391   0.13683

 Mulliken charges and spin densities:
               1          2
     1  C   -0.409084  -0.075018
     2  C    0.685792   0.160340
     3  C    0.599964   0.000674
     4  C   -1.208662   0.164775
     5  C    1.844660   0.066304
     6  C   -0.881968   0.280360
     7  C   -1.117860  -0.162031
     8  C   -0.739845   0.165948
     9  O   -0.347191   0.209357
    10  C   -0.136399   0.017855
    11  S   -0.058402  -0.018867
    12  C    0.159195  -0.054749
    13  C   -0.656828  -0.010512
    14  C   -0.607235   0.012418
    15  O   -0.017570  -0.004940
    16  C   -0.169891  -0.080663
    17  C   -0.544010   0.017406
    18  H    0.132453   0.004947
    19  H    0.092793   0.045897
    20  H    0.123917   0.005652
    21  H    0.042461   0.023494
    22  H    0.066409   0.023896
    23  H    0.133214   0.057539
    24  H    0.188957   0.030817
    25  H    0.179197   0.030883
    26  H    0.216605  -0.006990
    27  H    0.103068  -0.000529
    28  H    0.111327   0.010502
    29  H    0.099704  -0.000895
    30  H    0.098291   0.006157
    31  H    0.260903   0.001759
    32  H    0.098286   0.005346
    33  H    0.166035   0.032108
    34  H    0.074481   0.026275
    35  H    0.171262   0.007363
    36  H    0.135876   0.001287
    37  H    0.110097   0.005834
 Sum of Mulliken charges =  -1.00000   1.00000

 Dipole moment (field-independent basis, Debye):
    X=              1.1372    Y=              0.8592    Z=             -2.0633  Tot=              2.5077
 Quadrupole moment (field-independent basis, Debye-Ang):
   XX=           -145.7032   YY=           -131.4094   ZZ=           -127.7894
   XY=             -0.7351   XZ=              2.3820   YZ=             -4.3791

 Summary of Natural Population Analysis:

                                       Natural Population
                Natural  -----------------------------------------------
    Atom  No    Charge         Core      Valence    Rydberg      Total
 -----------------------------------------------------------------------
      C    1   -0.29322      0.99965     2.28929    0.00428     3.29322
      C    2    0.04020      0.99949     1.95221    0.00810     2.95980
      C    3   -0.05822      0.99944     2.05055    0.00823     3.05822
      C    4    0.20360      0.99929     1.78378    0.01333     2.79640
      C    5   -0.06632      0.99943     2.05530    0.01159     3.06632
      C    6   -0.05383      0.99955     2.04623    0.00805     3.05383
      C    7   -0.13003      0.99953     2.12152    0.00898     3.13003
      C    8    0.30999      0.99961     1.66793    0.02247     2.69001
      O    9   -0.24640      0.99987     3.24016    0.00637     4.24640
      C   10   -0.28839      0.99955     2.27872    0.01012     3.28839
      S   11    0.08662      4.99962     2.89549    0.01828     7.91338
      C   12   -0.16686      0.99959     2.15359    0.01368     3.16686
      C   13   -0.29623      0.99963     2.29141    0.00518     3.29623
      C   14   -0.29509      0.99963     2.28929    0.00617     3.29509
      O   15   -0.29620      0.99986     3.28571    0.01063     4.29620
      C   16   -0.09486      0.99959     2.08728    0.00799     3.09486
      C   17   -0.29436      0.99964     2.28999    0.00473     3.29436
      H   18    0.09838      0.00000     0.40052    0.00110     0.40162
      H   19    0.09817      0.00000     0.40058    0.00125     0.40183
      H   20    0.09613      0.00000     0.40300    0.00086     0.40387
      H   21    0.08964      0.00000     0.40854    0.00182     0.41036
      H   22    0.08869      0.00000     0.40983    0.00148     0.41131
      H   23    0.10750      0.00000     0.39061    0.00189     0.39250
      H   24    0.10411      0.00000     0.39356    0.00233     0.39589
      H   25    0.09171      0.00000     0.40601    0.00227     0.40829
      H   26    0.11642      0.00000     0.38233    0.00124     0.38358
      H   27    0.09240      0.00000     0.40658    0.00102     0.40760
      H   28    0.09697      0.00000     0.40185    0.00117     0.40303
      H   29    0.10103      0.00000     0.39820    0.00077     0.39897
      H   30    0.08754      0.00000     0.41148    0.00098     0.41246
      H   31    0.12062      0.00000     0.37754    0.00183     0.37938
      H   32    0.08112      0.00000     0.41763    0.00125     0.41888
      H   33    0.10025      0.00000     0.39781    0.00193     0.39975
      H   34    0.07101      0.00000     0.42729    0.00170     0.42899
      H   35    0.10777      0.00000     0.39083    0.00140     0.39223
      H   36    0.09438      0.00000     0.40423    0.00139     0.40562
      H   37    0.09574      0.00000     0.40321    0.00104     0.40426
 =======================================================================
   * Total *   -0.00000     20.99298    46.81011    0.19691    68.00000

 Normal termination of Gaussian 16 at Mon Dec 14 20:11:24 2020.
