 Gaussian 16, Revision A.03,

 -----------------------------------------------------------
 # opt freq B3LYP/6-31G(d) empiricaldispersion=gd3bj scf=xqc
 -----------------------------------------------------------

 ------------------------------
 CID_139646198_JID_761_neutraal
 ------------------------------
 Symbolic Z-matrix:
 Charge =  0 Multiplicity = 1

 SCF Done:  E(RB3LYP) =  -1181.49648292     A.U. after   14 cycles
 SCF Done:  E(RB3LYP) =  -1181.50216340     A.U. after   12 cycles
 SCF Done:  E(RB3LYP) =  -1181.50278608     A.U. after   13 cycles
 SCF Done:  E(RB3LYP) =  -1181.50282934     A.U. after   12 cycles
 SCF Done:  E(RB3LYP) =  -1181.50291533     A.U. after   12 cycles
 SCF Done:  E(RB3LYP) =  -1181.50305840     A.U. after   11 cycles
 SCF Done:  E(RB3LYP) =  -1181.50306606     A.U. after   10 cycles
 SCF Done:  E(RB3LYP) =  -1181.50307811     A.U. after    9 cycles
 SCF Done:  E(RB3LYP) =  -1181.50307859     A.U. after    8 cycles
 SCF Done:  E(RB3LYP) =  -1181.50307906     A.U. after    8 cycles
 SCF Done:  E(RB3LYP) =  -1181.50307916     A.U. after    8 cycles
 SCF Done:  E(RB3LYP) =  -1181.50307919     A.U. after    7 cycles
 Optimization completed.
    -- Stationary point found.
 Normal termination of Gaussian 16 at Tue Dec  8 12:30:07 2020.

 --------------------------------------------------------------------
 #N Geom=AllCheck Guess=TCheck SCRF=Check GenChk RB3LYP/6-31G(d) Freq
 --------------------------------------------------------------------

 Structure from the checkpoint file:  "JID_761.chk"
 ------------------------------
 CID_139646198_JID_761_neutraal
 ------------------------------
 Charge =  0 Multiplicity = 1

 SCF Done:  E(RB3LYP) =  -1181.50307919     A.U. after    1 cycles

  Exact polarizability: 115.222   0.338 112.269  -0.403  -3.459  73.473
 Approx polarizability: 145.018   3.142 195.077  -3.289 -10.562 108.490

                      1                      2                      3
                      A                      A                      A
 Frequencies --     40.1821                62.8690               120.1377
 Red. masses --      3.3990                 4.9394                 5.2508
 Frc consts  --      0.0032                 0.0115                 0.0447
 IR Inten    --      0.9034                 1.9328                 2.7237

                      4                      5                      6
                      A                      A                      A
 Frequencies --    126.6969               169.3209               211.8761
 Red. masses --      9.2097                 1.0353                 1.1730
 Frc consts  --      0.0871                 0.0175                 0.0310
 IR Inten    --      0.6804                 0.4101                19.5776

                      7                      8                      9
                      A                      A                      A
 Frequencies --    221.5581               236.8173               268.4376
 Red. masses --      6.9896                 3.2062                 4.0637
 Frc consts  --      0.2022                 0.1059                 0.1725
 IR Inten    --      1.5229                 2.2441                 0.3665

                     10                     11                     12
                      A                      A                      A
 Frequencies --    287.7487               328.1417               338.3899
 Red. masses --      1.1019                 2.0502                 2.1552
 Frc consts  --      0.0538                 0.1301                 0.1454
 IR Inten    --      1.2496                 4.1993                19.0816

                     13                     14                     15
                      A                      A                      A
 Frequencies --    347.5582               358.3622               402.7949
 Red. masses --      3.1657                 2.4674                 3.4498
 Frc consts  --      0.2253                 0.1867                 0.3298
 IR Inten    --     16.5142                10.8740                 0.3942

                     16                     17                     18
                      A                      A                      A
 Frequencies --    427.6859               494.4145               580.0151
 Red. masses --      4.5302                 3.7148                 5.0124
 Frc consts  --      0.4882                 0.5350                 0.9935
 IR Inten    --      6.1392                 3.2394                14.0057

                     19                     20                     21
                      A                      A                      A
 Frequencies --    635.7888               646.8116               735.9608
 Red. masses --      3.8677                 1.4046                 3.4320
 Frc consts  --      0.9211                 0.3462                 1.0952
 IR Inten    --      4.1361                11.5856                19.6249

                     22                     23                     24
                      A                      A                      A
 Frequencies --    824.4771               849.6096               872.1777
 Red. masses --      2.5152                 3.3370                 1.8154
 Frc consts  --      1.0073                 1.4192                 0.8136
 IR Inten    --     10.4243                53.9392                 7.2035

                     25                     26                     27
                      A                      A                      A
 Frequencies --    924.1167               953.3067               979.6547
 Red. masses --      1.9062                 1.2987                 1.3370
 Frc consts  --      0.9591                 0.6954                 0.7560
 IR Inten    --      8.9317                 6.3335                30.4921

                     28                     29                     30
                      A                      A                      A
 Frequencies --    984.2092              1038.5811              1087.7212
 Red. masses --      1.9131                 1.4239                 1.4623
 Frc consts  --      1.0918                 0.9049                 1.0193
 IR Inten    --      7.6843                17.7476                 0.4072

                     31                     32                     33
                      A                      A                      A
 Frequencies --   1120.0719              1134.1154              1158.0673
 Red. masses --      2.5870                 2.3815                 2.1800
 Frc consts  --      1.9122                 1.8047                 1.7226
 IR Inten    --     29.1982               157.5656               212.4404

                     34                     35                     36
                      A                      A                      A
 Frequencies --   1192.9797              1359.7310              1433.3117
 Red. masses --      3.3123                 4.2557                 1.2292
 Frc consts  --      2.7775                 4.6359                 1.4879
 IR Inten    --    251.9803               132.8623                20.1889

                     37                     38                     39
                      A                      A                      A
 Frequencies --   1441.4846              1464.8494              1503.5506
 Red. masses --      1.2370                 1.2459                 1.0439
 Frc consts  --      1.5145                 1.5751                 1.3904
 IR Inten    --      8.6778                11.6921                 7.1913

                     40                     41                     42
                      A                      A                      A
 Frequencies --   1508.7470              1519.5848              1529.9589
 Red. masses --      1.0468                 1.0542                 1.0459
 Frc consts  --      1.4039                 1.4342                 1.4425
 IR Inten    --      6.3817                16.2814                11.7117

                     43                     44                     45
                      A                      A                      A
 Frequencies --   1718.8607              1790.5328              2682.9574
 Red. masses --      5.0856                11.7971                 1.0376
 Frc consts  --      8.8527                22.2838                 4.4005
 IR Inten    --     13.5251               185.8636                 7.5682

                     46                     47                     48
                      A                      A                      A
 Frequencies --   2695.1248              3060.2270              3078.1673
 Red. masses --      1.0382                 1.0359                 1.0354
 Frc consts  --      4.4430                 5.7155                 5.7801
 IR Inten    --     11.9723                14.1586                 9.1298

                     49                     50                     51
                      A                      A                      A
 Frequencies --   3116.5467              3145.3295              3154.8768
 Red. masses --      1.1004                 1.1036                 1.1029
 Frc consts  --      6.2971                 6.4328                 6.4680
 IR Inten    --     11.4871                14.7507                10.0111

                     52                     53                     54
                      A                      A                      A
 Frequencies --   3174.4288              3181.1233              3274.7728
 Red. masses --      1.1030                 1.0621                 1.1147
 Frc consts  --      6.5486                 6.3326                 7.0433
 IR Inten    --      3.8995                 8.9723                 4.1056

 - Thermochemistry -
 -------------------
 Temperature   298.150 Kelvin.  Pressure   1.00000 Atm.
 Atom     1 has atomic number  6 and mass  12.00000

 Molecular mass:   178.01222 amu.
 Principal axes and moments of inertia in atomic units:
                           1         2         3
     Eigenvalues --  1131.416632895.242233386.56102
           X            0.99977  -0.01192   0.01762
           Y            0.01254   0.99930  -0.03529
           Z           -0.01718   0.03550   0.99922
 This molecule is an asymmetric top.
 Rotational symmetry number  1.
 Warning -- assumption of classical behavior for rotation
           may cause significant error
 Rotational temperatures (Kelvin)      0.07655     0.02992     0.02558
 Rotational constants (GHZ):           1.59512     0.62335     0.53291
 Zero-point vibrational energy     394736.7 (Joules/Mol)
                                   94.34433 (Kcal/Mol)
 Warning -- explicit consideration of  18 degrees of freedom as
           vibrations may cause significant error
 Vibrational temperatures:     57.81    90.45   172.85   182.29   243.61
          (Kelvin)            304.84   318.77   340.73   386.22   414.01
                              472.12   486.87   500.06   515.60   579.53
                              615.34   711.35   834.51   914.76   930.62
                             1058.88  1186.24  1222.40  1254.87  1329.60
                             1371.60  1409.50  1416.06  1494.29  1564.99
                             1611.53  1631.74  1666.20  1716.43  1956.35
                             2062.22  2073.97  2107.59  2163.27  2170.75
                             2186.34  2201.27  2473.06  2576.18  3860.18
                             3877.68  4402.98  4428.80  4484.02  4525.43
                             4539.16  4567.29  4576.93  4711.67

 Zero-point correction=                           0.150347 (Hartree/Particle)
 Thermal correction to Energy=                    0.162708
 Thermal correction to Enthalpy=                  0.163652
 Thermal correction to Gibbs Free Energy=         0.111628
 Sum of electronic and zero-point Energies=          -1181.352732
 Sum of electronic and thermal Energies=             -1181.340371
 Sum of electronic and thermal Enthalpies=           -1181.339427
 Sum of electronic and thermal Free Energies=        -1181.391452

                     E (Thermal)             CV                S
                      KCal/Mol        Cal/Mol-Kelvin    Cal/Mol-Kelvin
 Total                  102.101             44.460            109.495
 Electronic               0.000              0.000              0.000
 Translational            0.889              2.981             41.437
 Rotational               0.889              2.981             30.785
 Vibrational            100.324             38.498             37.274
 Vibration     1          0.594              1.981              5.250
 Vibration     2          0.597              1.972              4.365
 Vibration     3          0.609              1.932              3.098
 Vibration     4          0.611              1.926              2.996
 Vibration     5          0.625              1.880              2.443
 Vibration     6          0.643              1.823              2.027
 Vibration     7          0.648              1.808              1.946
 Vibration     8          0.656              1.784              1.827
 Vibration     9          0.673              1.731              1.606
 Vibration    10          0.685              1.696              1.487
 Vibration    11          0.711              1.619              1.269
 Vibration    12          0.719              1.599              1.220
 Vibration    13          0.725              1.580              1.177
 Vibration    14          0.733              1.558              1.129
 Vibration    15          0.768              1.464              0.952
 Vibration    16          0.789              1.410              0.866
 Vibration    17          0.850              1.262              0.672
 Vibration    18          0.937              1.075              0.485

 Optimization completed.
    -- Stationary point found.
 Normal termination of Gaussian 16 at Tue Dec  8 12:39:30 2020.

 ----------------------------------------------------------------------
 # B3LYP/6-311++G(d,p) empiricaldispersion=gd3bj scf=xqc pop=npa geom=c
 heck
 ----------------------------------------------------------------------

 --------------------------------------
 CID_139646198_JID_761_Energie_neutraal
 --------------------------------------
 Structure from the checkpoint file:  "JID_761.chk"
 Charge =  0 Multiplicity = 1

 SCF Done:  E(RB3LYP) =  -1181.67746168     A.U. after   15 cycles
 Normal termination of Gaussian 16 at Tue Dec  8 12:42:29 2020.

 ----------------------------------------------------------------------
 # B3LYP/6-311++G(d,p) empiricaldispersion=gd3bj scf=xqc pop=npa geom=c
 heck
 ----------------------------------------------------------------------

 ------------------------------------
 CID_139646198_JID_761_Energie_kation
 ------------------------------------
 Structure from the checkpoint file:  "JID_761.chk"
 Charge =  1 Multiplicity = 2

 SCF Done:  E(UB3LYP) =  -1181.34783156     A.U. after   28 cycles
 Normal termination of Gaussian 16 at Tue Dec  8 12:49:38 2020.
 Gaussian 16:  ES64L-G16RevA.03 25-Dec-2016

 ----------------------------------------------------------------------
 # B3LYP/6-311++G(d,p) empiricaldispersion=gd3bj scf=xqc pop=npa geom=c
 heck
 ----------------------------------------------------------------------

 -----------------------------------
 CID_139646198_JID_761_Energie_anion
 -----------------------------------
 Structure from the checkpoint file:  "JID_761.chk"
 Charge = -1 Multiplicity = 2

                         Standard orientation:
 ---------------------------------------------------------------------
 Center     Atomic      Atomic             Coordinates (Angstroms)
 Number     Number       Type             X           Y           Z
 ---------------------------------------------------------------------
      1          6           0       -3.712755   -0.408756    0.002742
      2          6           0       -2.472543    0.436261   -0.105334
      3          6           0       -2.474832    1.738966   -0.413844
      4          6           0       -1.200857   -0.294350    0.151923
      5          8           0       -1.149395   -1.483736    0.397590
      6          8           0       -0.109299    0.514080    0.084592
      7          6           0        1.207433   -0.038697    0.254895
      8          6           0        1.404561   -0.574623    1.668916
      9         16           0        1.643850   -1.260348   -1.056621
     10         16           0        2.227088    1.474861   -0.061894
     11          1           0       -4.606639    0.187295   -0.198621
     12          1           0       -3.799316   -0.850781    1.001457
     13          1           0       -3.676860   -1.244312   -0.704663
     14          1           0       -1.556797    2.309831   -0.487621
     15          1           0       -3.406759    2.263911   -0.604153
     16          1           0        0.774515   -1.450238    1.833571
     17          1           0        2.450006   -0.853519    1.818634
     18          1           0        1.136463    0.205618    2.387389
     19          1           0        0.904342   -2.272963   -0.556111
     20          1           0        3.409564    0.877390    0.193118
 ---------------------------------------------------------------------

 SCF Done:  E(UB3LYP) =  -1181.67812292     A.U. after   33 cycles
 SCF Done:  E(UB3LYP) =  -1181.67825453     a.u. after    8 cycles

 The electronic state is 2-A.
 Alpha  occ. eigenvalues --  -88.73783 -88.72281 -19.01857 -18.93075 -10.17851
 Alpha  occ. eigenvalues --  -10.11016 -10.05447 -10.02397 -10.01101  -9.98918
 Alpha  occ. eigenvalues --   -7.82487  -7.81031  -5.78870  -5.78528  -5.77838
 Alpha  occ. eigenvalues --   -5.77410  -5.77041  -5.76416  -0.95461  -0.85912
 Alpha  occ. eigenvalues --   -0.70478  -0.64151  -0.60869  -0.59507  -0.54582
 Alpha  occ. eigenvalues --   -0.51359  -0.43482  -0.38890  -0.35379  -0.34097
 Alpha  occ. eigenvalues --   -0.31907  -0.31320  -0.29919  -0.29249  -0.28424
 Alpha  occ. eigenvalues --   -0.26727  -0.26221  -0.24672  -0.22339  -0.22097
 Alpha  occ. eigenvalues --   -0.20869  -0.20408  -0.16522  -0.13838  -0.13096
 Alpha  occ. eigenvalues --   -0.11308  -0.11136   0.05822
 Alpha virt. eigenvalues --    0.07695   0.09671   0.10012   0.10173   0.11513
 Alpha virt. eigenvalues --    0.11792   0.12214   0.12429   0.13669   0.14000
 Alpha virt. eigenvalues --    0.14780   0.14932   0.15838   0.17048   0.17232

  Beta  occ. eigenvalues --  -88.73774 -88.72270 -19.01822 -18.92687 -10.17825
  Beta  occ. eigenvalues --  -10.10635 -10.05429 -10.02407 -10.01017  -9.98477
  Beta  occ. eigenvalues --   -7.82478  -7.81019  -5.78845  -5.78523  -5.77828
  Beta  occ. eigenvalues --   -5.77393  -5.77022  -5.76405  -0.95182  -0.85302
  Beta  occ. eigenvalues --   -0.70359  -0.63702  -0.60806  -0.59451  -0.54290
  Beta  occ. eigenvalues --   -0.50777  -0.42783  -0.38726  -0.35218  -0.33845
  Beta  occ. eigenvalues --   -0.31453  -0.31141  -0.29715  -0.28547  -0.28244
  Beta  occ. eigenvalues --   -0.26581  -0.26004  -0.24427  -0.22216  -0.21568
  Beta  occ. eigenvalues --   -0.20596  -0.20188  -0.15348  -0.13764  -0.12993
  Beta  occ. eigenvalues --   -0.10939  -0.09033
  Beta virt. eigenvalues --    0.07993   0.09604   0.10007   0.10216   0.11179
  Beta virt. eigenvalues --    0.11661   0.12229   0.12369   0.12624   0.13939
  Beta virt. eigenvalues --    0.14056   0.14755   0.14854   0.15862   0.16893

 Mulliken charges and spin densities:
               1          2
     1  C   -0.718588   0.012575
     2  C    0.739526  -0.006164
     3  C   -0.848716   0.435390
     4  C   -0.307163   0.134087
     5  O   -0.382188   0.138369
     6  O    0.191425  -0.007494
     7  C    0.224201   0.206137
     8  C   -0.117331  -0.469187
     9  S   -0.208993   0.029962
    10  S   -0.135762   0.020181
    11  H    0.109123  -0.003573
    12  H    0.097070   0.045075
    13  H    0.141034   0.002467
    14  H    0.118632  -0.015499
    15  H    0.063454  -0.021633
    16  H    0.088229   0.088182
    17  H   -0.151434   0.298266
    18  H    0.110855   0.036606
    19  H    0.053383  -0.003482
    20  H   -0.066758   0.079736
 Sum of Mulliken charges =  -1.00000   1.00000

 Dipole moment (field-independent basis, Debye):
    X=              3.3053    Y=             -0.7513    Z=              0.3042  Tot=              3.4033
 Quadrupole moment (field-independent basis, Debye-Ang):
   XX=           -108.1138   YY=            -96.1585   ZZ=            -90.6804
   XY=              3.4513   XZ=              0.4904   YZ=              1.3873

 Summary of Natural Population Analysis:

                                       Natural Population
                Natural  -----------------------------------------------
    Atom  No    Charge         Core      Valence    Rydberg      Total
 -----------------------------------------------------------------------
      C    1   -0.29065      0.99964     2.28542    0.00559     3.29065
      C    2   -0.06554      0.99949     2.05568    0.01037     3.06554
      C    3   -0.08266      0.99954     2.07450    0.00862     3.08266
      C    4    0.43919      0.99960     1.53442    0.02679     2.56081
      O    5   -0.29835      0.99987     3.29366    0.00482     4.29835
      O    6   -0.30237      0.99983     3.28815    0.01439     4.30237
      C    7    0.02055      0.99963     1.95701    0.02280     2.97945
      C    8   -0.31325      0.99956     2.30341    0.01029     3.31325
      S    9   -0.02314      4.99951     3.00918    0.01445     8.02314
      S   10    0.00577      4.99953     2.97857    0.01613     7.99423
      H   11    0.09021      0.00000     0.40901    0.00078     0.40979
      H   12    0.09921      0.00000     0.39944    0.00135     0.40079
      H   13    0.10006      0.00000     0.39898    0.00096     0.39994
      H   14    0.09241      0.00000     0.40665    0.00094     0.40759
      H   15    0.07502      0.00000     0.42408    0.00090     0.42498
      H   16    0.12037      0.00000     0.37845    0.00118     0.37963
      H   17    0.10052      0.00000     0.39809    0.00139     0.39948
      H   18    0.10641      0.00000     0.39236    0.00124     0.39359
      H   19    0.07416      0.00000     0.42285    0.00299     0.42584
      H   20    0.05208      0.00000     0.44491    0.00301     0.44792
 =======================================================================
   * Total *    0.00000     17.99619    28.85481    0.14900    47.00000

 Normal termination of Gaussian 16 at Tue Dec  8 13:23:37 2020.
