 Gaussian 16, Revision A.03,

 -----------------------------------------------------------
 # opt freq B3LYP/6-31G(d) empiricaldispersion=gd3bj scf=xqc
 -----------------------------------------------------------

 ------------------------------
 CID_43186537_JID_6362_neutraal
 ------------------------------
 Symbolic Z-matrix:
 Charge =  0 Multiplicity = 1

 SCF Done:  E(RB3LYP) =  -710.896052201     A.U. after   15 cycles
 SCF Done:  E(RB3LYP) =  -710.900029457     A.U. after   13 cycles
 SCF Done:  E(RB3LYP) =  -710.900392787     A.U. after   12 cycles
 SCF Done:  E(RB3LYP) =  -710.901428711     A.U. after   12 cycles
 SCF Done:  E(RB3LYP) =  -710.901641866     A.U. after   12 cycles
 SCF Done:  E(RB3LYP) =  -710.901730806     A.U. after   12 cycles
 SCF Done:  E(RB3LYP) =  -710.901833167     A.U. after   11 cycles
 SCF Done:  E(RB3LYP) =  -710.901868762     A.U. after   10 cycles
 SCF Done:  E(RB3LYP) =  -710.901880405     A.U. after   10 cycles
 SCF Done:  E(RB3LYP) =  -710.901887081     A.U. after   10 cycles
 SCF Done:  E(RB3LYP) =  -710.901894472     A.U. after   10 cycles
 SCF Done:  E(RB3LYP) =  -710.901895394     A.U. after    8 cycles
 SCF Done:  E(RB3LYP) =  -710.901895567     A.U. after    7 cycles
 Optimization completed.
    -- Stationary point found.
 Normal termination of Gaussian 16 at Thu Dec 10 22:22:16 2020.

 --------------------------------------------------------------------
 #N Geom=AllCheck Guess=TCheck SCRF=Check GenChk RB3LYP/6-31G(d) Freq
 --------------------------------------------------------------------

 Structure from the checkpoint file:  "JID_6362.chk"
 ------------------------------
 CID_43186537_JID_6362_neutraal
 ------------------------------
 Charge =  0 Multiplicity = 1

 SCF Done:  E(RB3LYP) =  -710.901895567     A.U. after    1 cycles

  Exact polarizability: 182.177  -3.575 137.097  12.947   9.619 108.610
 Approx polarizability: 244.514  -5.457 230.468  23.048  19.852 169.746

                      1                      2                      3
                      A                      A                      A
 Frequencies --     41.9177                45.4284                61.1738
 Red. masses --      5.5330                 3.4771                 4.4014
 Frc consts  --      0.0057                 0.0042                 0.0097
 IR Inten    --      0.8420                 0.0340                 2.0113

                      4                      5                      6
                      A                      A                      A
 Frequencies --     88.1681               148.9551               172.1533
 Red. masses --      4.3418                 2.8959                 4.2685
 Frc consts  --      0.0199                 0.0379                 0.0745
 IR Inten    --      1.6485                 0.1641                 0.2466

                      7                      8                      9
                      A                      A                      A
 Frequencies --    185.7846               223.7370               244.1351
 Red. masses --      4.0113                 1.1993                 2.0149
 Frc consts  --      0.0816                 0.0354                 0.0708
 IR Inten    --      0.0516                 0.1300                 0.7198

                     10                     11                     12
                      A                      A                      A
 Frequencies --    264.9050               291.5873               339.9788
 Red. masses --      4.0718                 4.7582                 2.0939
 Frc consts  --      0.1683                 0.2384                 0.1426
 IR Inten    --      4.8156                 0.7318                 2.9220

                     13                     14                     15
                      A                      A                      A
 Frequencies --    353.8299               357.0594               380.4954
 Red. masses --      3.5048                 1.2229                 2.4054
 Frc consts  --      0.2585                 0.0919                 0.2052
 IR Inten    --     23.1403                80.2607                 5.8459

                     16                     17                     18
                      A                      A                      A
 Frequencies --    435.9079               436.3985               454.7721
 Red. masses --      3.1690                 3.0501                 4.2171
 Frc consts  --      0.3548                 0.3422                 0.5139
 IR Inten    --      1.8654                 0.7124                10.5798

                     19                     20                     21
                      A                      A                      A
 Frequencies --    514.2378               535.2357               555.2386
 Red. masses --      2.8733                 2.7893                 4.2974
 Frc consts  --      0.4477                 0.4708                 0.7806
 IR Inten    --      6.5570                 4.1712                 3.6766

                     22                     23                     24
                      A                      A                      A
 Frequencies --    566.3376               603.0764               657.7971
 Red. masses --      4.9763                 3.9802                 3.6480
 Frc consts  --      0.9404                 0.8529                 0.9300
 IR Inten    --      3.7150                 2.9892                16.0894

                     25                     26                     27
                      A                      A                      A
 Frequencies --    701.6459               723.9716               759.8027
 Red. masses --      3.0137                 5.5380                 1.5306
 Frc consts  --      0.8742                 1.7102                 0.5206
 IR Inten    --      0.7338                 7.4302                50.4587

                     28                     29                     30
                      A                      A                      A
 Frequencies --    779.4157               824.0618               839.5408
 Red. masses --      3.1974                 2.6493                 1.9777
 Frc consts  --      1.1444                 1.0600                 0.8213
 IR Inten    --      6.8597                 1.3564                 3.3953

                     31                     32                     33
                      A                      A                      A
 Frequencies --    847.2576               853.0444               885.1070
 Red. masses --      2.2469                 2.0970                 2.2391
 Frc consts  --      0.9503                 0.8991                 1.0335
 IR Inten    --      5.6610                 7.4994                 8.7192

                     34                     35                     36
                      A                      A                      A
 Frequencies --    899.5677               915.8690               941.0472
 Red. masses --      2.3766                 1.6033                 1.3776
 Frc consts  --      1.1331                 0.7924                 0.7188
 IR Inten    --      0.7696                 2.1667                 1.5948

                     37                     38                     39
                      A                      A                      A
 Frequencies --    961.2989               971.8116              1008.9278
 Red. masses --      2.1354                 1.2652                 1.7072
 Frc consts  --      1.1626                 0.7040                 1.0239
 IR Inten    --      2.9365                 0.3442                 9.2894

                     40                     41                     42
                      A                      A                      A
 Frequencies --   1030.3839              1056.8572              1077.1062
 Red. masses --      1.6431                 2.0137                 2.1402
 Frc consts  --      1.0278                 1.3252                 1.4629
 IR Inten    --      6.8841                25.8869                 2.3117

                     43                     44                     45
                      A                      A                      A
 Frequencies --   1088.3383              1114.4988              1121.5735
 Red. masses --      1.7462                 1.9601                 1.7259
 Frc consts  --      1.2186                 1.4345                 1.2792
 IR Inten    --     12.8051                 8.6729                17.7641

                     46                     47                     48
                      A                      A                      A
 Frequencies --   1155.4421              1183.4399              1193.6265
 Red. masses --      1.8944                 2.0874                 1.2025
 Frc consts  --      1.4901                 1.7225                 1.0094
 IR Inten    --     58.0966                11.6319                 1.6350

                     49                     50                     51
                      A                      A                      A
 Frequencies --   1196.9593              1217.6636              1229.7931
 Red. masses --      1.5812                 1.4026                 1.6110
 Frc consts  --      1.3347                 1.2253                 1.4355
 IR Inten    --      5.4273                89.6199                11.1372

                     52                     53                     54
                      A                      A                      A
 Frequencies --   1275.2609              1293.9369              1311.5295
 Red. masses --      2.0111                 2.6908                 1.3335
 Frc consts  --      1.9270                 2.6543                 1.3515
 IR Inten    --     15.5857                19.9110                13.7634

                     55                     56                     57
                      A                      A                      A
 Frequencies --   1316.4288              1336.8672              1348.5573
 Red. masses --      1.8517                 1.8374                 1.4389
 Frc consts  --      1.8907                 1.9348                 1.5418
 IR Inten    --    105.3897                61.3804                 8.8276

                     58                     59                     60
                      A                      A                      A
 Frequencies --   1379.2722              1380.0589              1383.4258
 Red. masses --      1.3807                 2.4021                 1.4749
 Frc consts  --      1.5476                 2.6955                 1.6631
 IR Inten    --     13.1768                21.6724                54.2915

                     61                     62                     63
                      A                      A                      A
 Frequencies --   1402.6030              1406.0390              1416.0675
 Red. masses --      1.4863                 1.5082                 1.5373
 Frc consts  --      1.7228                 1.7567                 1.8163
 IR Inten    --      5.8674                 9.9862                26.8951

                     64                     65                     66
                      A                      A                      A
 Frequencies --   1434.9489              1468.5413              1502.1430
 Red. masses --      1.2553                 2.2605                 2.6642
 Frc consts  --      1.5229                 2.8722                 3.5419
 IR Inten    --     10.3653               155.9706               122.7787

                     67                     68                     69
                      A                      A                      A
 Frequencies --   1507.8530              1512.8637              1519.6569
 Red. masses --      1.0939                 1.0766                 1.0723
 Frc consts  --      1.4654                 1.4519                 1.4589
 IR Inten    --      2.9599                 2.6909                 2.5871

                     70                     71                     72
                      A                      A                      A
 Frequencies --   1527.4897              1536.7897              1542.5135
 Red. masses --      1.0770                 1.0729                 1.0827
 Frc consts  --      1.4806                 1.4929                 1.5178
 IR Inten    --      5.0651                 5.1910                 7.3763

                     73                     74                     75
                      A                      A                      A
 Frequencies --   1551.4454              1650.9708              1668.4473
 Red. masses --      2.4974                 6.0003                 6.0995
 Frc consts  --      3.5417                 9.6361                10.0039
 IR Inten    --      7.9284                 9.9442                46.6267

                     76                     77                     78
                      A                      A                      A
 Frequencies --   1734.6498              3020.1634              3036.4308
 Red. masses --     11.6880                 1.0734                 1.0650
 Frc consts  --     20.7212                 5.7687                 5.7851
 IR Inten    --    324.3360                34.2826                22.5254

                     79                     80                     81
                      A                      A                      A
 Frequencies --   3045.0602              3050.6776              3057.9714
 Red. masses --      1.0611                 1.0573                 1.0411
 Frc consts  --      5.7972                 5.7973                 5.7361
 IR Inten    --     27.6396                19.9037                28.0864

                     82                     83                     84
                      A                      A                      A
 Frequencies --   3079.0556              3089.4185              3099.1086
 Red. masses --      1.0958                 1.1046                 1.1036
 Frc consts  --      6.1211                 6.2117                 6.2451
 IR Inten    --     57.7030                35.1930                56.3660

                     85                     86                     87
                      A                      A                      A
 Frequencies --   3122.7284              3129.5485              3157.0004
 Red. masses --      1.1016                 1.0999                 1.0867
 Frc consts  --      6.3291                 6.3469                 6.3811
 IR Inten    --     24.3495                16.6792                29.8540

                     88                     89                     90
                      A                      A                      A
 Frequencies --   3163.9927              3165.5587              3195.4488
 Red. masses --      1.0900                 1.0887                 1.0877
 Frc consts  --      6.4292                 6.4278                 6.5438
 IR Inten    --      4.1664                15.1459                 6.0040

                     91                     92                     93
                      A                      A                      A
 Frequencies --   3206.9324              3219.3302              3751.9194
 Red. masses --      1.0915                 1.0967                 1.0659
 Frc consts  --      6.6140                 6.6969                 8.8407
 IR Inten    --     14.7934                16.8226                42.3071

 - Thermochemistry -
 -------------------
 Temperature   298.150 Kelvin.  Pressure   1.00000 Atm.
 Atom     1 has atomic number  6 and mass  12.00000

 Molecular mass:   219.12593 amu.
 Principal axes and moments of inertia in atomic units:
                           1         2         3
     Eigenvalues --  1774.454734984.634095342.75027
           X            1.00000   0.00123   0.00078
           Y           -0.00127   0.99891   0.04676
           Z           -0.00072  -0.04676   0.99891
 This molecule is an asymmetric top.
 Rotational symmetry number  1.
 Warning -- assumption of classical behavior for rotation
           may cause significant error
 Rotational temperatures (Kelvin)      0.04881     0.01738     0.01621
 Rotational constants (GHZ):           1.01707     0.36206     0.33779
 Zero-point vibrational energy     744885.1 (Joules/Mol)
                                  178.03182 (Kcal/Mol)
 Warning -- explicit consideration of  23 degrees of freedom as
           vibrations may cause significant error
 Vibrational temperatures:     60.31    65.36    88.02   126.85   214.31
          (Kelvin)            247.69   267.30   321.91   351.26   381.14
                              419.53   489.15   509.08   513.73   547.45
                              627.17   627.88   654.32   739.87   770.08
                              798.86   814.83   867.69   946.42  1009.51
                             1041.63  1093.19  1121.41  1185.64  1207.91
                             1219.01  1227.34  1273.47  1294.28  1317.73
                             1353.96  1383.09  1398.22  1451.62  1482.49
                             1520.58  1549.72  1565.88  1603.52  1613.69
                             1662.42  1702.71  1717.36  1722.16  1751.95
                             1769.40  1834.82  1861.69  1887.00  1894.05
                             1923.45  1940.27  1984.47  1985.60  1990.44
                             2018.03  2022.98  2037.41  2064.57  2112.90
                             2161.25  2169.46  2176.67  2186.45  2197.72
                             2211.10  2219.33  2232.18  2375.38  2400.52
                             2495.77  4345.34  4368.75  4381.16  4389.24
                             4399.74  4430.07  4444.98  4458.93  4492.91
                             4502.72  4542.22  4552.28  4554.53  4597.54
                             4614.06  4631.90  5398.18

 Zero-point correction=                           0.283712 (Hartree/Particle)
 Thermal correction to Energy=                    0.298268
 Thermal correction to Enthalpy=                  0.299212
 Thermal correction to Gibbs Free Energy=         0.241991
 Sum of electronic and zero-point Energies=           -710.618184
 Sum of electronic and thermal Energies=              -710.603628
 Sum of electronic and thermal Enthalpies=            -710.602683
 Sum of electronic and thermal Free Energies=         -710.659904

                     E (Thermal)             CV                S
                      KCal/Mol        Cal/Mol-Kelvin    Cal/Mol-Kelvin
 Total                  187.166             57.303            120.431
 Electronic               0.000              0.000              0.000
 Translational            0.889              2.981             42.056
 Rotational               0.889              2.981             32.225
 Vibrational            185.389             51.342             46.150
 Vibration     1          0.595              1.980              5.166
 Vibration     2          0.595              1.979              5.007
 Vibration     3          0.597              1.973              4.419
 Vibration     4          0.601              1.957              3.700
 Vibration     5          0.618              1.904              2.686
 Vibration     6          0.626              1.877              2.412
 Vibration     7          0.632              1.859              2.269
 Vibration     8          0.649              1.805              1.929
 Vibration     9          0.659              1.772              1.773
 Vibration    10          0.671              1.737              1.629
 Vibration    11          0.687              1.689              1.465
 Vibration    12          0.720              1.596              1.212
 Vibration    13          0.730              1.567              1.149
 Vibration    14          0.732              1.561              1.135
 Vibration    15          0.750              1.512              1.037
 Vibration    16          0.796              1.392              0.840
 Vibration    17          0.797              1.391              0.838
 Vibration    18          0.813              1.350              0.781
 Vibration    19          0.869              1.218              0.623
 Vibration    20          0.890              1.172              0.576
 Vibration    21          0.911              1.128              0.533
 Vibration    22          0.922              1.104              0.511
 Vibration    23          0.961              1.025              0.444

                           ! Non-Optimized Parameters !
 Normal termination of Gaussian 16 at Thu Dec 10 22:34:06 2020.

 ----------------------------------------------------------------------
 # B3LYP/6-311++G(d,p) empiricaldispersion=gd3bj scf=xqc pop=npa geom=c
 heck
 ----------------------------------------------------------------------

 --------------------------------------
 CID_43186537_JID_6362_Energie_neutraal
 --------------------------------------
 Structure from the checkpoint file:  "JID_6362.chk"
 Charge =  0 Multiplicity = 1

 SCF Done:  E(RB3LYP) =  -711.103496783     A.U. after   15 cycles
 Normal termination of Gaussian 16 at Thu Dec 10 22:38:50 2020.

 ----------------------------------------------------------------------
 # B3LYP/6-311++G(d,p) empiricaldispersion=gd3bj scf=xqc pop=npa geom=c
 heck
 ----------------------------------------------------------------------

 ------------------------------------
 CID_43186537_JID_6362_Energie_kation
 ------------------------------------
 Structure from the checkpoint file:  "JID_6362.chk"
 Charge =  1 Multiplicity = 2

 SCF Done:  E(UB3LYP) =  -710.801978243     A.U. after   33 cycles
 SCF Done:  E(UB3LYP) =  -710.805052829     a.u. after    8 cycles
 Normal termination of Gaussian 16 at Thu Dec 10 23:58:36 2020.
 Gaussian 16:  ES64L-G16RevA.03 25-Dec-2016

 ----------------------------------------------------------------------
 # B3LYP/6-311++G(d,p) empiricaldispersion=gd3bj scf=xqc pop=npa geom=c
 heck
 ----------------------------------------------------------------------

 -----------------------------------
 CID_43186537_JID_6362_Energie_anion
 -----------------------------------
 Structure from the checkpoint file:  "JID_6362.chk"
 Charge = -1 Multiplicity = 2

                         Standard orientation:
 ---------------------------------------------------------------------
 Center     Atomic      Atomic             Coordinates (Angstroms)
 Number     Number       Type             X           Y           Z
 ---------------------------------------------------------------------
      1          6           0       -1.429540   -0.069698    2.314217
      2          6           0       -1.142328   -0.545338    0.882238
      3          6           0       -2.165166   -1.568830    0.359363
      4          6           0       -3.522641   -0.931958    0.037380
      5          6           0       -3.336782    0.240929   -0.931823
      6          6           0       -2.329632    1.252533   -0.380629
      7          7           0       -1.066407    0.591799   -0.047678
      8          6           0        0.100140    1.186255   -0.445784
      9          8           0        0.132414    2.274566   -1.018172
     10          6           0        1.399383    0.478342   -0.151463
     11          6           0        2.372791    1.171043    0.573860
     12          6           0        3.630254    0.620233    0.812877
     13          6           0        3.936670   -0.636054    0.290002
     14          6           0        2.991392   -1.331124   -0.462224
     15          6           0        1.728340   -0.777018   -0.686067
     16          8           0        0.773355   -1.429081   -1.422400
     17          1           0       -1.432423   -0.923137    3.001506
     18          1           0       -2.397691    0.432439    2.401154
     19          1           0       -0.653725    0.631153    2.639540
     20          1           0       -0.164114   -1.023106    0.888348
     21          1           0       -1.750189   -2.014182   -0.552096
     22          1           0       -2.277789   -2.372189    1.097753
     23          1           0       -4.000634   -0.573633    0.959496
     24          1           0       -4.196862   -1.683164   -0.390839
     25          1           0       -4.291154    0.747033   -1.121320
     26          1           0       -2.967387   -0.134094   -1.895151
     27          1           0       -2.741268    1.744049    0.513134
     28          1           0       -2.096922    2.033801   -1.103390
     29          1           0        2.125549    2.161480    0.942976
     30          1           0        4.366702    1.170231    1.390114
     31          1           0        4.914396   -1.078126    0.458543
     32          1           0        3.232681   -2.305456   -0.883467
     33          1           0        1.152242   -2.255469   -1.759667
 ---------------------------------------------------------------------

 SCF Done:  E(UB3LYP) =  -711.094649442     A.U. after   33 cycles
 SCF Done:  E(UB3LYP) =  -711.094649442     a.u. after    1 cycles

 The electronic state is 2-A.
 Alpha  occ. eigenvalues --  -19.05428 -18.98720 -14.24143 -10.17482 -10.14585
 Alpha  occ. eigenvalues --  -10.11394 -10.10473 -10.08828 -10.08628 -10.08608
 Alpha  occ. eigenvalues --  -10.07892 -10.07886 -10.07756 -10.07471 -10.07026
 Alpha  occ. eigenvalues --  -10.06817  -0.96605  -0.93864  -0.84328  -0.76366
 Alpha  occ. eigenvalues --   -0.70945  -0.68720  -0.66842  -0.64927  -0.61590
 Alpha  occ. eigenvalues --   -0.57007  -0.53743  -0.53066  -0.52263  -0.48918
 Alpha  occ. eigenvalues --   -0.45468  -0.43909  -0.42628  -0.38590  -0.38129
 Alpha  occ. eigenvalues --   -0.37667  -0.36503  -0.34820  -0.34174  -0.33834
 Alpha  occ. eigenvalues --   -0.33075  -0.32276  -0.31904  -0.31425  -0.30632
 Alpha  occ. eigenvalues --   -0.28968  -0.28089  -0.27565  -0.26638  -0.25792
 Alpha  occ. eigenvalues --   -0.25617  -0.24800  -0.23609  -0.23121  -0.22579
 Alpha  occ. eigenvalues --   -0.17683  -0.15137  -0.14456  -0.13520   0.04116
 Alpha virt. eigenvalues --    0.05949   0.06556   0.06851   0.07564   0.07951
 Alpha virt. eigenvalues --    0.08443   0.08702   0.09561   0.10190   0.10370
 Alpha virt. eigenvalues --    0.10624   0.11549   0.12247   0.12447   0.12938

  Beta  occ. eigenvalues --  -19.05369 -18.98718 -14.24143 -10.17483 -10.14587
  Beta  occ. eigenvalues --  -10.11392 -10.10467 -10.08816 -10.08622 -10.08595
  Beta  occ. eigenvalues --  -10.07883 -10.07849 -10.07747 -10.07456 -10.07003
  Beta  occ. eigenvalues --  -10.06796  -0.96498  -0.93857  -0.84321  -0.76333
  Beta  occ. eigenvalues --   -0.70922  -0.68700  -0.66804  -0.64881  -0.61559
  Beta  occ. eigenvalues --   -0.56977  -0.53690  -0.53007  -0.52228  -0.48884
  Beta  occ. eigenvalues --   -0.45384  -0.43868  -0.42597  -0.38558  -0.38087
  Beta  occ. eigenvalues --   -0.37644  -0.36472  -0.34790  -0.34149  -0.33785
  Beta  occ. eigenvalues --   -0.33040  -0.32250  -0.31878  -0.31401  -0.30591
  Beta  occ. eigenvalues --   -0.28944  -0.28059  -0.27540  -0.26608  -0.25752
  Beta  occ. eigenvalues --   -0.25595  -0.24762  -0.23586  -0.23096  -0.22550
  Beta  occ. eigenvalues --   -0.17656  -0.15111  -0.14448  -0.13487
  Beta virt. eigenvalues --    0.06143   0.06612   0.06902   0.07671   0.07951
  Beta virt. eigenvalues --    0.08589   0.08737   0.08847   0.09958   0.10497
  Beta virt. eigenvalues --    0.10627   0.10964   0.11622   0.12271   0.12770

 Mulliken charges and spin densities:
               1          2
     1  C    0.224021  -0.922937
     2  C   -0.973660   0.971753
     3  C    0.372241  -0.792743
     4  C   -0.265445  -0.052407
     5  C   -0.145685  -0.229166
     6  C    0.225316  -0.349455
     7  N    0.284371  -0.039750
     8  C    0.867948  -1.417195
     9  O   -0.283757  -0.008974
    10  C    0.648451  -0.192986
    11  C   -0.788583   1.024374
    12  C   -0.585755   0.178186
    13  C    1.124624  -1.418930
    14  C    0.153252  -0.253735
    15  C   -0.094448  -0.011663
    16  O   -0.229971   0.013690
    17  H   -0.203329   0.357401
    18  H    0.019631   0.111942
    19  H    0.142307   0.016173
    20  H    0.308430  -0.103267
    21  H    0.139467   0.061968
    22  H   -0.320930   0.475721
    23  H    0.063349   0.064403
    24  H   -0.241518   0.420439
    25  H    0.017012   0.131246
    26  H    0.077693   0.081120
    27  H   -0.003304   0.151626
    28  H    0.268402  -0.066550
    29  H    0.095499   0.104179
    30  H   -0.053572   0.203718
    31  H   -0.110285   0.273288
    32  H   -1.359074   1.543894
    33  H   -0.372700   0.674637
 Sum of Mulliken charges =  -1.00000   1.00000

 Dipole moment (field-independent basis, Debye):
    X=             -2.8072    Y=              5.7877    Z=              2.8344  Tot=              7.0293
 Quadrupole moment (field-independent basis, Debye-Ang):
   XX=           -154.2652   YY=           -153.8670   ZZ=           -132.5900
   XY=              6.8394   XZ=              9.1313   YZ=             -2.4538

 Summary of Natural Population Analysis:

                                       Natural Population
                Natural  -----------------------------------------------
    Atom  No    Charge         Core      Valence    Rydberg      Total
 -----------------------------------------------------------------------
      C    1   -0.29056      0.99964     2.28559    0.00533     3.29056
      C    2   -0.00671      0.99957     1.99479    0.01235     3.00671
      C    3   -0.19348      0.99960     2.18428    0.00960     3.19348
      C    4   -0.19165      0.99963     2.18401    0.00801     3.19165
      C    5   -0.19467      0.99962     2.18656    0.00849     3.19467
      C    6   -0.08738      0.99960     2.07868    0.00910     3.08738
      N    7   -0.25119      0.99962     2.74075    0.01082     3.75119
      C    8    0.34684      0.99959     1.63046    0.02312     2.65316
      O    9   -0.32524      0.99988     3.32067    0.00470     4.32524
      C   10   -0.08620      0.99942     2.07428    0.01250     3.08620
      C   11   -0.07789      0.99953     2.06980    0.00857     3.07789
      C   12   -0.11991      0.99956     2.11106    0.00929     3.11991
      C   13   -0.08939      0.99957     2.07916    0.01066     3.08939
      C   14   -0.13120      0.99951     2.12047    0.01123     3.13120
      C   15    0.16490      0.99935     1.82133    0.01443     2.83510
      O   16   -0.34059      0.99988     3.33279    0.00793     4.34059
      H   17    0.10295      0.00000     0.39622    0.00084     0.39705
      H   18    0.09621      0.00000     0.40283    0.00096     0.40379
      H   19    0.10179      0.00000     0.39730    0.00091     0.39821
      H   20    0.11035      0.00000     0.38691    0.00273     0.38965
      H   21    0.10811      0.00000     0.39009    0.00180     0.39189
      H   22    0.10145      0.00000     0.39733    0.00122     0.39855
      H   23    0.09181      0.00000     0.40699    0.00120     0.40819
      H   24    0.10066      0.00000     0.39830    0.00104     0.39934
      H   25    0.09737      0.00000     0.40184    0.00079     0.40263
      H   26    0.09893      0.00000     0.39975    0.00132     0.40107
      H   27    0.08809      0.00000     0.41074    0.00117     0.41191
      H   28    0.11633      0.00000     0.38248    0.00120     0.38367
      H   29    0.10486      0.00000     0.39421    0.00093     0.39514
      H   30    0.09970      0.00000     0.39952    0.00078     0.40030
      H   31    0.10150      0.00000     0.39756    0.00094     0.39850
      H   32    0.10916      0.00000     0.38566    0.00518     0.39084
      H   33    0.24504      0.00000     0.24110    0.01386     0.25496
 =======================================================================
   * Total *    0.00000     15.99357    42.80349    0.20294    59.00000

 Normal termination of Gaussian 16 at Fri Dec 11 00:13:08 2020.
