 Gaussian 16, Revision A.03,

 -----------------------------------------------------------
 # opt freq B3LYP/6-31G(d) empiricaldispersion=gd3bj scf=xqc
 -----------------------------------------------------------

 -------------------------------
 CID_131404231_JID_2562_neutraal
 -------------------------------
 Symbolic Z-matrix:
 Charge =  0 Multiplicity = 1

 SCF Done:  E(RB3LYP) =  -585.644599602     A.U. after   15 cycles
 SCF Done:  E(RB3LYP) =  -585.672001862     A.U. after   13 cycles
 SCF Done:  E(RB3LYP) =  -585.673228076     A.U. after   13 cycles
 SCF Done:  E(RB3LYP) =  -585.673417903     A.U. after   13 cycles
 SCF Done:  E(RB3LYP) =  -585.673584090     A.U. after   12 cycles
 SCF Done:  E(RB3LYP) =  -585.673626562     A.U. after   12 cycles
 SCF Done:  E(RB3LYP) =  -585.673640560     A.U. after   12 cycles
 SCF Done:  E(RB3LYP) =  -585.673644591     A.U. after   10 cycles
 SCF Done:  E(RB3LYP) =  -585.673646857     A.U. after   10 cycles
 SCF Done:  E(RB3LYP) =  -585.673647222     A.U. after    8 cycles
 SCF Done:  E(RB3LYP) =  -585.673647504     A.U. after    8 cycles
 SCF Done:  E(RB3LYP) =  -585.673647566     A.U. after    8 cycles
 Optimization completed.
    -- Stationary point found.
 Normal termination of Gaussian 16 at Wed Dec  9 17:35:42 2020.

 --------------------------------------------------------------------
 #N Geom=AllCheck Guess=TCheck SCRF=Check GenChk RB3LYP/6-31G(d) Freq
 --------------------------------------------------------------------

 Structure from the checkpoint file:  "JID_2562.chk"
 -------------------------------
 CID_131404231_JID_2562_neutraal
 -------------------------------
 Charge =  0 Multiplicity = 1

 SCF Done:  E(RB3LYP) =  -585.673647566     A.U. after    1 cycles

  Exact polarizability:  90.780   4.973  99.577  11.070  -3.236  67.776
 Approx polarizability: 113.679  12.515 204.212  17.136 -10.325 109.152

                      1                      2                      3
                      A                      A                      A
 Frequencies --     37.6374                48.1661                89.4296
 Red. masses --      9.4385                 7.1306                 4.5807
 Frc consts  --      0.0079                 0.0097                 0.0216
 IR Inten    --      0.9896                 2.7813                 2.5271

                      4                      5                      6
                      A                      A                      A
 Frequencies --    131.4521               171.5164               232.2773
 Red. masses --      9.1381                 9.3774                 4.5343
 Frc consts  --      0.0930                 0.1625                 0.1441
 IR Inten    --      5.7267                 9.9930                11.4458

                      7                      8                      9
                      A                      A                      A
 Frequencies --    264.3020               290.6592               298.6158
 Red. masses --      2.3143                 2.7871                 4.2205
 Frc consts  --      0.0953                 0.1387                 0.2217
 IR Inten    --      5.5979                 2.3329                 0.2006

                     10                     11                     12
                      A                      A                      A
 Frequencies --    314.3435               323.7225               439.7806
 Red. masses --      1.7148                 4.2077                 7.8012
 Frc consts  --      0.0998                 0.2598                 0.8890
 IR Inten    --     46.1806                 9.0823                24.0364

                     13                     14                     15
                      A                      A                      A
 Frequencies --    563.6972               576.2025               588.6339
 Red. masses --      3.5716                 4.8133                 4.6738
 Frc consts  --      0.6687                 0.9416                 0.9541
 IR Inten    --      2.9299                 5.7362                 7.4384

                     16                     17                     18
                      A                      A                      A
 Frequencies --    627.7189               646.8009               709.1487
 Red. masses --      2.6342                 4.9647                 7.8699
 Frc consts  --      0.6115                 1.2237                 2.3318
 IR Inten    --      2.6261                 3.6336                32.4466

                     19                     20                     21
                      A                      A                      A
 Frequencies --    765.6131               781.0642               793.7226
 Red. masses --      8.1810                 4.8292                 3.2542
 Frc consts  --      2.8254                 1.7358                 1.2079
 IR Inten    --      0.1919                 1.6158                 7.8198

                     22                     23                     24
                      A                      A                      A
 Frequencies --    839.0631               888.8842               947.3224
 Red. masses --      2.1373                 1.6004                 2.3690
 Frc consts  --      0.8865                 0.7450                 1.2526
 IR Inten    --     61.0272               169.5325                26.1185

                     25                     26                     27
                      A                      A                      A
 Frequencies --    967.2476              1042.4223              1065.2325
 Red. masses --      1.2800                 2.5238                 1.5438
 Frc consts  --      0.7055                 1.6158                 1.0322
 IR Inten    --      0.0918                17.0337                 9.3823

                     28                     29                     30
                      A                      A                      A
 Frequencies --   1070.1317              1141.7017              1150.4940
 Red. masses --      2.1698                 2.3082                 2.7804
 Frc consts  --      1.4640                 1.7727                 2.1683
 IR Inten    --     11.6104                31.4463                25.0423

                     31                     32                     33
                      A                      A                      A
 Frequencies --   1160.9260              1257.4457              1328.3002
 Red. masses --      2.5192                 1.6471                 1.5805
 Frc consts  --      2.0004                 1.5344                 1.6430
 IR Inten    --      3.2398                 4.9811                14.2046

                     34                     35                     36
                      A                      A                      A
 Frequencies --   1339.8100              1361.8398              1406.4469
 Red. masses --      1.7028                 1.3170                 1.3791
 Frc consts  --      1.8009                 1.4390                 1.6073
 IR Inten    --      8.0614                16.2520                20.9729

                     37                     38                     39
                      A                      A                      A
 Frequencies --   1424.8944              1441.0570              1506.9971
 Red. masses --      1.3805                 4.8917                 1.0967
 Frc consts  --      1.6513                 5.9852                 1.4675
 IR Inten    --     22.9726               250.7931                20.7350

                     40                     41                     42
                      A                      A                      A
 Frequencies --   1657.2566              1703.1408              1808.7933
 Red. masses --      6.7095                 1.0906                12.2287
 Frc consts  --     10.8573                 1.8638                23.5727
 IR Inten    --      2.4416                30.6935               524.0824

                     43                     44                     45
                      A                      A                      A
 Frequencies --   1863.6419              2354.3655              3096.0570
 Red. masses --     11.8820                12.6483                 1.0757
 Frc consts  --     24.3146                41.3077                 6.0752
 IR Inten    --     12.9153                 1.7922                 3.3379

                     46                     47                     48
                      A                      A                      A
 Frequencies --   3103.3727              3157.1320              3260.5775
 Red. masses --      1.0668                 1.1086                 1.0892
 Frc consts  --      6.0533                 6.5107                 6.8225
 IR Inten    --     10.8283                 2.0810                 0.0436

                     49                     50                     51
                      A                      A                      A
 Frequencies --   3280.4344              3484.0038              3572.2562
 Red. masses --      1.1078                 1.0503                 1.0931
 Frc consts  --      7.0240                 7.5116                 8.2183
 IR Inten    --      0.1098                 1.2416                 3.2242

 - Thermochemistry -
 -------------------
 Temperature   298.150 Kelvin.  Pressure   1.00000 Atm.
 Atom     1 has atomic number  6 and mass  12.00000

 Molecular mass:   165.05383 amu.
 Principal axes and moments of inertia in atomic units:
                           1         2         3
     Eigenvalues --  1285.051832356.563332754.73187
           X            0.99959   0.01080   0.02637
           Y           -0.01051   0.99988  -0.01101
           Z           -0.02649   0.01073   0.99959
 This molecule is an asymmetric top.
 Rotational symmetry number  1.
 Warning -- assumption of classical behavior for rotation
           may cause significant error
 Rotational temperatures (Kelvin)      0.06740     0.03675     0.03144
 Rotational constants (GHZ):           1.40441     0.76584     0.65514
 Zero-point vibrational energy     373089.9 (Joules/Mol)
                                   89.17062 (Kcal/Mol)
 Warning -- explicit consideration of  15 degrees of freedom as
           vibrations may cause significant error
 Vibrational temperatures:     54.15    69.30   128.67   189.13   246.77
          (Kelvin)            334.20   380.27   418.19   429.64   452.27
                              465.76   632.75   811.03   829.03   846.91
                              903.15   930.60  1020.31  1101.55  1123.78
                             1141.99  1207.22  1278.91  1362.99  1391.65
                             1499.81  1532.63  1539.68  1642.65  1655.30
                             1670.31  1809.18  1911.13  1927.69  1959.38
                             2023.56  2050.11  2073.36  2168.23  2384.42
                             2450.44  2602.45  2681.37  3387.41  4454.54
                             4465.06  4542.41  4691.24  4719.81  5012.70
                             5139.68

 Zero-point correction=                           0.142102 (Hartree/Particle)
 Thermal correction to Energy=                    0.153170
 Thermal correction to Enthalpy=                  0.154114
 Thermal correction to Gibbs Free Energy=         0.104144
 Sum of electronic and zero-point Energies=           -585.531545
 Sum of electronic and thermal Energies=              -585.520478
 Sum of electronic and thermal Enthalpies=            -585.519534
 Sum of electronic and thermal Free Energies=         -585.569504

                     E (Thermal)             CV                S
                      KCal/Mol        Cal/Mol-Kelvin    Cal/Mol-Kelvin
 Total                   96.115             39.927            105.171
 Electronic               0.000              0.000              0.000
 Translational            0.889              2.981             41.212
 Rotational               0.889              2.981             30.501
 Vibrational             94.338             33.965             33.458
 Vibration     1          0.594              1.982              5.380
 Vibration     2          0.595              1.978              4.891
 Vibration     3          0.602              1.957              3.673
 Vibration     4          0.612              1.922              2.925
 Vibration     5          0.626              1.878              2.419
 Vibration     6          0.653              1.792              1.861
 Vibration     7          0.671              1.738              1.633
 Vibration     8          0.687              1.691              1.470
 Vibration     9          0.692              1.676              1.425
 Vibration    10          0.702              1.646              1.339
 Vibration    11          0.708              1.628              1.291
 Vibration    12          0.800              1.383              0.827
 Vibration    13          0.919              1.110              0.517
 Vibration    14          0.933              1.083              0.492
 Vibration    15          0.946              1.056              0.470

 Optimization completed.
    -- Stationary point found.
 Normal termination of Gaussian 16 at Wed Dec  9 17:39:55 2020.

 ----------------------------------------------------------------------
 # B3LYP/6-311++G(d,p) empiricaldispersion=gd3bj scf=xqc pop=npa geom=c
 heck
 ----------------------------------------------------------------------

 ---------------------------------------
 CID_131404231_JID_2562_Energie_neutraal
 ---------------------------------------
 Structure from the checkpoint file:  "JID_2562.chk"
 Charge =  0 Multiplicity = 1

 SCF Done:  E(RB3LYP) =  -585.849152740     A.U. after   15 cycles
 Normal termination of Gaussian 16 at Wed Dec  9 17:41:50 2020.

 ----------------------------------------------------------------------
 # B3LYP/6-311++G(d,p) empiricaldispersion=gd3bj scf=xqc pop=npa geom=c
 heck
 ----------------------------------------------------------------------

 -------------------------------------
 CID_131404231_JID_2562_Energie_kation
 -------------------------------------
 Structure from the checkpoint file:  "JID_2562.chk"
 Charge =  1 Multiplicity = 2

 SCF Done:  E(UB3LYP) =  -585.486177813     A.U. after   33 cycles
 SCF Done:  E(UB3LYP) =  -585.486177813     a.u. after    2 cycles
 Normal termination of Gaussian 16 at Wed Dec  9 17:55:04 2020.
 Gaussian 16:  ES64L-G16RevA.03 25-Dec-2016

 ----------------------------------------------------------------------
 # B3LYP/6-311++G(d,p) empiricaldispersion=gd3bj scf=xqc pop=npa geom=c
 heck
 ----------------------------------------------------------------------

 ------------------------------------
 CID_131404231_JID_2562_Energie_anion
 ------------------------------------
 Structure from the checkpoint file:  "JID_2562.chk"
 Charge = -1 Multiplicity = 2

                         Standard orientation:
 ---------------------------------------------------------------------
 Center     Atomic      Atomic             Coordinates (Angstroms)
 Number     Number       Type             X           Y           Z
 ---------------------------------------------------------------------
      1          6           0        2.583438    0.609820    0.284089
      2          6           0        2.495215   -0.692468    0.573085
      3          6           0        1.180230   -1.211440    0.068203
      4          8           0        0.719133   -2.331436    0.160898
      5          7           0        0.548959   -0.125997   -0.543133
      6          6           0        1.336712    1.031224   -0.437975
      7          8           0        1.040904    2.124524   -0.866984
      8          6           0       -0.780749   -0.158156   -1.110027
      9          6           0       -1.867401   -0.420700   -0.045213
     10          6           0       -1.682862    0.489420    1.110184
     11          7           0       -1.573572    1.222296    2.004187
     12          7           0       -3.178238   -0.327250   -0.678749
     13          1           0        3.380283    1.309430    0.499035
     14          1           0        3.200560   -1.331997    1.087070
     15          1           0       -0.941346    0.812875   -1.585225
     16          1           0       -0.856773   -0.943797   -1.864989
     17          1           0       -1.732369   -1.444433    0.318107
     18          1           0       -3.901540   -0.661753   -0.046276
     19          1           0       -3.396644    0.645425   -0.889234
 ---------------------------------------------------------------------

 SCF Done:  E(UB3LYP) =  -585.893613977     A.U. after   20 cycles

 The electronic state is 2-A.
 Alpha  occ. eigenvalues --  -18.92848 -18.92660 -14.22372 -14.20305 -14.19152
 Alpha  occ. eigenvalues --  -10.13566 -10.09842 -10.09616 -10.09540 -10.09534
 Alpha  occ. eigenvalues --  -10.00084  -9.99999  -0.89481  -0.87356  -0.82679
 Alpha  occ. eigenvalues --   -0.79046  -0.78940  -0.67096  -0.61246  -0.54161
 Alpha  occ. eigenvalues --   -0.49275  -0.44417  -0.43378  -0.42400  -0.37244
 Alpha  occ. eigenvalues --   -0.35543  -0.33282  -0.31566  -0.29060  -0.28305
 Alpha  occ. eigenvalues --   -0.27462  -0.26372  -0.25956  -0.25504  -0.23851
 Alpha  occ. eigenvalues --   -0.23051  -0.22657  -0.21917  -0.17859  -0.13439
 Alpha  occ. eigenvalues --   -0.11873  -0.11060  -0.09328   0.02991
 Alpha virt. eigenvalues --    0.06973   0.10555   0.10905   0.11389   0.12588
 Alpha virt. eigenvalues --    0.12695   0.12747   0.13773   0.14879   0.15365
 Alpha virt. eigenvalues --    0.17219   0.17689   0.18232   0.18976   0.19686

  Beta  occ. eigenvalues --  -18.92373 -18.92170 -14.22373 -14.20304 -14.19250
  Beta  occ. eigenvalues --  -10.13569 -10.09842 -10.09532 -10.09390 -10.09332
  Beta  occ. eigenvalues --   -9.99788  -9.99694  -0.88852  -0.86516  -0.82648
  Beta  occ. eigenvalues --   -0.79033  -0.78658  -0.66751  -0.60912  -0.54010
  Beta  occ. eigenvalues --   -0.48182  -0.44249  -0.43254  -0.42028  -0.37091
  Beta  occ. eigenvalues --   -0.35450  -0.33106  -0.30976  -0.28784  -0.28129
  Beta  occ. eigenvalues --   -0.26411  -0.26121  -0.25529  -0.25169  -0.23371
  Beta  occ. eigenvalues --   -0.22923  -0.21913  -0.20281  -0.17846  -0.11413
  Beta  occ. eigenvalues --   -0.10943  -0.09771  -0.08846
  Beta virt. eigenvalues --    0.06966   0.10469   0.10720   0.10897   0.11389
  Beta virt. eigenvalues --    0.12596   0.12703   0.12756   0.13780   0.14884
  Beta virt. eigenvalues --    0.15381   0.17250   0.17733   0.18312   0.18995

 Mulliken charges and spin densities:
               1          2
     1  C   -0.043979   0.245039
     2  C   -0.086234   0.235847
     3  C   -0.193982   0.152690
     4  O   -0.448264   0.160421
     5  N    0.151589  -0.058003
     6  C   -0.189239   0.142305
     7  O   -0.438994   0.164979
     8  C   -0.362369  -0.005250
     9  C    0.014113  -0.005037
    10  C   -0.143007   0.001260
    11  N   -0.291209   0.000680
    12  N   -0.271901  -0.000472
    13  H    0.117833  -0.018109
    14  H    0.115177  -0.017314
    15  H    0.188738  -0.002549
    16  H    0.194890  -0.001370
    17  H    0.243814   0.005056
    18  H    0.231072  -0.000037
    19  H    0.211950  -0.000136
 Sum of Mulliken charges =  -1.00000   1.00000

 Dipole moment (field-independent basis, Debye):
    X=             -5.4383    Y=             -1.0928    Z=             -1.3103  Tot=              5.6997
 Quadrupole moment (field-independent basis, Debye-Ang):
   XX=            -79.4915   YY=           -100.6120   ZZ=            -84.4662
   XY=              0.5121   XZ=              3.2437   YZ=             -1.6038

 Summary of Natural Population Analysis:

                                       Natural Population
                Natural  -----------------------------------------------
    Atom  No    Charge         Core      Valence    Rydberg      Total
 -----------------------------------------------------------------------
      C    1   -0.07153      0.99950     2.06337    0.00865     3.07153
      C    2   -0.07836      0.99951     2.07011    0.00875     3.07836
      C    3    0.36147      0.99968     1.61427    0.02458     2.63853
      O    4   -0.27766      0.99987     3.27166    0.00613     4.27766
      N    5   -0.29795      0.99960     2.78776    0.01059     3.79795
      C    6    0.36102      0.99968     1.61486    0.02445     2.63898
      O    7   -0.26650      0.99987     3.26035    0.00628     4.26650
      C    8   -0.07787      0.99961     2.06633    0.01193     3.07787
      C    9   -0.07606      0.99952     2.06406    0.01248     3.07606
      C   10    0.14646      0.99965     1.83280    0.02109     2.85354
      N   11   -0.18082      0.99979     2.66905    0.01198     3.68082
      N   12   -0.40810      0.99977     2.89940    0.00892     3.90810
      H   13    0.08999      0.00000     0.40897    0.00104     0.41001
      H   14    0.08988      0.00000     0.40909    0.00104     0.41012
      H   15    0.10858      0.00000     0.38992    0.00149     0.39142
      H   16    0.10204      0.00000     0.39691    0.00105     0.39796
      H   17    0.12533      0.00000     0.37266    0.00200     0.37467
      H   18    0.17520      0.00000     0.32333    0.00147     0.32480
      H   19    0.17487      0.00000     0.32357    0.00155     0.32513
 =======================================================================
   * Total *    0.00000     11.99605    30.83847    0.16548    43.00000

 Normal termination of Gaussian 16 at Wed Dec  9 17:58:29 2020.
