 Gaussian 16, Revision A.03,

 -----------------------------------------------------------
 # opt freq B3LYP/6-31G(d) empiricaldispersion=gd3bj scf=xqc
 -----------------------------------------------------------

 -------------------------------
 CID_60545396_JID_10824_neutraal
 -------------------------------
 Symbolic Z-matrix:
 Charge =  0 Multiplicity = 1

 SCF Done:  E(RB3LYP) =  -1619.33705886     A.U. after   15 cycles
 SCF Done:  E(RB3LYP) =  -1619.34462849     A.U. after   13 cycles
 SCF Done:  E(RB3LYP) =  -1619.34639435     A.U. after   14 cycles
 SCF Done:  E(RB3LYP) =  -1619.34861814     A.U. after   14 cycles
 SCF Done:  E(RB3LYP) =  -1619.35121863     A.U. after   15 cycles
 SCF Done:  E(RB3LYP) =  -1619.35137904     A.U. after   15 cycles
 SCF Done:  E(RB3LYP) =  -1619.35081180     A.U. after   14 cycles
 SCF Done:  E(RB3LYP) =  -1619.35239659     A.U. after   13 cycles
 SCF Done:  E(RB3LYP) =  -1619.35359234     A.U. after   14 cycles
 SCF Done:  E(RB3LYP) =  -1619.35433438     A.U. after   12 cycles
 SCF Done:  E(RB3LYP) =  -1619.35544012     A.U. after   10 cycles
 SCF Done:  E(RB3LYP) =  -1619.35544240     A.U. after   10 cycles
 SCF Done:  E(RB3LYP) =  -1619.35544309     A.U. after    9 cycles
 SCF Done:  E(RB3LYP) =  -1619.35544349     A.U. after    8 cycles
 SCF Done:  E(RB3LYP) =  -1619.35544360     A.U. after    8 cycles
 Optimization completed.
    -- Stationary point found.
 Normal termination of Gaussian 16 at Sun Dec 13 17:05:12 2020.

 --------------------------------------------------------------------
 #N Geom=AllCheck Guess=TCheck SCRF=Check GenChk RB3LYP/6-31G(d) Freq
 --------------------------------------------------------------------

 Structure from the checkpoint file:  "JID_10824.chk"
 -------------------------------
 CID_60545396_JID_10824_neutraal
 -------------------------------
 Charge =  0 Multiplicity = 1

 SCF Done:  E(RB3LYP) =  -1619.35544360     A.U. after    1 cycles

  Exact polarizability: 195.719  39.534 206.249  22.779  -9.855 161.267
 Approx polarizability: 283.617  72.246 335.531  52.709 -19.163 304.385

                      1                      2                      3
                      A                      A                      A
 Frequencies --     16.9105                30.4905                50.0308
 Red. masses --      7.0676                 5.3783                 5.2464
 Frc consts  --      0.0012                 0.0029                 0.0077
 IR Inten    --      0.7580                 0.4986                 1.5829

                      4                      5                      6
                      A                      A                      A
 Frequencies --     66.5014                69.6056                93.5612
 Red. masses --      6.4036                 4.4109                 5.8882
 Frc consts  --      0.0167                 0.0126                 0.0304
 IR Inten    --      4.6465                 0.4321                 9.5434

                      7                      8                      9
                      A                      A                      A
 Frequencies --     97.8794               109.2833               147.3765
 Red. masses --      5.1664                 6.8169                 4.9044
 Frc consts  --      0.0292                 0.0480                 0.0628
 IR Inten    --      1.0951                 0.9853                 4.0865

                     10                     11                     12
                      A                      A                      A
 Frequencies --    163.1115               200.4948               236.7798
 Red. masses --      5.2987                 6.3410                 1.1283
 Frc consts  --      0.0831                 0.1502                 0.0373
 IR Inten    --      1.5457                 3.3831                 1.0566

                     13                     14                     15
                      A                      A                      A
 Frequencies --    264.5758               267.6867               297.0270
 Red. masses --      4.3504                 3.7090                 3.1677
 Frc consts  --      0.1794                 0.1566                 0.1647
 IR Inten    --      1.0283                 5.0524                 2.9095

                     16                     17                     18
                      A                      A                      A
 Frequencies --    311.5461               315.7251               335.8415
 Red. masses --      5.5999                 4.4378                 5.6594
 Frc consts  --      0.3202                 0.2606                 0.3761
 IR Inten    --      1.0460                 1.0672                 3.8037

                     19                     20                     21
                      A                      A                      A
 Frequencies --    351.4290               419.6992               422.5523
 Red. masses --      3.8376                 3.0466                 3.5112
 Frc consts  --      0.2792                 0.3162                 0.3694
 IR Inten    --      0.2103                 2.1914                19.4984

                     22                     23                     24
                      A                      A                      A
 Frequencies --    444.5428               463.6320               466.4013
 Red. masses --      3.6895                 8.1034                 4.7579
 Frc consts  --      0.4296                 1.0263                 0.6098
 IR Inten    --      9.7201                21.7856                 0.8517

                     25                     26                     27
                      A                      A                      A
 Frequencies --    518.0762               535.6466               546.5911
 Red. masses --      3.6314                 4.4310                 4.4779
 Frc consts  --      0.5743                 0.7490                 0.7882
 IR Inten    --      2.2619                11.1799                 4.4144

                     28                     29                     30
                      A                      A                      A
 Frequencies --    604.5988               633.4287               646.2416
 Red. masses --      5.7382                 6.1092                 3.5336
 Frc consts  --      1.2358                 1.4442                 0.8695
 IR Inten    --     27.5086                 0.9371                 9.4971

                     31                     32                     33
                      A                      A                      A
 Frequencies --    663.4730               677.7591               710.4006
 Red. masses --      3.0382                 5.4248                 5.4981
 Frc consts  --      0.7880                 1.4682                 1.6348
 IR Inten    --      7.1295                13.0084                14.7531

                     34                     35                     36
                      A                      A                      A
 Frequencies --    714.1465               723.2375               724.8313
 Red. masses --      1.9364                 3.5202                 1.5244
 Frc consts  --      0.5819                 1.0849                 0.4719
 IR Inten    --     24.9844                23.8868                55.1662

                     37                     38                     39
                      A                      A                      A
 Frequencies --    755.7001               774.4409               794.1439
 Red. masses --      1.4394                 3.0342                 2.7111
 Frc consts  --      0.4843                 1.0722                 1.0074
 IR Inten    --     42.2010                97.3308                12.0390

                     40                     41                     42
                      A                      A                      A
 Frequencies --    842.9555               862.4185               862.4726
 Red. masses --      4.8115                 1.4896                 1.7346
 Frc consts  --      2.0144                 0.6528                 0.7602
 IR Inten    --     15.0613                12.2920                22.1833

                     43                     44                     45
                      A                      A                      A
 Frequencies --    899.5628               912.4442               935.9212
 Red. masses --      1.3206                 4.3952                 1.4409
 Frc consts  --      0.6296                 2.1560                 0.7436
 IR Inten    --      2.2847                 7.0535                 2.8289

                     46                     47                     48
                      A                      A                      A
 Frequencies --    960.2298               972.9494               984.1527
 Red. masses --      1.8669                 1.3475                 1.8795
 Frc consts  --      1.0142                 0.7515                 1.0725
 IR Inten    --      4.5522                 0.0586                56.1485

                     49                     50                     51
                      A                      A                      A
 Frequencies --    998.6730              1000.2333              1016.4017
 Red. masses --      1.3825                 1.2578                 1.8237
 Frc consts  --      0.8124                 0.7414                 1.1100
 IR Inten    --      2.6193                 0.4318                 2.0515

                     52                     53                     54
                      A                      A                      A
 Frequencies --   1021.8835              1058.5890              1068.7929
 Red. masses --      6.0138                 2.5648                 2.8565
 Frc consts  --      3.7000                 1.6934                 1.9226
 IR Inten    --      0.7180                 1.1283                15.1676

                     55                     56                     57
                      A                      A                      A
 Frequencies --   1109.7866              1115.9195              1118.9894
 Red. masses --      1.7723                 2.4080                 1.9821
 Frc consts  --      1.2861                 1.7668                 1.4622
 IR Inten    --      4.6748                91.7675                52.1838

                     58                     59                     60
                      A                      A                      A
 Frequencies --   1144.8674              1170.1820              1196.0144
 Red. masses --      2.1798                 2.6057                 1.0964
 Frc consts  --      1.6834                 2.1022                 0.9241
 IR Inten    --      8.3566                15.1454                 0.0250

                     61                     62                     63
                      A                      A                      A
 Frequencies --   1203.1576              1218.9540              1264.4349
 Red. masses --      1.2983                 1.1362                 1.7315
 Frc consts  --      1.1074                 0.9947                 1.6310
 IR Inten    --     34.9873                 0.9699                35.6055

                     64                     65                     66
                      A                      A                      A
 Frequencies --   1293.8675              1312.8042              1337.7088
 Red. masses --      2.2680                 4.2601                 2.6549
 Frc consts  --      2.2371                 4.3258                 2.7991
 IR Inten    --      8.8230               148.9227                 2.3141

                     67                     68                     69
                      A                      A                      A
 Frequencies --   1347.7787              1365.4363              1371.8392
 Red. masses --      1.3638                 2.6473                 1.7898
 Frc consts  --      1.4596                 2.9080                 1.9845
 IR Inten    --     38.7580                73.1312                42.2967

                     70                     71                     72
                      A                      A                      A
 Frequencies --   1390.3627              1417.4084              1436.7917
 Red. masses --      1.2006                 2.1663                 1.9661
 Frc consts  --      1.3675                 2.5642                 2.3913
 IR Inten    --     12.0984                11.1341                41.4026

                     73                     74                     75
                      A                      A                      A
 Frequencies --   1473.9731              1478.2926              1487.4480
 Red. masses --      3.5038                 1.0983                 1.4097
 Frc consts  --      4.4850                 1.4141                 1.8377
 IR Inten    --     97.6804                 3.7828                34.6661

                     76                     77                     78
                      A                      A                      A
 Frequencies --   1488.0052              1498.1317              1499.4212
 Red. masses --      1.1455                 1.2645                 1.8310
 Frc consts  --      1.4943                 1.6722                 2.4254
 IR Inten    --      7.8325                 7.4673                22.2316

                     79                     80                     81
                      A                      A                      A
 Frequencies --   1522.7161              1545.6503              1589.1819
 Red. masses --      1.1559                 2.3990                 6.2577
 Frc consts  --      1.5791                 3.3768                 9.3113
 IR Inten    --     22.6448                13.1700                13.7227

                     82                     83                     84
                      A                      A                      A
 Frequencies --   1638.1399              1664.9408              1733.2662
 Red. masses --      5.4461                 5.5488                 7.8775
 Frc consts  --      8.6106                 9.0625                13.9434
 IR Inten    --      2.1254                 1.4294               287.5112

                     85                     86                     87
                      A                      A                      A
 Frequencies --   3080.5790              3088.5990              3122.4986
 Red. masses --      1.0302                 1.0582                 1.0624
 Frc consts  --      5.7601                 5.9475                 6.1029
 IR Inten    --      4.8352                 2.5238                 6.6369

                     88                     89                     90
                      A                      A                      A
 Frequencies --   3147.6373              3170.5961              3181.9598
 Red. masses --      1.1042                 1.1063                 1.1058
 Frc consts  --      6.4457                 6.5527                 6.5967
 IR Inten    --      2.5933                 2.6485                 0.6693

                     91                     92                     93
                      A                      A                      A
 Frequencies --   3186.1142              3189.1631              3193.9351
 Red. masses --      1.0855                 1.1092                 1.0879
 Frc consts  --      6.4925                 6.6471                 6.5390
 IR Inten    --      3.2404                11.2584                 1.5403

                     94                     95                     96
                      A                      A                      A
 Frequencies --   3202.9586              3212.8299              3222.1128
 Red. masses --      1.0922                 1.0954                 1.0955
 Frc consts  --      6.6014                 6.6620                 6.7009
 IR Inten    --     20.8551                27.0439                 5.3206

                     97                     98                     99
                      A                      A                      A
 Frequencies --   3227.5341              3270.1295              3567.8857
 Red. masses --      1.0908                 1.0971                 1.0754
 Frc consts  --      6.6945                 6.9121                 8.0659
 IR Inten    --      3.7200                 0.2080                50.9501

 - Thermochemistry -
 -------------------
 Temperature   298.150 Kelvin.  Pressure   1.00000 Atm.
 Atom     1 has atomic number  6 and mass  12.00000

 Molecular mass:   309.04934 amu.
 Principal axes and moments of inertia in atomic units:
                           1         2         3
     Eigenvalues --  4462.205108500.15831**********
           X            0.99966   0.02520   0.00697
           Y           -0.02510   0.99958  -0.01444
           Z           -0.00733   0.01426   0.99987
 This molecule is an asymmetric top.
 Rotational symmetry number  1.
 Warning -- assumption of classical behavior for rotation
           may cause significant error
 Rotational temperatures (Kelvin)      0.01941     0.01019     0.00815
 Rotational constants (GHZ):           0.40445     0.21232     0.16980
 Zero-point vibrational energy     715146.1 (Joules/Mol)
                                  170.92401 (Kcal/Mol)
 Warning -- explicit consideration of  28 degrees of freedom as
           vibrations may cause significant error
 Vibrational temperatures:     24.33    43.87    71.98    95.68   100.15
          (Kelvin)            134.61   140.83   157.23   212.04   234.68
                              288.47   340.67   380.67   385.14   427.36
                              448.25   454.26   483.20   505.63   603.85
                              607.96   639.60   667.06   671.05   745.40
                              770.68   786.42   869.88   911.36   929.80
                              954.59   975.14  1022.11  1027.50  1040.58
                             1042.87  1087.28  1114.25  1142.60  1212.82
                             1240.83  1240.91  1294.27  1312.80  1346.58
                             1381.56  1399.86  1415.98  1436.87  1439.11
                             1462.38  1470.26  1523.07  1537.75  1596.74
                             1605.56  1609.98  1647.21  1683.63  1720.80
                             1731.08  1753.80  1819.24  1861.59  1888.83
                             1924.66  1939.15  1964.56  1973.77  2000.42
                             2039.33  2067.22  2120.72  2126.93  2140.11
                             2140.91  2155.48  2157.33  2190.85  2223.85
                             2286.48  2356.92  2395.48  2493.78  4432.27
                             4443.81  4492.58  4528.75  4561.78  4578.13
                             4584.11  4588.49  4595.36  4608.34  4622.55
                             4635.90  4643.70  4704.99  5133.39

 Zero-point correction=                           0.272385 (Hartree/Particle)
 Thermal correction to Energy=                    0.291150
 Thermal correction to Enthalpy=                  0.292094
 Thermal correction to Gibbs Free Energy=         0.223324
 Sum of electronic and zero-point Energies=          -1619.083059
 Sum of electronic and thermal Energies=             -1619.064294
 Sum of electronic and thermal Enthalpies=           -1619.063350
 Sum of electronic and thermal Free Energies=        -1619.132120

                     E (Thermal)             CV                S
                      KCal/Mol        Cal/Mol-Kelvin    Cal/Mol-Kelvin
 Total                  182.699             71.443            144.738
 Electronic               0.000              0.000              0.000
 Translational            0.889              2.981             43.081
 Rotational               0.889              2.981             34.354
 Vibrational            180.922             65.481             67.303
 Vibration     1          0.593              1.986              6.967
 Vibration     2          0.594              1.984              5.797
 Vibration     3          0.595              1.978              4.816
 Vibration     4          0.598              1.970              4.254
 Vibration     5          0.598              1.969              4.164
 Vibration     6          0.603              1.954              3.584
 Vibration     7          0.603              1.951              3.496
 Vibration     8          0.606              1.942              3.282
 Vibration     9          0.617              1.906              2.706
 Vibration    10          0.623              1.888              2.513
 Vibration    11          0.638              1.839              2.129
 Vibration    12          0.656              1.784              1.827
 Vibration    13          0.671              1.738              1.631
 Vibration    14          0.673              1.732              1.611
 Vibration    15          0.691              1.679              1.434
 Vibration    16          0.700              1.652              1.354
 Vibration    17          0.703              1.644              1.332
 Vibration    18          0.717              1.604              1.232
 Vibration    19          0.728              1.572              1.160
 Vibration    20          0.782              1.427              0.893
 Vibration    21          0.785              1.421              0.883
 Vibration    22          0.804              1.373              0.812
 Vibration    23          0.821              1.331              0.756
 Vibration    24          0.824              1.325              0.748
 Vibration    25          0.873              1.210              0.614
 Vibration    26          0.891              1.171              0.575
 Vibration    27          0.902              1.147              0.551
 Vibration    28          0.963              1.022              0.442

 Optimization completed.
    -- Stationary point found.
 Normal termination of Gaussian 16 at Sun Dec 13 17:25:38 2020.

 ----------------------------------------------------------------------
 # B3LYP/6-311++G(d,p) empiricaldispersion=gd3bj scf=xqc pop=npa geom=c
 heck
 ----------------------------------------------------------------------

 ---------------------------------------
 CID_60545396_JID_10824_Energie_neutraal
 ---------------------------------------
 Structure from the checkpoint file:  "JID_10824.chk"
 Charge =  0 Multiplicity = 1

 SCF Done:  E(RB3LYP) =  -1619.63805545     A.U. after   16 cycles
 Normal termination of Gaussian 16 at Sun Dec 13 17:33:42 2020.

 ----------------------------------------------------------------------
 # B3LYP/6-311++G(d,p) empiricaldispersion=gd3bj scf=xqc pop=npa geom=c
 heck
 ----------------------------------------------------------------------

 -------------------------------------
 CID_60545396_JID_10824_Energie_kation
 -------------------------------------
 Structure from the checkpoint file:  "JID_10824.chk"
 Charge =  1 Multiplicity = 2

 SCF Done:  E(UB3LYP) =  -1619.32861755     A.U. after   33 cycles
 SCF Done:  E(UB3LYP) =  -1619.32861755     a.u. after    1 cycles
 Normal termination of Gaussian 16 at Sun Dec 13 17:57:17 2020.
 Gaussian 16:  ES64L-G16RevA.03 25-Dec-2016

 ----------------------------------------------------------------------
 # B3LYP/6-311++G(d,p) empiricaldispersion=gd3bj scf=xqc pop=npa geom=c
 heck
 ----------------------------------------------------------------------

 ------------------------------------
 CID_60545396_JID_10824_Energie_anion
 ------------------------------------
 Structure from the checkpoint file:  "JID_10824.chk"
 Charge = -1 Multiplicity = 2

                         Standard orientation:
 ---------------------------------------------------------------------
 Center     Atomic      Atomic             Coordinates (Angstroms)
 Number     Number       Type             X           Y           Z
 ---------------------------------------------------------------------
      1          6           0        3.616938    0.587042    0.425692
      2         16           0        3.293248   -0.968451   -0.430826
      3          8           0        4.234263   -1.059614   -1.557876
      4          8           0        3.231342   -2.039534    0.583757
      5          6           0        1.614870   -0.782442   -1.140612
      6          6           0        0.529106   -1.350232   -0.225619
      7          7           0        0.509770   -0.739479    1.098930
      8          6           0        0.296937    0.589812    1.362837
      9          8           0        0.829382    1.140694    2.327489
     10          6           0       -0.548337    1.370109    0.422119
     11          6           0       -1.729019    1.091292   -0.247426
     12          6           0       -2.138595    2.190925   -1.071882
     13          6           0       -1.294391    3.263676   -1.004150
     14         16           0        0.018229    2.987369    0.084328
     15          6           0       -2.527005   -0.143768   -0.118102
     16          6           0       -3.131955   -0.712769   -1.251091
     17          6           0       -3.880198   -1.883543   -1.144733
     18          6           0       -4.039710   -2.501528    0.096318
     19          6           0       -3.451666   -1.937964    1.230497
     20          6           0       -2.704588   -0.767539    1.126852
     21          1           0        4.628790    0.492502    0.826838
     22          1           0        2.899903    0.739814    1.234647
     23          1           0        3.577814    1.403406   -0.298388
     24          1           0        1.460692    0.278934   -1.357731
     25          1           0        1.663164   -1.328316   -2.087570
     26          1           0       -0.441441   -1.240864   -0.710331
     27          1           0        0.702246   -2.416915   -0.075600
     28          1           0        1.159539   -1.155673    1.758684
     29          1           0       -3.051236    2.179609   -1.656679
     30          1           0       -1.386158    4.212438   -1.515642
     31          1           0       -2.993865   -0.243895   -2.221330
     32          1           0       -4.335011   -2.314686   -2.031922
     33          1           0       -4.622382   -3.414198    0.180355
     34          1           0       -3.581639   -2.407063    2.201404
     35          1           0       -2.266663   -0.322228    2.013561
 ---------------------------------------------------------------------

 SCF Done:  E(UB3LYP) =  -1619.66169327     A.U. after   24 cycles

 The electronic state is 2-A.
 Alpha  occ. eigenvalues --  -88.95092 -88.73395 -19.02007 -19.01958 -18.95115
 Alpha  occ. eigenvalues --  -14.20855 -10.13261 -10.11333 -10.11009 -10.10927
 Alpha  occ. eigenvalues --  -10.06278 -10.06244 -10.05981 -10.05974 -10.05523
 Alpha  occ. eigenvalues --  -10.05383 -10.05307 -10.05116 -10.04964 -10.04518
 Alpha  occ. eigenvalues --   -8.01594  -7.82057  -5.97858  -5.97750  -5.97688
 Alpha  occ. eigenvalues --   -5.78352  -5.77985  -5.77687  -1.01188  -0.90965
 Alpha  occ. eigenvalues --   -0.90591  -0.80476  -0.75478  -0.73531  -0.70065
 Alpha  occ. eigenvalues --   -0.66340  -0.65245  -0.63262  -0.60870  -0.58864
 Alpha  occ. eigenvalues --   -0.57069  -0.51020  -0.49510  -0.49216  -0.48155
 Alpha  occ. eigenvalues --   -0.43078  -0.42392  -0.41398  -0.40817  -0.39323
 Alpha  occ. eigenvalues --   -0.38357  -0.37735  -0.36800  -0.34631  -0.34416
 Alpha  occ. eigenvalues --   -0.33738  -0.33659  -0.33342  -0.31691  -0.31146
 Alpha  occ. eigenvalues --   -0.30945  -0.28786  -0.28492  -0.27882  -0.26883
 Alpha  occ. eigenvalues --   -0.26383  -0.24873  -0.24230  -0.23787  -0.23480
 Alpha  occ. eigenvalues --   -0.22738  -0.22653  -0.21161  -0.20928  -0.19826
 Alpha  occ. eigenvalues --   -0.15791  -0.15093  -0.14095  -0.13160  -0.11670
 Alpha  occ. eigenvalues --   -0.10579   0.03021
 Alpha virt. eigenvalues --    0.07353   0.08014   0.08579   0.09063   0.09466
 Alpha virt. eigenvalues --    0.09760   0.09954   0.10365   0.10922   0.11337
 Alpha virt. eigenvalues --    0.11599   0.12296   0.12504   0.13211   0.13372

  Beta  occ. eigenvalues --  -88.95092 -88.73318 -19.02005 -19.01957 -18.94878
  Beta  occ. eigenvalues --  -14.20824 -10.13066 -10.11331 -10.11000 -10.10923
  Beta  occ. eigenvalues --  -10.06280 -10.06061 -10.06015 -10.05908 -10.05426
  Beta  occ. eigenvalues --  -10.05195 -10.05047 -10.05032 -10.05031 -10.04327
  Beta  occ. eigenvalues --   -8.01593  -7.81988  -5.97857  -5.97749  -5.97686
  Beta  occ. eigenvalues --   -5.78303  -5.77944  -5.77454  -1.01185  -0.90944
  Beta  occ. eigenvalues --   -0.90178  -0.80301  -0.75163  -0.73309  -0.70039
  Beta  occ. eigenvalues --   -0.66311  -0.64884  -0.63104  -0.60415  -0.58494
  Beta  occ. eigenvalues --   -0.56987  -0.50695  -0.49348  -0.49073  -0.47878
  Beta  occ. eigenvalues --   -0.42918  -0.42152  -0.41291  -0.40767  -0.39188
  Beta  occ. eigenvalues --   -0.38323  -0.37673  -0.36590  -0.34565  -0.34365
  Beta  occ. eigenvalues --   -0.33596  -0.33559  -0.33276  -0.31422  -0.31059
  Beta  occ. eigenvalues --   -0.30892  -0.28641  -0.28198  -0.27216  -0.26643
  Beta  occ. eigenvalues --   -0.25918  -0.24583  -0.23744  -0.23668  -0.23190
  Beta  occ. eigenvalues --   -0.22716  -0.22365  -0.21150  -0.20583  -0.19795
  Beta  occ. eigenvalues --   -0.14858  -0.14529  -0.13645  -0.12652  -0.10907
  Beta  occ. eigenvalues --   -0.09028
  Beta virt. eigenvalues --    0.07325   0.07903   0.08194   0.08564   0.09086
  Beta virt. eigenvalues --    0.09522   0.09910   0.10240   0.10801   0.11115
  Beta virt. eigenvalues --    0.11496   0.11649   0.12277   0.12628   0.13204

 Mulliken charges and spin densities:
               1          2
     1  C   -0.616305  -0.038376
     2  S    0.349896   0.014232
     3  O   -0.177110  -0.000901
     4  O   -0.254084   0.000691
     5  C   -0.844803  -0.010356
     6  C   -0.016970   0.007534
     7  N   -0.206383   0.030643
     8  C   -0.991674   0.079211
     9  O   -0.335581   0.077855
    10  C    0.618161   0.133347
    11  C    0.444127   0.150003
    12  C   -0.074744  -0.040635
    13  C   -0.353740   0.124742
    14  S   -0.316189   0.167386
    15  C    0.584816  -0.025460
    16  C   -0.314066   0.092183
    17  C   -0.417811  -0.018524
    18  C   -0.376739   0.139579
    19  C   -0.260570  -0.021328
    20  C   -0.421979   0.104830
    21  H    0.208844   0.003824
    22  H    0.245331   0.022838
    23  H    0.189049   0.011321
    24  H    0.268538   0.006380
    25  H    0.236619  -0.002517
    26  H    0.244001  -0.006495
    27  H    0.203408   0.011265
    28  H    0.357488   0.002034
    29  H    0.113059   0.004386
    30  H    0.199355  -0.009325
    31  H    0.136446  -0.001521
    32  H    0.139116   0.001855
    33  H    0.110268  -0.011574
    34  H    0.144551   0.001730
    35  H    0.185673  -0.000855
 Sum of Mulliken charges =  -1.00000   1.00000

 Dipole moment (field-independent basis, Debye):
    X=             -0.0672    Y=             -0.8539    Z=             -2.9600  Tot=              3.0814
 Quadrupole moment (field-independent basis, Debye-Ang):
   XX=           -183.5279   YY=           -161.8228   ZZ=           -152.1855
   XY=             10.5971   XZ=              5.5266   YZ=             -6.5192

 Summary of Natural Population Analysis:

                                       Natural Population
                Natural  -----------------------------------------------
    Atom  No    Charge         Core      Valence    Rydberg      Total
 -----------------------------------------------------------------------
      C    1   -0.39729      0.99960     2.38941    0.00828     3.39729
      S    2    1.01277      4.99934     1.89380    0.09410     6.98723
      O    3   -0.47451      0.99991     3.46896    0.00563     4.47451
      O    4   -0.47564      0.99991     3.46982    0.00591     4.47564
      C    5   -0.29053      0.99957     2.28235    0.00861     3.29053
      C    6   -0.10435      0.99961     2.09031    0.01443     3.10435
      N    7   -0.32364      0.99967     2.81161    0.01236     3.82364
      C    8    0.34655      0.99958     1.63060    0.02327     2.65345
      O    9   -0.31192      0.99988     3.30661    0.00543     4.31192
      C   10   -0.09822      0.99941     2.08349    0.01533     3.09822
      C   11   -0.01942      0.99943     2.00722    0.01276     3.01942
      C   12   -0.14379      0.99951     2.13560    0.00869     3.14379
      C   13   -0.16184      0.99955     2.15110    0.01118     3.16184
      S   14    0.23675      4.99943     2.74169    0.02213     7.76325
      C   15   -0.01959      0.99949     2.00888    0.01122     3.01959
      C   16   -0.08314      0.99953     2.07584    0.00777     3.08314
      C   17   -0.11795      0.99957     2.10926    0.00912     3.11795
      C   18   -0.07892      0.99957     2.06984    0.00951     3.07892
      C   19   -0.11353      0.99957     2.10492    0.00904     3.11353
      C   20   -0.07205      0.99952     2.06456    0.00796     3.07205
      H   21    0.11350      0.00000     0.38554    0.00096     0.38650
      H   22    0.13393      0.00000     0.36464    0.00143     0.36607
      H   23    0.11287      0.00000     0.38505    0.00208     0.38713
      H   24    0.12170      0.00000     0.37711    0.00119     0.37830
      H   25    0.11529      0.00000     0.38366    0.00105     0.38471
      H   26    0.11713      0.00000     0.38151    0.00136     0.38287
      H   27    0.10416      0.00000     0.39493    0.00092     0.39584
      H   28    0.19427      0.00000     0.30421    0.00152     0.30573
      H   29    0.10026      0.00000     0.39863    0.00110     0.39974
      H   30    0.09840      0.00000     0.40072    0.00088     0.40160
      H   31    0.09611      0.00000     0.40257    0.00131     0.40389
      H   32    0.09294      0.00000     0.40605    0.00101     0.40706
      H   33    0.09052      0.00000     0.40847    0.00101     0.40948
      H   34    0.09459      0.00000     0.40445    0.00096     0.40541
      H   35    0.10460      0.00000     0.39425    0.00116     0.39540
 =======================================================================
   * Total *   -0.00000     27.99166    52.68766    0.32067    81.00000

 Normal termination of Gaussian 16 at Sun Dec 13 18:14:20 2020.
