 Gaussian 16, Revision A.03,

 -----------------------------------------------------------
 # opt freq B3LYP/6-31G(d) empiricaldispersion=gd3bj scf=xqc
 -----------------------------------------------------------

 ------------------------------
 CID_62641585_JID_8884_neutraal
 ------------------------------
 Symbolic Z-matrix:
 Charge =  0 Multiplicity = 1

 SCF Done:  E(RB3LYP) =  -770.810480840     A.U. after   14 cycles
 SCF Done:  E(RB3LYP) =  -770.816625568     A.U. after   12 cycles
 SCF Done:  E(RB3LYP) =  -770.817732478     A.U. after   12 cycles
 SCF Done:  E(RB3LYP) =  -770.818840631     A.U. after   12 cycles
 SCF Done:  E(RB3LYP) =  -770.819278773     A.U. after   12 cycles
 SCF Done:  E(RB3LYP) =  -770.819102126     A.U. after   12 cycles
 SCF Done:  E(RB3LYP) =  -770.819770475     A.U. after   11 cycles
 SCF Done:  E(RB3LYP) =  -770.819879612     A.U. after   11 cycles
 SCF Done:  E(RB3LYP) =  -770.819899720     A.U. after   11 cycles
 SCF Done:  E(RB3LYP) =  -770.819936597     A.U. after   10 cycles
 SCF Done:  E(RB3LYP) =  -770.820232006     A.U. after    9 cycles
 SCF Done:  E(RB3LYP) =  -770.820237606     A.U. after    9 cycles
 SCF Done:  E(RB3LYP) =  -770.820237827     A.U. after    7 cycles
 SCF Done:  E(RB3LYP) =  -770.820237863     A.U. after    6 cycles
 SCF Done:  E(RB3LYP) =  -770.820237872     A.U. after    6 cycles
 Optimization completed.
    -- Stationary point found.
 Normal termination of Gaussian 16 at Fri Dec 11 23:22:19 2020.

 --------------------------------------------------------------------
 #N Geom=AllCheck Guess=TCheck SCRF=Check GenChk RB3LYP/6-31G(d) Freq
 --------------------------------------------------------------------

 Structure from the checkpoint file:  "JID_8884.chk"
 ------------------------------
 CID_62641585_JID_8884_neutraal
 ------------------------------
 Charge =  0 Multiplicity = 1

 SCF Done:  E(RB3LYP) =  -770.820237872     A.U. after    1 cycles

  Exact polarizability: 212.438   3.713 165.737   0.076  -2.716 124.909
 Approx polarizability: 275.502   1.201 268.387  -1.296 -12.605 185.574

                      1                      2                      3
                      A                      A                      A
 Frequencies --     25.1522                35.9666                50.2532
 Red. masses --      4.3022                 3.8086                 4.0395
 Frc consts  --      0.0016                 0.0029                 0.0060
 IR Inten    --      0.1739                 0.4158                 0.0466

                      4                      5                      6
                      A                      A                      A
 Frequencies --     56.8834                87.7831               108.4346
 Red. masses --      3.7531                 2.5491                 3.1393
 Frc consts  --      0.0072                 0.0116                 0.0217
 IR Inten    --      0.3283                 0.1446                 0.3284

                      7                      8                      9
                      A                      A                      A
 Frequencies --    132.5867               152.6404               171.3670
 Red. masses --      3.4345                 3.2239                 2.2999
 Frc consts  --      0.0356                 0.0443                 0.0398
 IR Inten    --      0.4642                 0.5100                 1.8835

                     10                     11                     12
                      A                      A                      A
 Frequencies --    189.8821               232.0717               248.3217
 Red. masses --      2.6411                 3.3345                 2.9826
 Frc consts  --      0.0561                 0.1058                 0.1084
 IR Inten    --      0.4303                 0.4949                 1.2613

                     13                     14                     15
                      A                      A                      A
 Frequencies --    279.2460               298.7974               314.5338
 Red. masses --      1.0998                 3.0363                 2.0087
 Frc consts  --      0.0505                 0.1597                 0.1171
 IR Inten    --      3.1234                 0.3036                12.8512

                     16                     17                     18
                      A                      A                      A
 Frequencies --    330.5007               339.1738               373.8524
 Red. masses --      2.2579                 1.8195                 2.4657
 Frc consts  --      0.1453                 0.1233                 0.2030
 IR Inten    --     13.5763                33.9517                 4.7674

                     19                     20                     21
                      A                      A                      A
 Frequencies --    390.1260               419.6618               421.0235
 Red. masses --      2.3054                 1.9900                 2.9395
 Frc consts  --      0.2067                 0.2065                 0.3070
 IR Inten    --     85.6959                 7.3192                 4.8252

                     22                     23                     24
                      A                      A                      A
 Frequencies --    441.3324               529.9005               532.3817
 Red. masses --      2.8467                 2.9667                 2.5622
 Frc consts  --      0.3267                 0.4908                 0.4279
 IR Inten    --      5.8585                 3.1437                 3.2248

                     25                     26                     27
                      A                      A                      A
 Frequencies --    569.9589               593.9068               605.6285
 Red. masses --      3.1166                 3.1766                 3.5419
 Frc consts  --      0.5965                 0.6602                 0.7654
 IR Inten    --     13.6777                 5.4436                17.8733

                     28                     29                     30
                      A                      A                      A
 Frequencies --    637.4440               639.1518               723.8735
 Red. masses --      5.1459                 3.1914                 1.8867
 Frc consts  --      1.2320                 0.7681                 0.5825
 IR Inten    --      0.4791                 0.2408                19.9031

                     31                     32                     33
                      A                      A                      A
 Frequencies --    734.8560               745.2726               782.8329
 Red. masses --      4.3933                 1.5702                 1.7478
 Frc consts  --      1.3978                 0.5139                 0.6311
 IR Inten    --      0.4879                59.4217                14.4332

                     34                     35                     36
                      A                      A                      A
 Frequencies --    786.1560               816.1630               860.6756
 Red. masses --      1.4036                 1.6567                 2.4351
 Frc consts  --      0.5111                 0.6502                 1.0628
 IR Inten    --     28.3960                16.9436                 5.3703

                     37                     38                     39
                      A                      A                      A
 Frequencies --    874.5358               878.3390               893.8255
 Red. masses --      1.8264                 1.2472                 2.3494
 Frc consts  --      0.8230                 0.5669                 1.1059
 IR Inten    --      0.8408                 0.4868                 2.4558

                     40                     41                     42
                      A                      A                      A
 Frequencies --    901.3899               922.7195               931.7394
 Red. masses --      3.3207                 2.4028                 2.3017
 Frc consts  --      1.5897                 1.2053                 1.1773
 IR Inten    --      3.8084                 6.9106                 6.3173

                     43                     44                     45
                      A                      A                      A
 Frequencies --    951.2468               960.9522               964.7702
 Red. masses --      1.3956                 1.9865                 1.5095
 Frc consts  --      0.7440                 1.0808                 0.8278
 IR Inten    --      4.3623                15.2002                 3.7295

                     46                     47                     48
                      A                      A                      A
 Frequencies --    990.9337               995.5853              1012.7276
 Red. masses --      1.3067                 1.7317                 1.2721
 Frc consts  --      0.7560                 1.0113                 0.7687
 IR Inten    --      0.5180                21.6595                 1.2283

                     49                     50                     51
                      A                      A                      A
 Frequencies --   1022.7909              1032.7978              1038.4611
 Red. masses --      5.6877                 2.2837                 2.2723
 Frc consts  --      3.5056                 1.4352                 1.4438
 IR Inten    --      0.4454                 8.0382                 1.8062

                     52                     53                     54
                      A                      A                      A
 Frequencies --   1061.3401              1073.0413              1103.7743
 Red. masses --      2.4757                 2.3100                 1.7481
 Frc consts  --      1.6431                 1.5671                 1.2548
 IR Inten    --      8.2284                29.6806                14.7733

                     55                     56                     57
                      A                      A                      A
 Frequencies --   1111.4222              1125.1062              1133.9272
 Red. masses --      1.8094                 2.1818                 2.3523
 Frc consts  --      1.3169                 1.6272                 1.7820
 IR Inten    --     30.3806                14.8728                 9.9244

                     58                     59                     60
                      A                      A                      A
 Frequencies --   1141.9556              1165.0656              1184.2430
 Red. masses --      1.7969                 2.2752                 2.4332
 Frc consts  --      1.3806                 1.8196                 2.0106
 IR Inten    --     17.6649                60.1379                29.0578

                     61                     62                     63
                      A                      A                      A
 Frequencies --   1193.2598              1198.2674              1216.2902
 Red. masses --      1.1103                 2.9561                 1.1416
 Frc consts  --      0.9315                 2.5008                 0.9950
 IR Inten    --      0.2001                 6.0696                12.6053

                     64                     65                     66
                      A                      A                      A
 Frequencies --   1218.9155              1236.8612              1247.1604
 Red. masses --      1.3036                 1.3785                 1.2000
 Frc consts  --      1.1411                 1.2425                 1.0997
 IR Inten    --      2.3308                 5.5938                 1.5073

                     67                     68                     69
                      A                      A                      A
 Frequencies --   1262.3086              1286.1201              1321.1527
 Red. masses --      1.3454                 2.0354                 1.2238
 Frc consts  --      1.2631                 1.9837                 1.2585
 IR Inten    --      6.3294                23.3751                 0.6534

                     70                     71                     72
                      A                      A                      A
 Frequencies --   1331.8269              1337.6876              1341.6855
 Red. masses --      1.3542                 1.4350                 1.4588
 Frc consts  --      1.4152                 1.5129                 1.5472
 IR Inten    --      0.4136                 3.9663                18.3448

                     73                     74                     75
                      A                      A                      A
 Frequencies --   1349.3345              1367.3515              1376.2139
 Red. masses --      2.0104                 1.9552                 1.4120
 Frc consts  --      2.1566                 2.1538                 1.5756
 IR Inten    --      1.6004                 1.3839                 2.1539

                     76                     77                     78
                      A                      A                      A
 Frequencies --   1376.9447              1385.8619              1393.0138
 Red. masses --      1.3210                 1.5763                 1.4496
 Frc consts  --      1.4757                 1.7838                 1.6573
 IR Inten    --      3.5252                76.9661                37.2959

                     79                     80                     81
                      A                      A                      A
 Frequencies --   1400.8415              1416.7461              1417.8865
 Red. masses --      1.3620                 1.2691                 1.2703
 Frc consts  --      1.5748                 1.5008                 1.5047
 IR Inten    --      2.0505                18.0841                 3.6472

                     82                     83                     84
                      A                      A                      A
 Frequencies --   1437.3495              1496.1412              1500.0819
 Red. masses --      1.3494                 2.1351                 1.1018
 Frc consts  --      1.6426                 2.8158                 1.4608
 IR Inten    --     13.3705                14.3027                13.6686

                     85                     86                     87
                      A                      A                      A
 Frequencies --   1507.5554              1511.5805              1518.7629
 Red. masses --      1.1221                 1.1440                 1.0641
 Frc consts  --      1.5026                 1.5400                 1.4461
 IR Inten    --     10.8037                10.3587                 2.3947

                     88                     89                     90
                      A                      A                      A
 Frequencies --   1524.8060              1530.6637              1531.5164
 Red. masses --      1.0735                 1.0915                 1.0917
 Frc consts  --      1.4706                 1.5068                 1.5087
 IR Inten    --      2.2501                 6.9040                 4.1761

                     91                     92                     93
                      A                      A                      A
 Frequencies --   1536.9347              1543.6649              1547.8551
 Red. masses --      1.2469                 1.2926                 1.3891
 Frc consts  --      1.7354                 1.8147                 1.9608
 IR Inten    --     13.5523                 1.0834                19.6153

                     94                     95                     96
                      A                      A                      A
 Frequencies --   1556.9384              1641.0871              1665.9653
 Red. masses --      1.0963                 5.6446                 5.4877
 Frc consts  --      1.5658                 8.9567                 8.9738
 IR Inten    --      4.2291                 1.3200                 5.6726

                     97                     98                     99
                      A                      A                      A
 Frequencies --   2976.4470              3009.0921              3020.5491
 Red. masses --      1.0679                 1.0724                 1.0722
 Frc consts  --      5.5741                 5.7211                 5.7639
 IR Inten    --     51.5765                66.4594                62.7155

                    100                    101                    102
                      A                      A                      A
 Frequencies --   3025.2785              3039.1792              3052.5084
 Red. masses --      1.0683                 1.0642                 1.0916
 Frc consts  --      5.7607                 5.7912                 5.9927
 IR Inten    --     42.8631                68.3532                40.3261

                    103                    104                    105
                      A                      A                      A
 Frequencies --   3055.2946              3061.7435              3070.6087
 Red. masses --      1.0380                 1.0617                 1.0649
 Frc consts  --      5.7089                 5.8639                 5.9158
 IR Inten    --     19.3023                27.3551                26.5521

                    106                    107                    108
                      A                      A                      A
 Frequencies --   3072.4795              3089.7056              3094.9181
 Red. masses --      1.0987                 1.0976                 1.0999
 Frc consts  --      6.1109                 6.1733                 6.2071
 IR Inten    --     29.7412                30.8231                34.0620

                    109                    110                    111
                      A                      A                      A
 Frequencies --   3105.4496              3110.1871              3118.7703
 Red. masses --      1.0923                 1.0968                 1.1037
 Frc consts  --      6.2063                 6.2511                 6.3248
 IR Inten    --     18.5182                19.1963               119.0305

                    112                    113                    114
                      A                      A                      A
 Frequencies --   3130.3295              3147.0676              3178.0658
 Red. masses --      1.0996                 1.1028                 1.0850
 Frc consts  --      6.3487                 6.4349                 6.4565
 IR Inten    --     23.6382                17.7051                 0.2278

                    115                    116                    117
                      A                      A                      A
 Frequencies --   3187.8170              3202.5433              3215.5442
 Red. masses --      1.0895                 1.0943                 1.0927
 Frc consts  --      6.5233                 6.6128                 6.6568
 IR Inten    --     23.8256                29.3972                 9.7883

                    118                    119                    120
                      A                      A                      A
 Frequencies --   3218.4952              3549.9613              3720.8510
 Red. masses --      1.0933                 1.0725                 1.0658
 Frc consts  --      6.6727                 7.9634                 8.6940
 IR Inten    --     18.8716                 3.1583                 9.5963

 - Thermochemistry -
 -------------------
 Temperature   298.150 Kelvin.  Pressure   1.00000 Atm.
 Atom     1 has atomic number  6 and mass  12.00000

 Molecular mass:   248.18886 amu.
 Principal axes and moments of inertia in atomic units:
                           1         2         3
     Eigenvalues --  2015.010009019.037589553.44912
           X            0.99999  -0.00173   0.00332
           Y            0.00161   0.99941   0.03440
           Z           -0.00337  -0.03440   0.99940
 This molecule is an asymmetric top.
 Rotational symmetry number  1.
 Warning -- assumption of classical behavior for rotation
           may cause significant error
 Rotational temperatures (Kelvin)      0.04298     0.00960     0.00907
 Rotational constants (GHZ):           0.89565     0.20010     0.18891
 Zero-point vibrational energy     988773.4 (Joules/Mol)
                                  236.32251 (Kcal/Mol)
 Warning -- explicit consideration of  27 degrees of freedom as
           vibrations may cause significant error
 Vibrational temperatures:     36.19    51.75    72.30    81.84   126.30
          (Kelvin)            156.01   190.76   219.62   246.56   273.20
                              333.90   357.28   401.77   429.90   452.54
                              475.52   488.00   537.89   561.30   603.80
                              605.76   634.98   762.41   765.98   820.04
                              854.50   871.36   917.14   919.60  1041.49
                             1057.29  1072.28  1126.32  1131.10  1174.28
                             1238.32  1258.26  1263.73  1286.02  1296.90
                             1327.59  1340.57  1368.63  1382.60  1388.09
                             1425.73  1432.43  1457.09  1471.57  1485.97
                             1494.11  1527.03  1543.87  1588.08  1599.09
                             1618.78  1631.47  1643.02  1676.27  1703.86
                             1716.83  1724.04  1749.97  1753.75  1779.57
                             1794.39  1816.18  1850.44  1900.84  1916.20
                             1924.63  1930.39  1941.39  1967.31  1980.06
                             1981.12  1993.95  2004.24  2015.50  2038.38
                             2040.02  2068.03  2152.61  2158.28  2169.04
                             2174.83  2185.16  2193.86  2202.28  2203.51
                             2211.31  2220.99  2227.02  2240.09  2361.16
                             2396.95  4282.44  4329.41  4345.90  4352.70
                             4372.70  4391.88  4395.89  4405.17  4417.92
                             4420.61  4445.40  4452.90  4468.05  4474.87
                             4487.21  4503.85  4527.93  4572.53  4586.56
                             4607.75  4626.45  4630.70  5107.60  5353.47

 Zero-point correction=                           0.376604 (Hartree/Particle)
 Thermal correction to Energy=                    0.394298
 Thermal correction to Enthalpy=                  0.395243
 Thermal correction to Gibbs Free Energy=         0.330104
 Sum of electronic and zero-point Energies=           -770.443634
 Sum of electronic and thermal Energies=              -770.425939
 Sum of electronic and thermal Enthalpies=            -770.424995
 Sum of electronic and thermal Free Energies=         -770.490133

                     E (Thermal)             CV                S
                      KCal/Mol        Cal/Mol-Kelvin    Cal/Mol-Kelvin
 Total                  247.426             69.463            137.095
 Electronic               0.000              0.000              0.000
 Translational            0.889              2.981             42.428
 Rotational               0.889              2.981             33.517
 Vibrational            245.649             63.501             61.150
 Vibration     1          0.593              1.985              6.179
 Vibration     2          0.594              1.982              5.470
 Vibration     3          0.595              1.977              4.807
 Vibration     4          0.596              1.975              4.562
 Vibration     5          0.601              1.958              3.709
 Vibration     6          0.606              1.942              3.297
 Vibration     7          0.613              1.921              2.908
 Vibration     8          0.619              1.900              2.639
 Vibration     9          0.626              1.878              2.420
 Vibration    10          0.633              1.854              2.229
 Vibration    11          0.653              1.792              1.863
 Vibration    12          0.662              1.766              1.742
 Vibration    13          0.680              1.712              1.538
 Vibration    14          0.692              1.676              1.424
 Vibration    15          0.702              1.646              1.338
 Vibration    16          0.713              1.615              1.258
 Vibration    17          0.719              1.597              1.216
 Vibration    18          0.745              1.526              1.064
 Vibration    19          0.758              1.491              1.000
 Vibration    20          0.782              1.428              0.893
 Vibration    21          0.784              1.425              0.888
 Vibration    22          0.801              1.380              0.822
 Vibration    23          0.885              1.184              0.587
 Vibration    24          0.887              1.178              0.582
 Vibration    25          0.926              1.096              0.504
 Vibration    26          0.952              1.045              0.460
 Vibration    27          0.964              1.020              0.440

 Optimization completed.
    -- Stationary point found.
 Normal termination of Gaussian 16 at Fri Dec 11 23:43:04 2020.

 ----------------------------------------------------------------------
 # B3LYP/6-311++G(d,p) empiricaldispersion=gd3bj scf=xqc pop=npa geom=c
 heck
 ----------------------------------------------------------------------

 --------------------------------------
 CID_62641585_JID_8884_Energie_neutraal
 --------------------------------------
 Structure from the checkpoint file:  "JID_8884.chk"
 Charge =  0 Multiplicity = 1

 SCF Done:  E(RB3LYP) =  -771.039196308     A.U. after   14 cycles
 Normal termination of Gaussian 16 at Fri Dec 11 23:52:41 2020.

 ----------------------------------------------------------------------
 # B3LYP/6-311++G(d,p) empiricaldispersion=gd3bj scf=xqc pop=npa geom=c
 heck
 ----------------------------------------------------------------------

 ------------------------------------
 CID_62641585_JID_8884_Energie_kation
 ------------------------------------
 Structure from the checkpoint file:  "JID_8884.chk"
 Charge =  1 Multiplicity = 2

 SCF Done:  E(UB3LYP) =  -770.772047832     A.U. after   24 cycles
 Normal termination of Gaussian 16 at Sat Dec 12 00:16:22 2020.
 Gaussian 16:  ES64L-G16RevA.03 25-Dec-2016

 ----------------------------------------------------------------------
 # B3LYP/6-311++G(d,p) empiricaldispersion=gd3bj scf=xqc pop=npa geom=c
 heck
 ----------------------------------------------------------------------

 -----------------------------------
 CID_62641585_JID_8884_Energie_anion
 -----------------------------------
 Structure from the checkpoint file:  "JID_8884.chk"
 Charge = -1 Multiplicity = 2

                         Standard orientation:
 ---------------------------------------------------------------------
 Center     Atomic      Atomic             Coordinates (Angstroms)
 Number     Number       Type             X           Y           Z
 ---------------------------------------------------------------------
      1          6           0       -0.754496    1.629326    1.080792
      2          6           0       -1.267673    1.057704   -0.244812
      3          6           0       -0.136371    0.333217   -1.014398
      4          7           0        0.586041   -0.657210   -0.225398
      5          6           0        1.559434   -1.450747   -0.974447
      6          6           0        2.764159   -0.711147   -1.601142
      7          7           0        3.734571   -0.081939   -0.711800
      8          6           0        4.342880   -0.929388    0.312690
      9          6           0        3.598443   -0.618140    1.627014
     10          6           0        3.251790    0.881630    1.484987
     11          6           0        3.356970    1.171554   -0.045889
     12          6           0       -2.507749    0.192897   -0.005192
     13          6           0       -3.769577    0.802849    0.012402
     14          6           0       -4.922402    0.053286    0.245599
     15          6           0       -4.831862   -1.320842    0.467984
     16          6           0       -3.578898   -1.934834    0.459521
     17          6           0       -2.424286   -1.186468    0.228441
     18          8           0       -1.618825    2.213251   -1.026388
     19          1           0       -0.499798    0.825284    1.776966
     20          1           0       -1.534689    2.242952    1.539087
     21          1           0        0.126209    2.259357    0.909161
     22          1           0       -0.574531   -0.186011   -1.877583
     23          1           0        0.504601    1.136155   -1.415702
     24          1           0        1.044050   -0.203552    0.558691
     25          1           0        1.926444   -2.238917   -0.305783
     26          1           0        1.017073   -1.961129   -1.782483
     27          1           0        3.303883   -1.439928   -2.222173
     28          1           0        2.404621    0.061214   -2.290649
     29          1           0        5.405610   -0.664909    0.421484
     30          1           0        4.298564   -1.983603    0.022404
     31          1           0        2.689143   -1.225836    1.698011
     32          1           0        4.199427   -0.828803    2.517482
     33          1           0        2.260298    1.116790    1.886400
     34          1           0        3.966847    1.499412    2.037792
     35          1           0        2.428712    1.566739   -0.467869
     36          1           0        4.131640    1.931072   -0.220481
     37          1           0       -3.839370    1.871846   -0.160078
     38          1           0       -5.891690    0.544886    0.252994
     39          1           0       -5.728851   -1.907066    0.648308
     40          1           0       -3.497001   -3.004625    0.633811
     41          1           0       -1.447747   -1.658381    0.234287
     42          1           0       -2.069300    1.889709   -1.823887
 ---------------------------------------------------------------------

 SCF Done:  E(UB3LYP) =  -771.025727590     A.U. after   33 cycles
 SCF Done:  E(UB3LYP) =  -771.025727591     a.u. after    1 cycles

 The electronic state is 2-A.
 Alpha  occ. eigenvalues --  -19.03639 -14.21209 -14.20723 -10.14979 -10.10594
 Alpha  occ. eigenvalues --  -10.10270 -10.10228 -10.10160 -10.09905 -10.09180
 Alpha  occ. eigenvalues --  -10.08595 -10.08535 -10.08482 -10.08283 -10.07941
 Alpha  occ. eigenvalues --  -10.07803 -10.07678 -10.07653  -0.94224  -0.84311
 Alpha  occ. eigenvalues --   -0.81756  -0.76778  -0.70176  -0.68959  -0.65666
 Alpha  occ. eigenvalues --   -0.64766  -0.63542  -0.62820  -0.59157  -0.54200
 Alpha  occ. eigenvalues --   -0.52571  -0.51570  -0.49515  -0.48452  -0.47363
 Alpha  occ. eigenvalues --   -0.44560  -0.42872  -0.40684  -0.39644  -0.38582
 Alpha  occ. eigenvalues --   -0.37915  -0.36727  -0.35574  -0.35513  -0.34759
 Alpha  occ. eigenvalues --   -0.33596  -0.32902  -0.32695  -0.31901  -0.31030
 Alpha  occ. eigenvalues --   -0.30457  -0.29728  -0.29311  -0.27851  -0.27469
 Alpha  occ. eigenvalues --   -0.26809  -0.26500  -0.25899  -0.25606  -0.25443
 Alpha  occ. eigenvalues --   -0.25016  -0.23621  -0.23380  -0.19869  -0.16606
 Alpha  occ. eigenvalues --   -0.16212  -0.14903  -0.11085   0.04002
 Alpha virt. eigenvalues --    0.05403   0.06372   0.06525   0.07043   0.07302
 Alpha virt. eigenvalues --    0.07454   0.07489   0.08154   0.08863   0.09117
 Alpha virt. eigenvalues --    0.09527   0.09722   0.10430   0.10573   0.11363

  Beta  occ. eigenvalues --  -19.03619 -14.21204 -14.20722 -10.14976 -10.10579
  Beta  occ. eigenvalues --  -10.10255 -10.10216 -10.10147 -10.09879 -10.09179
  Beta  occ. eigenvalues --  -10.08581 -10.08523 -10.08473 -10.08275 -10.07927
  Beta  occ. eigenvalues --  -10.07793 -10.07659 -10.07640  -0.94184  -0.84299
  Beta  occ. eigenvalues --   -0.81742  -0.76758  -0.70152  -0.68933  -0.65641
  Beta  occ. eigenvalues --   -0.64740  -0.63508  -0.62790  -0.59126  -0.54164
  Beta  occ. eigenvalues --   -0.52538  -0.51541  -0.49464  -0.48413  -0.47316
  Beta  occ. eigenvalues --   -0.44528  -0.42849  -0.40656  -0.39607  -0.38546
  Beta  occ. eigenvalues --   -0.37890  -0.36703  -0.35547  -0.35486  -0.34735
  Beta  occ. eigenvalues --   -0.33573  -0.32878  -0.32674  -0.31867  -0.31007
  Beta  occ. eigenvalues --   -0.30438  -0.29702  -0.29287  -0.27827  -0.27446
  Beta  occ. eigenvalues --   -0.26785  -0.26474  -0.25868  -0.25582  -0.25419
  Beta  occ. eigenvalues --   -0.24983  -0.23600  -0.23356  -0.19849  -0.16578
  Beta  occ. eigenvalues --   -0.16192  -0.14889  -0.11055
  Beta virt. eigenvalues --    0.05841   0.06312   0.06913   0.07030   0.07198
  Beta virt. eigenvalues --    0.07379   0.07692   0.07954   0.08574   0.09161
  Beta virt. eigenvalues --    0.09437   0.09753   0.10021   0.10668   0.10753

 Mulliken charges and spin densities:
               1          2
     1  C    0.039320  -0.835291
     2  C    1.501495  -0.480479
     3  C   -0.943365  -0.432105
     4  N   -0.080502   0.117952
     5  C    0.272169  -0.344405
     6  C   -0.625738  -0.066029
     7  N    0.131128   0.049316
     8  C    0.710402  -1.116645
     9  C   -0.080099  -0.128432
    10  C    0.009225  -0.299376
    11  C   -0.123040  -0.223804
    12  C    0.692356   0.204529
    13  C    0.092291  -0.011230
    14  C    0.196984  -0.671724
    15  C    0.662325  -0.939827
    16  C   -0.580991   0.294290
    17  C   -1.693816   0.834557
    18  O   -0.150886  -0.023383
    19  H   -0.099439   0.254738
    20  H    0.081203   0.100923
    21  H    0.163853   0.008784
    22  H   -0.022166   0.184391
    23  H    0.261741  -0.105108
    24  H    0.701592  -0.500907
    25  H   -0.121113   0.301719
    26  H    0.038179   0.091984
    27  H   -0.170021   0.341470
    28  H   -0.034472   0.195216
    29  H   -0.067956   0.232944
    30  H   -0.163005   0.305261
    31  H   -0.068895   0.224134
    32  H   -0.428963   0.613584
    33  H    0.083469   0.029408
    34  H   -0.257247   0.434046
    35  H   -0.003992   0.115173
    36  H   -0.110337   0.301910
    37  H   -0.085557   0.263679
    38  H   -0.357049   0.525376
    39  H   -0.261063   0.407469
    40  H   -0.252079   0.431323
    41  H    0.186985   0.043901
    42  H   -0.042929   0.270667
 Sum of Mulliken charges =  -1.00000   1.00000

 Dipole moment (field-independent basis, Debye):
    X=             -0.5858    Y=              1.0469    Z=             -1.1189  Tot=              1.6405
 Quadrupole moment (field-independent basis, Debye-Ang):
   XX=           -230.1980   YY=           -156.7383   ZZ=           -150.6142
   XY=              0.5060   XZ=             -5.9281   YZ=              2.0712

 Summary of Natural Population Analysis:

                                       Natural Population
                Natural  -----------------------------------------------
    Atom  No    Charge         Core      Valence    Rydberg      Total
 -----------------------------------------------------------------------
      C    1   -0.28961      0.99961     2.28393    0.00607     3.28961
      C    2    0.12318      0.99950     1.86198    0.01534     2.87682
      C    3   -0.09537      0.99957     2.08384    0.01196     3.09537
      N    4   -0.35175      0.99974     2.84106    0.01094     3.85175
      C    5   -0.09741      0.99962     2.08637    0.01142     3.09741
      C    6   -0.08880      0.99960     2.07805    0.01115     3.08880
      N    7   -0.28432      0.99974     2.77078    0.01381     3.78432
      C    8   -0.08577      0.99962     2.07482    0.01133     3.08577
      C    9   -0.20157      0.99964     2.19439    0.00754     3.20157
      C   10   -0.20689      0.99964     2.19933    0.00791     3.20689
      C   11   -0.08727      0.99962     2.07743    0.01022     3.08727
      C   12   -0.02949      0.99947     2.01743    0.01260     3.02949
      C   13   -0.10465      0.99951     2.09461    0.01053     3.10465
      C   14   -0.10028      0.99956     2.09027    0.01045     3.10028
      C   15   -0.10373      0.99956     2.09434    0.00984     3.10373
      C   16   -0.09814      0.99956     2.08908    0.00949     3.09814
      C   17   -0.10317      0.99951     2.09346    0.01020     3.10317
      O   18   -0.37448      0.99989     3.36787    0.00672     4.37448
      H   19    0.10368      0.00000     0.39533    0.00099     0.39632
      H   20    0.10763      0.00000     0.39150    0.00087     0.39237
      H   21    0.10188      0.00000     0.39711    0.00101     0.39812
      H   22    0.09631      0.00000     0.40230    0.00139     0.40369
      H   23    0.08788      0.00000     0.41047    0.00165     0.41212
      H   24    0.17730      0.00000     0.31772    0.00498     0.32270
      H   25    0.09460      0.00000     0.40415    0.00125     0.40540
      H   26    0.09312      0.00000     0.40553    0.00135     0.40688
      H   27    0.09517      0.00000     0.40370    0.00112     0.40483
      H   28    0.09488      0.00000     0.40410    0.00103     0.40512
      H   29    0.09116      0.00000     0.40757    0.00127     0.40884
      H   30    0.09827      0.00000     0.40053    0.00120     0.40173
      H   31    0.09383      0.00000     0.40460    0.00157     0.40617
      H   32    0.10227      0.00000     0.39619    0.00154     0.39773
      H   33    0.09785      0.00000     0.40093    0.00122     0.40215
      H   34    0.09980      0.00000     0.39864    0.00155     0.40020
      H   35    0.09529      0.00000     0.40344    0.00127     0.40471
      H   36    0.09038      0.00000     0.40834    0.00127     0.40962
      H   37    0.10863      0.00000     0.39014    0.00124     0.39137
      H   38    0.10052      0.00000     0.39835    0.00113     0.39948
      H   39    0.10039      0.00000     0.39852    0.00109     0.39961
      H   40    0.10025      0.00000     0.39879    0.00097     0.39975
      H   41    0.11804      0.00000     0.37995    0.00202     0.38196
      H   42    0.23039      0.00000     0.26652    0.00309     0.26961
 =======================================================================
   * Total *   -0.00000     17.99296    49.78345    0.22359    68.00000

 Normal termination of Gaussian 16 at Sat Dec 12 00:47:13 2020.
