 Gaussian 16, Revision A.03,

 -----------------------------------------------------------
 # opt freq B3LYP/6-31G(d) empiricaldispersion=gd3bj scf=xqc
 -----------------------------------------------------------

 ------------------------------
 CID_53791401_JID_7836_neutraal
 ------------------------------
 Symbolic Z-matrix:
 Charge =  0 Multiplicity = 1

 SCF Done:  E(RB3LYP) =  -818.073871333     A.U. after   16 cycles
 SCF Done:  E(RB3LYP) =  -818.077270186     A.U. after   14 cycles
 SCF Done:  E(RB3LYP) =  -818.074716628     A.U. after   16 cycles
 SCF Done:  E(RB3LYP) =  -818.076766010     A.U. after   14 cycles
 SCF Done:  E(RB3LYP) =  -818.078298769     A.U. after   11 cycles
 SCF Done:  E(RB3LYP) =  -818.078926005     A.U. after   14 cycles
 SCF Done:  E(RB3LYP) =  -818.079907323     A.U. after   14 cycles
 SCF Done:  E(RB3LYP) =  -818.080273551     A.U. after   14 cycles
 SCF Done:  E(RB3LYP) =  -818.080783199     A.U. after   13 cycles
 SCF Done:  E(RB3LYP) =  -818.080977764     A.U. after   12 cycles
 SCF Done:  E(RB3LYP) =  -818.081076595     A.U. after   10 cycles
 SCF Done:  E(RB3LYP) =  -818.081077893     A.U. after   10 cycles
 SCF Done:  E(RB3LYP) =  -818.081078524     A.U. after    9 cycles
 SCF Done:  E(RB3LYP) =  -818.081078632     A.U. after    8 cycles
 SCF Done:  E(RB3LYP) =  -818.081078719     A.U. after    8 cycles
 SCF Done:  E(RB3LYP) =  -818.081078725     A.U. after    7 cycles
 Optimization completed.
    -- Stationary point found.
 Normal termination of Gaussian 16 at Fri Dec 11 13:26:20 2020.

 --------------------------------------------------------------------
 #N Geom=AllCheck Guess=TCheck SCRF=Check GenChk RB3LYP/6-31G(d) Freq
 --------------------------------------------------------------------

 Structure from the checkpoint file:  "JID_7836.chk"
 ------------------------------
 CID_53791401_JID_7836_neutraal
 ------------------------------
 Charge =  0 Multiplicity = 1

 SCF Done:  E(RB3LYP) =  -818.081078725     A.U. after    1 cycles

  Exact polarizability: 208.551 -17.300 107.944   3.425   7.413 131.659
 Approx polarizability: 316.578 -39.249 152.305   3.900  17.416 250.429

                      1                      2                      3
                      A                      A                      A
 Frequencies --     18.3653                47.4314                55.0040
 Red. masses --      4.0162                 7.9551                 4.6916
 Frc consts  --      0.0008                 0.0105                 0.0084
 IR Inten    --      0.3754                 0.2796                 2.4695

                      4                      5                      6
                      A                      A                      A
 Frequencies --     60.7006                88.7654                96.3223
 Red. masses --      6.3843                 4.4329                 3.8844
 Frc consts  --      0.0139                 0.0206                 0.0212
 IR Inten    --      2.4789                 1.6236                 1.5508

                      7                      8                      9
                      A                      A                      A
 Frequencies --    137.8752               154.4487               180.2541
 Red. masses --      2.6788                 3.7010                 2.4525
 Frc consts  --      0.0300                 0.0520                 0.0469
 IR Inten    --      2.2061                 0.3123                 0.2714

                     10                     11                     12
                      A                      A                      A
 Frequencies --    205.5248               218.8826               244.1576
 Red. masses --      3.6041                 1.1467                 1.5521
 Frc consts  --      0.0897                 0.0324                 0.0545
 IR Inten    --      1.2707                40.9138                 0.0273

                     13                     14                     15
                      A                      A                      A
 Frequencies --    264.8451               283.1444               335.4364
 Red. masses --      3.8386                 6.4163                 4.1286
 Frc consts  --      0.1586                 0.3031                 0.2737
 IR Inten    --     10.8681                 4.6441                 5.0324

                     16                     17                     18
                      A                      A                      A
 Frequencies --    357.9939               389.6952               429.2794
 Red. masses --      2.3824                 3.4147                 3.1880
 Frc consts  --      0.1799                 0.3055                 0.3461
 IR Inten    --      2.1390                 7.3075                 3.3011

                     19                     20                     21
                      A                      A                      A
 Frequencies --    430.2679               441.0871               466.0802
 Red. masses --      4.3486                 2.2222                 3.9530
 Frc consts  --      0.4743                 0.2547                 0.5059
 IR Inten    --     24.9656                 1.6685                 1.8914

                     22                     23                     24
                      A                      A                      A
 Frequencies --    512.5056               534.4928               556.5331
 Red. masses --      7.5099                 5.2183                 3.9845
 Frc consts  --      1.1622                 0.8783                 0.7271
 IR Inten    --     13.6722                 1.7609                 5.7550

                     25                     26                     27
                      A                      A                      A
 Frequencies --    633.4509               647.8629               708.4734
 Red. masses --      4.4851                 6.7000                 3.9288
 Frc consts  --      1.0603                 1.6569                 1.1619
 IR Inten    --      7.7217                 0.5616                 8.6080

                     28                     29                     30
                      A                      A                      A
 Frequencies --    723.9119               749.4819               764.8463
 Red. masses --      3.9299                 3.8868                 4.8217
 Frc consts  --      1.2134                 1.2864                 1.6619
 IR Inten    --     17.6913                 1.3622                 5.5489

                     31                     32                     33
                      A                      A                      A
 Frequencies --    770.7740               826.9029               851.2608
 Red. masses --      1.4346                 2.7397                 1.2482
 Frc consts  --      0.5022                 1.1037                 0.5329
 IR Inten    --     20.4146                 2.0686                 1.0289

                     34                     35                     36
                      A                      A                      A
 Frequencies --    866.1882               883.2176               893.2709
 Red. masses --      7.8417                 1.7403                 1.5717
 Frc consts  --      3.4664                 0.7998                 0.7389
 IR Inten    --     52.0202                35.9589                 3.4811

                     37                     38                     39
                      A                      A                      A
 Frequencies --    951.9446               979.4631               983.4578
 Red. masses --      2.2077                 1.8227                 1.5468
 Frc consts  --      1.1788                 1.0302                 0.8814
 IR Inten    --      9.3051                18.8333                 8.5559

                     40                     41                     42
                      A                      A                      A
 Frequencies --    988.7372               993.2164              1020.7562
 Red. masses --      2.1949                 1.3274                 2.4554
 Frc consts  --      1.2643                 0.7715                 1.5074
 IR Inten    --     12.9435                 1.6604                48.2373

                     43                     44                     45
                      A                      A                      A
 Frequencies --   1035.7373              1081.7866              1113.8338
 Red. masses --      2.5961                 2.1140                 1.5981
 Frc consts  --      1.6408                 1.4576                 1.1682
 IR Inten    --      2.7021                 3.5658                22.7844

                     46                     47                     48
                      A                      A                      A
 Frequencies --   1134.4256              1137.9488              1139.5340
 Red. masses --      1.6407                 1.3271                 2.8359
 Frc consts  --      1.2441                 1.0125                 2.1697
 IR Inten    --      6.7658                 2.3647                69.0951

                     49                     50                     51
                      A                      A                      A
 Frequencies --   1163.9225              1203.8185              1220.3309
 Red. masses --      1.9799                 1.3446                 1.4737
 Frc consts  --      1.5803                 1.1481                 1.2930
 IR Inten    --     16.0639                37.1597                72.1094

                     52                     53                     54
                      A                      A                      A
 Frequencies --   1267.4692              1298.3356              1327.0502
 Red. masses --      1.3648                 1.8036                 1.3663
 Frc consts  --      1.2918                 1.7913                 1.4176
 IR Inten    --     17.6727               207.5010                 9.7368

                     55                     56                     57
                      A                      A                      A
 Frequencies --   1330.9824              1353.3979              1379.3177
 Red. masses --      1.1919                 2.1863                 6.2078
 Frc consts  --      1.2440                 2.3595                 6.9585
 IR Inten    --      1.1447                 8.9952                61.0496

                     58                     59                     60
                      A                      A                      A
 Frequencies --   1387.0634              1393.3620              1394.9393
 Red. masses --      1.5854                 6.7404                 1.3661
 Frc consts  --      1.7971                 7.7102                 1.5662
 IR Inten    --     32.1162               544.1976                 7.9415

                     61                     62                     63
                      A                      A                      A
 Frequencies --   1405.9739              1416.7617              1446.1896
 Red. masses --      1.4756                 2.1459                 1.2524
 Frc consts  --      1.7186                 2.5378                 1.5433
 IR Inten    --      1.3159                39.1267                 5.3213

                     64                     65                     66
                      A                      A                      A
 Frequencies --   1466.2221              1510.8959              1519.5871
 Red. masses --      3.3978                 1.0894                 1.0919
 Frc consts  --      4.3037                 1.4652                 1.4855
 IR Inten    --     12.7917                 2.0807                12.8283

                     67                     68                     69
                      A                      A                      A
 Frequencies --   1521.1631              1534.1345              1538.7814
 Red. masses --      1.0778                 1.0675                 1.0938
 Frc consts  --      1.4694                 1.4802                 1.5260
 IR Inten    --      7.8144                12.3332                 4.2612

                     70                     71                     72
                      A                      A                      A
 Frequencies --   1543.2134              1616.1940              1654.6139
 Red. masses --      2.3496                10.6079                 5.8006
 Frc consts  --      3.2968                16.3254                 9.3566
 IR Inten    --     55.5563               103.1179               125.4251

                     73                     74                     75
                      A                      A                      A
 Frequencies --   1669.1452              1723.3607              1754.9831
 Red. masses --      9.4632                 1.3690                 3.5155
 Frc consts  --     15.5337                 2.3956                 6.3794
 IR Inten    --     97.4169               184.5599               151.6067

                     76                     77                     78
                      A                      A                      A
 Frequencies --   3035.9764              3049.1595              3051.7658
 Red. masses --      1.0642                 1.0630                 1.0423
 Frc consts  --      5.7791                 5.8228                 5.7191
 IR Inten    --     15.6549                18.8139                21.1494

                     79                     80                     81
                      A                      A                      A
 Frequencies --   3073.0045              3090.7524              3103.4446
 Red. masses --      1.0955                 1.0692                 1.1002
 Frc consts  --      6.0953                 6.0177                 6.2433
 IR Inten    --     44.6315                12.7805                13.8335

                     82                     83                     84
                      A                      A                      A
 Frequencies --   3115.0074              3130.1244              3175.3016
 Red. masses --      1.1013                 1.1006                 1.0932
 Frc consts  --      6.2959                 6.3531                 6.4944
 IR Inten    --     35.4582                40.1686                19.5564

                     85                     86                     87
                      A                      A                      A
 Frequencies --   3220.3604              3244.3654              3256.1062
 Red. masses --      1.0907                 1.0892                 1.0927
 Frc consts  --      6.6644                 6.7546                 6.8258
 IR Inten    --      4.0078                 0.1523                 1.2934

                     88                     89                     90
                      A                      A                      A
 Frequencies --   3257.1552              3424.9869              3504.4392
 Red. masses --      1.0945                 1.0487                 1.0926
 Frc consts  --      6.8412                 7.2480                 7.9056
 IR Inten    --      1.6176                 8.3190                17.1939

 - Thermochemistry -
 -------------------
 Temperature   298.150 Kelvin.  Pressure   1.00000 Atm.
 Atom     1 has atomic number  6 and mass  12.00000

 Molecular mass:   237.11134 amu.
 Principal axes and moments of inertia in atomic units:
                           1         2         3
     Eigenvalues --  2142.640876690.265057439.79277
           X            0.99988   0.01530  -0.00035
           Y           -0.01530   0.99987  -0.00580
           Z            0.00026   0.00580   0.99998
 This molecule is an asymmetric top.
 Rotational symmetry number  1.
 Warning -- assumption of classical behavior for rotation
           may cause significant error
 Rotational temperatures (Kelvin)      0.04042     0.01295     0.01164
 Rotational constants (GHZ):           0.84230     0.26976     0.24258
 Zero-point vibrational energy     688826.1 (Joules/Mol)
                                  164.63339 (Kcal/Mol)
 Warning -- explicit consideration of  24 degrees of freedom as
           vibrations may cause significant error
 Vibrational temperatures:     26.42    68.24    79.14    87.33   127.71
          (Kelvin)            138.59   198.37   222.22   259.35   295.70
                              314.92   351.29   381.05   407.38   482.62
                              515.07   560.68   617.64   619.06   634.63
                              670.59   737.38   769.02   800.73   911.39
                              932.13  1019.34  1041.55  1078.34  1100.44
                             1108.97  1189.73  1224.77  1246.25  1270.75
                             1285.22  1369.64  1409.23  1414.98  1422.57
                             1429.02  1468.64  1490.19  1556.45  1602.56
                             1632.19  1637.25  1639.54  1674.62  1732.03
                             1755.78  1823.61  1868.02  1909.33  1914.99
                             1947.24  1984.53  1995.67  2004.74  2007.01
                             2022.88  2038.40  2080.74  2109.57  2173.84
                             2186.35  2188.61  2207.28  2213.96  2220.34
                             2325.34  2380.62  2401.53  2479.53  2525.03
                             4368.09  4387.06  4390.81  4421.37  4446.90
                             4465.16  4481.80  4503.55  4568.55  4633.38
                             4667.92  4684.81  4686.32  4927.79  5042.11

 Zero-point correction=                           0.262360 (Hartree/Particle)
 Thermal correction to Energy=                    0.278836
 Thermal correction to Enthalpy=                  0.279780
 Thermal correction to Gibbs Free Energy=         0.216689
 Sum of electronic and zero-point Energies=           -817.818719
 Sum of electronic and thermal Energies=              -817.802242
 Sum of electronic and thermal Enthalpies=            -817.801298
 Sum of electronic and thermal Free Energies=         -817.864389

                     E (Thermal)             CV                S
                      KCal/Mol        Cal/Mol-Kelvin    Cal/Mol-Kelvin
 Total                  174.972             61.180            132.786
 Electronic               0.000              0.000              0.000
 Translational            0.889              2.981             42.292
 Rotational               0.889              2.981             33.033
 Vibrational            173.195             55.218             57.462
 Vibration     1          0.593              1.986              6.804
 Vibration     2          0.595              1.979              4.922
 Vibration     3          0.596              1.976              4.629
 Vibration     4          0.597              1.973              4.434
 Vibration     5          0.602              1.957              3.687
 Vibration     6          0.603              1.952              3.527
 Vibration     7          0.614              1.915              2.833
 Vibration     8          0.620              1.898              2.617
 Vibration     9          0.629              1.867              2.326
 Vibration    10          0.640              1.832              2.083
 Vibration    11          0.647              1.812              1.968
 Vibration    12          0.659              1.772              1.772
 Vibration    13          0.671              1.737              1.630
 Vibration    14          0.682              1.705              1.515
 Vibration    15          0.717              1.605              1.234
 Vibration    16          0.733              1.559              1.131
 Vibration    17          0.758              1.492              1.001
 Vibration    18          0.791              1.406              0.861
 Vibration    19          0.791              1.404              0.858
 Vibration    20          0.801              1.381              0.823
 Vibration    21          0.823              1.325              0.749
 Vibration    22          0.868              1.222              0.628
 Vibration    23          0.889              1.174              0.577
 Vibration    24          0.912              1.125              0.531

 Optimization completed.
    -- Stationary point found.
 Normal termination of Gaussian 16 at Fri Dec 11 13:38:01 2020.

 ----------------------------------------------------------------------
 # B3LYP/6-311++G(d,p) empiricaldispersion=gd3bj scf=xqc pop=npa geom=c
 heck
 ----------------------------------------------------------------------

 --------------------------------------
 CID_53791401_JID_7836_Energie_neutraal
 --------------------------------------
 Structure from the checkpoint file:  "JID_7836.chk"
 Charge =  0 Multiplicity = 1

 SCF Done:  E(RB3LYP) =  -818.318310650     A.U. after   15 cycles
 Normal termination of Gaussian 16 at Fri Dec 11 13:43:28 2020.

 ----------------------------------------------------------------------
 # B3LYP/6-311++G(d,p) empiricaldispersion=gd3bj scf=xqc pop=npa geom=c
 heck
 ----------------------------------------------------------------------

 ------------------------------------
 CID_53791401_JID_7836_Energie_kation
 ------------------------------------
 Structure from the checkpoint file:  "JID_7836.chk"
 Charge =  1 Multiplicity = 2

 SCF Done:  E(UB3LYP) =  -818.001606724     A.U. after   25 cycles
 Normal termination of Gaussian 16 at Fri Dec 11 13:55:53 2020.
 Gaussian 16:  ES64L-G16RevA.03 25-Dec-2016

 ----------------------------------------------------------------------
 # B3LYP/6-311++G(d,p) empiricaldispersion=gd3bj scf=xqc pop=npa geom=c
 heck
 ----------------------------------------------------------------------

 -----------------------------------
 CID_53791401_JID_7836_Energie_anion
 -----------------------------------
 Structure from the checkpoint file:  "JID_7836.chk"
 Charge = -1 Multiplicity = 2

                         Standard orientation:
 ---------------------------------------------------------------------
 Center     Atomic      Atomic             Coordinates (Angstroms)
 Number     Number       Type             X           Y           Z
 ---------------------------------------------------------------------
      1          6           0        0.636769    2.588352   -0.668959
      2          6           0        2.057647    2.092111   -0.955988
      3          6           0        2.912457    1.879248    0.301957
      4          6           0        2.435821    0.714442    1.195596
      5          6           0        2.681397   -0.604944    0.487580
      6          8           0        3.823349   -0.986309    0.249803
      7          7           0        1.609497   -1.343997   -0.004444
      8          6           0        0.240481   -0.984040    0.026910
      9          6           0       -0.403712   -0.755938    1.251173
     10          6           0       -1.738014   -0.367631    1.278241
     11          6           0       -2.426985   -0.245868    0.074284
     12          6           0       -1.817156   -0.514907   -1.151342
     13          6           0       -0.481951   -0.890524   -1.172261
     14          7           0       -3.833968    0.162056    0.097923
     15          8           0       -4.341366    0.403289    1.194022
     16          8           0       -4.424344    0.241929   -0.979692
     17          7           0        1.926819   -2.370921   -0.938272
     18          1           0        0.063727    1.876973   -0.066184
     19          1           0        0.080354    2.745622   -1.599106
     20          1           0        0.659399    3.541971   -0.127596
     21          1           0        2.014588    1.159007   -1.534724
     22          1           0        2.566828    2.820408   -1.599621
     23          1           0        3.952100    1.683539    0.019012
     24          1           0        2.908391    2.797130    0.903674
     25          1           0        3.038757    0.689696    2.108991
     26          1           0        1.396914    0.861851    1.484885
     27          1           0        0.141572   -0.894818    2.178006
     28          1           0       -2.254676   -0.179051    2.210524
     29          1           0       -2.391017   -0.415228   -2.063820
     30          1           0        0.020507   -1.114957   -2.104685
     31          1           0        2.898833   -2.186427   -1.196838
     32          1           0        1.945643   -3.248758   -0.415185
 ---------------------------------------------------------------------

 SCF Done:  E(UB3LYP) =  -818.364395837     A.U. after   21 cycles

 The electronic state is 2-A.
 Alpha  occ. eigenvalues --  -18.99376 -18.95101 -18.95098 -14.33014 -14.27275
 Alpha  occ. eigenvalues --  -14.23995 -10.17356 -10.08433 -10.08357 -10.08249
 Alpha  occ. eigenvalues --  -10.07631 -10.06615 -10.05987 -10.05740 -10.05214
 Alpha  occ. eigenvalues --  -10.04667 -10.04538  -1.03134  -0.95745  -0.88400
 Alpha  occ. eigenvalues --   -0.86007  -0.75196  -0.72175  -0.70368  -0.64944
 Alpha  occ. eigenvalues --   -0.63276  -0.62996  -0.56935  -0.55019  -0.50167
 Alpha  occ. eigenvalues --   -0.48963  -0.47298  -0.44396  -0.42099  -0.40669
 Alpha  occ. eigenvalues --   -0.40125  -0.37784  -0.37189  -0.35445  -0.35387
 Alpha  occ. eigenvalues --   -0.34280  -0.33155  -0.32410  -0.31562  -0.30922
 Alpha  occ. eigenvalues --   -0.30727  -0.30023  -0.29064  -0.28070  -0.26990
 Alpha  occ. eigenvalues --   -0.24787  -0.24641  -0.23792  -0.23720  -0.22836
 Alpha  occ. eigenvalues --   -0.21339  -0.17364  -0.16514  -0.14710  -0.13581
 Alpha  occ. eigenvalues --   -0.12872  -0.11338  -0.10792   0.01786
 Alpha virt. eigenvalues --    0.06794   0.07728   0.08317   0.09527   0.09783
 Alpha virt. eigenvalues --    0.10136   0.10422   0.11127   0.11535   0.11641
 Alpha virt. eigenvalues --    0.12398   0.13141   0.13826   0.14145   0.14342

  Beta  occ. eigenvalues --  -18.99308 -18.94643 -18.94635 -14.32460 -14.27320
  Beta  occ. eigenvalues --  -14.23968 -10.17294 -10.08363 -10.08244 -10.08104
  Beta  occ. eigenvalues --  -10.07630 -10.06491 -10.05986 -10.05807 -10.05271
  Beta  occ. eigenvalues --  -10.04529 -10.04408  -1.02164  -0.95633  -0.88303
  Beta  occ. eigenvalues --   -0.85139  -0.74941  -0.72049  -0.70258  -0.64716
  Beta  occ. eigenvalues --   -0.62974  -0.62789  -0.56767  -0.54461  -0.49976
  Beta  occ. eigenvalues --   -0.48888  -0.47005  -0.44136  -0.42047  -0.40494
  Beta  occ. eigenvalues --   -0.40074  -0.37639  -0.36697  -0.35345  -0.34007
  Beta  occ. eigenvalues --   -0.33040  -0.32635  -0.32305  -0.31248  -0.30688
  Beta  occ. eigenvalues --   -0.30571  -0.29963  -0.29017  -0.27844  -0.26831
  Beta  occ. eigenvalues --   -0.24650  -0.24081  -0.23749  -0.23683  -0.22718
  Beta  occ. eigenvalues --   -0.21232  -0.17107  -0.16037  -0.13581  -0.12405
  Beta  occ. eigenvalues --   -0.10877  -0.10513  -0.10254
  Beta virt. eigenvalues --    0.06661   0.07697   0.08099   0.08401   0.09514
  Beta virt. eigenvalues --    0.10022   0.10456   0.10707   0.11299   0.11523
  Beta virt. eigenvalues --    0.11871   0.12421   0.13673   0.14075   0.14124

 Mulliken charges and spin densities:
               1          2
     1  C   -0.470053  -0.060297
     2  C   -0.139916   0.037367
     3  C   -0.396895  -0.009509
     4  C   -0.048056  -0.008038
     5  C   -0.171988   0.031730
     6  O   -0.364750   0.022542
     7  N    0.120099  -0.012281
     8  C   -0.286170   0.158891
     9  C   -0.309825  -0.026399
    10  C   -0.317541   0.156753
    11  C   -0.060357  -0.014293
    12  C   -0.258846   0.149570
    13  C    0.012073  -0.011931
    14  N   -0.286398   0.182017
    15  O   -0.171785   0.176264
    16  O   -0.177863   0.178042
    17  N   -0.274952  -0.003915
    18  H    0.137875   0.029820
    19  H    0.108724   0.009110
    20  H    0.115944   0.000932
    21  H    0.153327   0.000278
    22  H    0.163470   0.000914
    23  H    0.161736   0.000708
    24  H    0.127115   0.005466
    25  H    0.196062   0.007254
    26  H    0.150658   0.001384
    27  H    0.150677   0.001212
    28  H    0.232678  -0.008348
    29  H    0.228748  -0.008369
    30  H    0.191016   0.000935
    31  H    0.231737   0.004018
    32  H    0.253457   0.008171
 Sum of Mulliken charges =  -1.00000   1.00000

 Dipole moment (field-independent basis, Debye):
    X=             10.7161    Y=              0.1660    Z=              0.1653  Tot=             10.7187
 Quadrupole moment (field-independent basis, Debye-Ang):
   XX=           -197.3321   YY=           -108.4197   ZZ=           -110.0102
   XY=              8.6073   XZ=              0.7872   YZ=             -1.0726

 Summary of Natural Population Analysis:

                                       Natural Population
                Natural  -----------------------------------------------
    Atom  No    Charge         Core      Valence    Rydberg      Total
 -----------------------------------------------------------------------
      C    1   -0.28946      0.99967     2.28448    0.00531     3.28946
      C    2   -0.19267      0.99964     2.18658    0.00645     3.19267
      C    3   -0.18244      0.99963     2.17599    0.00682     3.18244
      C    4   -0.23550      0.99958     2.22733    0.00859     3.23550
      C    5    0.34630      0.99965     1.63061    0.02344     2.65370
      O    6   -0.33602      0.99988     3.32967    0.00648     4.33602
      N    7   -0.17077      0.99959     2.65853    0.01265     3.67077
      C    8    0.11959      0.99946     1.86791    0.01303     2.88041
      C    9   -0.13826      0.99953     2.13053    0.00819     3.13826
      C   10   -0.06907      0.99953     2.06008    0.00947     3.06907
      C   11    0.05368      0.99940     1.93118    0.01574     2.94632
      C   12   -0.06842      0.99953     2.05964    0.00925     3.06842
      C   13   -0.12287      0.99953     2.11559    0.00775     3.12287
      N   14    0.29795      0.99972     2.17607    0.02627     3.20205
      O   15   -0.19471      0.99990     3.18720    0.00761     4.19471
      O   16   -0.19251      0.99990     3.18500    0.00761     4.19251
      N   17   -0.31182      0.99977     2.80156    0.01049     3.81182
      H   18    0.10888      0.00000     0.38951    0.00161     0.39112
      H   19    0.10039      0.00000     0.39870    0.00091     0.39961
      H   20    0.08933      0.00000     0.40961    0.00107     0.41067
      H   21    0.09784      0.00000     0.40100    0.00116     0.40216
      H   22    0.09023      0.00000     0.40858    0.00119     0.40977
      H   23    0.10159      0.00000     0.39725    0.00116     0.39841
      H   24    0.09161      0.00000     0.40725    0.00113     0.40839
      H   25    0.10718      0.00000     0.39182    0.00100     0.39282
      H   26    0.11399      0.00000     0.38489    0.00112     0.38601
      H   27    0.09779      0.00000     0.40083    0.00138     0.40221
      H   28    0.11431      0.00000     0.38459    0.00110     0.38569
      H   29    0.11382      0.00000     0.38507    0.00111     0.38618
      H   30    0.10562      0.00000     0.39340    0.00098     0.39438
      H   31    0.18406      0.00000     0.31407    0.00187     0.31594
      H   32    0.17037      0.00000     0.32810    0.00153     0.32963
 =======================================================================
   * Total *    0.00000     16.99391    45.80262    0.20347    63.00000

 Normal termination of Gaussian 16 at Fri Dec 11 14:06:40 2020.
