 Gaussian 16, Revision A.03,

 -----------------------------------------------------------
 # opt freq B3LYP/6-31G(d) empiricaldispersion=gd3bj scf=xqc
 -----------------------------------------------------------

 ------------------------------
 CID_82602419_JID_2923_neutraal
 ------------------------------
 Symbolic Z-matrix:
 Charge =  0 Multiplicity = 1

 SCF Done:  E(RB3LYP) =  -950.807967735     A.U. after   14 cycles
 SCF Done:  E(RB3LYP) =  -950.812364666     A.U. after   12 cycles
 SCF Done:  E(RB3LYP) =  -950.812151443     A.U. after   13 cycles
 SCF Done:  E(RB3LYP) =  -950.813075845     A.U. after   12 cycles
 SCF Done:  E(RB3LYP) =  -950.813237386     A.U. after   11 cycles
 SCF Done:  E(RB3LYP) =  -950.813276934     A.U. after   11 cycles
 SCF Done:  E(RB3LYP) =  -950.813309886     A.U. after   11 cycles
 SCF Done:  E(RB3LYP) =  -950.813352104     A.U. after   12 cycles
 SCF Done:  E(RB3LYP) =  -950.813392307     A.U. after   11 cycles
 SCF Done:  E(RB3LYP) =  -950.813435912     A.U. after   12 cycles
 SCF Done:  E(RB3LYP) =  -950.813589884     A.U. after   10 cycles
 SCF Done:  E(RB3LYP) =  -950.813590288     A.U. after   10 cycles
 SCF Done:  E(RB3LYP) =  -950.813590488     A.U. after    8 cycles
 SCF Done:  E(RB3LYP) =  -950.813590508     A.U. after    7 cycles
 SCF Done:  E(RB3LYP) =  -950.813590511     A.U. after    7 cycles
 Optimization completed.
    -- Stationary point found.
 Normal termination of Gaussian 16 at Wed Dec  9 18:34:22 2020.

 --------------------------------------------------------------------
 #N Geom=AllCheck Guess=TCheck SCRF=Check GenChk RB3LYP/6-31G(d) Freq
 --------------------------------------------------------------------

 Structure from the checkpoint file:  "JID_2923.chk"
 ------------------------------
 CID_82602419_JID_2923_neutraal
 ------------------------------
 Charge =  0 Multiplicity = 1

 SCF Done:  E(RB3LYP) =  -950.813590511     A.U. after    1 cycles

  Exact polarizability: 123.579   1.063 112.647  -4.117   3.152  69.096
 Approx polarizability: 173.234  -8.980 200.133 -12.815   7.828 106.219

                      1                      2                      3
                      A                      A                      A
 Frequencies --     18.7109                31.4333                38.9886
 Red. masses --      3.8981                 3.8709                 5.6255
 Frc consts  --      0.0008                 0.0023                 0.0050
 IR Inten    --      1.7150                 0.9290                 4.7610

                      4                      5                      6
                      A                      A                      A
 Frequencies --     54.7947                78.8148               151.7869
 Red. masses --      1.6250                 2.7585                 5.1115
 Frc consts  --      0.0029                 0.0101                 0.0694
 IR Inten    --      1.7001                 2.4669                 1.7254

                      7                      8                      9
                      A                      A                      A
 Frequencies --    176.9481               197.3290               244.6430
 Red. masses --      5.0725                 3.4641                 3.9254
 Frc consts  --      0.0936                 0.0795                 0.1384
 IR Inten    --      1.0658                 2.3577                 0.4987

                     10                     11                     12
                      A                      A                      A
 Frequencies --    311.2478               352.7842               374.9028
 Red. masses --      1.8861                 1.6731                 4.2570
 Frc consts  --      0.1077                 0.1227                 0.3525
 IR Inten    --     47.4968                58.5183                12.2899

                     13                     14                     15
                      A                      A                      A
 Frequencies --    401.8495               431.3745               501.7727
 Red. masses --      5.8499                 2.1913                 5.0494
 Frc consts  --      0.5566                 0.2402                 0.7490
 IR Inten    --      1.9829                 1.8847                 8.1998

                     16                     17                     18
                      A                      A                      A
 Frequencies --    536.7103               568.6427               600.1574
 Red. masses --      4.9968                 4.2089                 4.1845
 Frc consts  --      0.8480                 0.8019                 0.8880
 IR Inten    --      3.9136                20.7482                23.1117

                     19                     20                     21
                      A                      A                      A
 Frequencies --    634.7369               656.9066               691.8426
 Red. masses --      2.4733                 3.3756                 2.4089
 Frc consts  --      0.5871                 0.8582                 0.6793
 IR Inten    --     35.8506                27.8669                73.9679

                     22                     23                     24
                      A                      A                      A
 Frequencies --    789.9816               802.5818               888.8907
 Red. masses --      5.9637                 4.8539                 4.5335
 Frc consts  --      2.1928                 1.8421                 2.1105
 IR Inten    --      3.0727                17.8220                 4.8575

                     25                     26                     27
                      A                      A                      A
 Frequencies --    898.0796              1006.0710              1025.1999
 Red. masses --      2.9209                 2.3452                 1.7884
 Frc consts  --      1.3880                 1.3986                 1.1075
 IR Inten    --      2.6509                17.1188                15.0926

                     28                     29                     30
                      A                      A                      A
 Frequencies --   1044.2703              1074.8473              1088.8689
 Red. masses --      1.7238                 1.5124                 7.1213
 Frc consts  --      1.1076                 1.0295                 4.9746
 IR Inten    --      4.0858                 2.4350               145.0951

                     31                     32                     33
                      A                      A                      A
 Frequencies --   1154.9421              1183.6925              1194.5028
 Red. masses --      2.8964                 2.3917                 3.6639
 Frc consts  --      2.2763                 1.9744                 3.0801
 IR Inten    --     33.5315               181.8011                11.7150

                     34                     35                     36
                      A                      A                      A
 Frequencies --   1254.2933              1264.4138              1326.6610
 Red. masses --      1.0998                 1.3107                 1.7185
 Frc consts  --      1.0195                 1.2346                 1.7820
 IR Inten    --     15.3794                31.6069                 5.7900

                     37                     38                     39
                      A                      A                      A
 Frequencies --   1343.9461              1355.2388              1388.0860
 Red. masses --      1.5031                 2.7172                 2.4024
 Frc consts  --      1.5995                 2.9404                 2.7273
 IR Inten    --     40.7228                 5.4546                63.3324

                     40                     41                     42
                      A                      A                      A
 Frequencies --   1446.2747              1486.6463              1496.9733
 Red. masses --      1.3027                 1.2733                 1.1095
 Frc consts  --      1.6055                 1.6580                 1.4649
 IR Inten    --      3.5804               161.5479                 9.9858

                     43                     44                     45
                      A                      A                      A
 Frequencies --   1503.3688              1519.0373              1532.6190
 Red. masses --      1.0510                 1.1110                 1.3990
 Frc consts  --      1.3995                 1.5104                 1.9361
 IR Inten    --      7.8595                13.2969                 7.7024

                     46                     47                     48
                      A                      A                      A
 Frequencies --   1562.9164              1619.1760              1857.2296
 Red. masses --      3.0525                 5.9790                 9.7622
 Frc consts  --      4.3931                 9.2356                19.8393
 IR Inten    --     18.8553                20.4201               280.2627

                     49                     50                     51
                      A                      A                      A
 Frequencies --   2978.3835              3052.6833              3059.4332
 Red. masses --      1.0733                 1.0881                 1.0385
 Frc consts  --      5.6098                 5.9744                 5.7273
 IR Inten    --     49.1122                28.0756                18.2847

                     52                     53                     54
                      A                      A                      A
 Frequencies --   3094.2739              3112.6725              3146.2743
 Red. masses --      1.0590                 1.1013                 1.1063
 Frc consts  --      5.9738                 6.2869                 6.4522
 IR Inten    --      7.9442                12.2107                 4.0071

                     55                     56                     57
                      A                      A                      A
 Frequencies --   3159.5818              3652.4155              3683.9588
 Red. masses --      1.0992                 1.0654                 1.0640
 Frc consts  --      6.4653                 8.3737                 8.5079
 IR Inten    --     13.2839                67.8555                53.1326

 - Thermochemistry -
 -------------------
 Temperature   298.150 Kelvin.  Pressure   1.00000 Atm.
 Atom     1 has atomic number  6 and mass  12.00000

 Molecular mass:   187.03032 amu.
 Principal axes and moments of inertia in atomic units:
                           1         2         3
     Eigenvalues --  1169.659253743.993634411.78094
           X            0.99988   0.01476  -0.00433
           Y           -0.01480   0.99986  -0.00745
           Z            0.00422   0.00751   0.99996
 This molecule is an asymmetric top.
 Rotational symmetry number  1.
 Warning -- assumption of classical behavior for rotation
           may cause significant error
 Rotational temperatures (Kelvin)      0.07405     0.02313     0.01963
 Rotational constants (GHZ):           1.54296     0.48204     0.40907
 Zero-point vibrational energy     419320.2 (Joules/Mol)
                                  100.21993 (Kcal/Mol)
 Warning -- explicit consideration of  18 degrees of freedom as
           vibrations may cause significant error
 Vibrational temperatures:     26.92    45.23    56.10    78.84   113.40
          (Kelvin)            218.39   254.59   283.91   351.99   447.82
                              507.58   539.40   578.17   620.65   721.94
                              772.21   818.15   863.49   913.24   945.14
                              995.41  1136.61  1154.74  1278.92  1292.14
                             1447.51  1475.03  1502.47  1546.47  1566.64
                             1661.70  1703.07  1718.62  1804.65  1819.21
                             1908.77  1933.64  1949.89  1997.15  2080.87
                             2138.95  2153.81  2163.01  2185.56  2205.10
                             2248.69  2329.63  2672.14  4285.23  4392.13
                             4401.84  4451.97  4478.44  4526.79  4545.93
                             5255.01  5300.40

 Zero-point correction=                           0.159711 (Hartree/Particle)
 Thermal correction to Energy=                    0.172490
 Thermal correction to Enthalpy=                  0.173434
 Thermal correction to Gibbs Free Energy=         0.117210
 Sum of electronic and zero-point Energies=           -950.653880
 Sum of electronic and thermal Energies=              -950.641101
 Sum of electronic and thermal Enthalpies=            -950.640157
 Sum of electronic and thermal Free Energies=         -950.696381

                     E (Thermal)             CV                S
                      KCal/Mol        Cal/Mol-Kelvin    Cal/Mol-Kelvin
 Total                  108.239             44.172            118.334
 Electronic               0.000              0.000              0.000
 Translational            0.889              2.981             41.584
 Rotational               0.889              2.981             31.336
 Vibrational            106.461             38.211             45.414
 Vibration     1          0.593              1.986              6.766
 Vibration     2          0.594              1.983              5.737
 Vibration     3          0.594              1.981              5.310
 Vibration     4          0.596              1.976              4.636
 Vibration     5          0.600              1.963              3.920
 Vibration     6          0.619              1.901              2.650
 Vibration     7          0.628              1.871              2.360
 Vibration     8          0.637              1.844              2.158
 Vibration     9          0.660              1.772              1.769
 Vibration    10          0.700              1.652              1.356
 Vibration    11          0.729              1.570              1.154
 Vibration    12          0.746              1.524              1.060
 Vibration    13          0.767              1.466              0.956
 Vibration    14          0.792              1.402              0.854
 Vibration    15          0.857              1.246              0.654
 Vibration    16          0.892              1.169              0.572
 Vibration    17          0.925              1.099              0.507
 Vibration    18          0.958              1.031              0.449

 Optimization completed.
    -- Stationary point found.
 Normal termination of Gaussian 16 at Wed Dec  9 18:38:24 2020.

 ----------------------------------------------------------------------
 # B3LYP/6-311++G(d,p) empiricaldispersion=gd3bj scf=xqc pop=npa geom=c
 heck
 ----------------------------------------------------------------------

 --------------------------------------
 CID_82602419_JID_2923_Energie_neutraal
 --------------------------------------
 Structure from the checkpoint file:  "JID_2923.chk"
 Charge =  0 Multiplicity = 1

 SCF Done:  E(RB3LYP) =  -951.017360576     A.U. after   15 cycles
 Normal termination of Gaussian 16 at Wed Dec  9 18:39:54 2020.

 ----------------------------------------------------------------------
 # B3LYP/6-311++G(d,p) empiricaldispersion=gd3bj scf=xqc pop=npa geom=c
 heck
 ----------------------------------------------------------------------

 ------------------------------------
 CID_82602419_JID_2923_Energie_kation
 ------------------------------------
 Structure from the checkpoint file:  "JID_2923.chk"
 Charge =  1 Multiplicity = 2

 SCF Done:  E(UB3LYP) =  -950.700999167     A.U. after   25 cycles
 Normal termination of Gaussian 16 at Wed Dec  9 18:42:59 2020.
 Gaussian 16:  ES64L-G16RevA.03 25-Dec-2016

 ----------------------------------------------------------------------
 # B3LYP/6-311++G(d,p) empiricaldispersion=gd3bj scf=xqc pop=npa geom=c
 heck
 ----------------------------------------------------------------------

 -----------------------------------
 CID_82602419_JID_2923_Energie_anion
 -----------------------------------
 Structure from the checkpoint file:  "JID_2923.chk"
 Charge = -1 Multiplicity = 2

                         Standard orientation:
 ---------------------------------------------------------------------
 Center     Atomic      Atomic             Coordinates (Angstroms)
 Number     Number       Type             X           Y           Z
 ---------------------------------------------------------------------
      1          6           0        0.340249    2.548725   -0.306956
      2          6           0       -0.184873    1.145880   -0.328144
      3          6           0        0.519561    0.010259   -0.629070
      4         16           0       -0.516354   -1.394724   -0.465728
      5          6           0       -1.830171   -0.329058   -0.029629
      6          7           0       -1.514135    0.932130   -0.002551
      7          6           0       -3.240635   -0.783257    0.254176
      8          8           0       -4.001734    0.261034    0.810681
      9          6           0        1.974018   -0.140344   -0.978911
     10          6           0        2.792834   -0.403673    0.275136
     11          8           0        3.105147   -1.494076    0.691862
     12          8           0        3.100296    0.752394    0.911934
     13          1           0       -0.236121    3.185746   -0.987126
     14          1           0        0.242563    2.972370    0.698945
     15          1           0        1.394692    2.594262   -0.585824
     16          1           0       -3.689535   -1.146208   -0.686688
     17          1           0       -3.231017   -1.632438    0.950318
     18          1           0       -3.509742    1.081233    0.619309
     19          1           0        2.131053   -0.980839   -1.658762
     20          1           0        2.331734    0.771471   -1.464286
     21          1           0        3.571416    0.499070    1.728197
 ---------------------------------------------------------------------

 SCF Done:  E(UB3LYP) =  -951.012585262     A.U. after   33 cycles
 SCF Done:  E(UB3LYP) =  -951.012585262     a.u. after    1 cycles

 The electronic state is 2-A.
 Alpha  occ. eigenvalues --  -88.75118 -19.05620 -19.01290 -18.99705 -14.18710
 Alpha  occ. eigenvalues --  -10.18375 -10.12035 -10.10103 -10.08157 -10.07760
 Alpha  occ. eigenvalues --  -10.07722 -10.05385  -7.83759  -5.80044  -5.79697
 Alpha  occ. eigenvalues --   -5.79353  -0.99483  -0.92178  -0.90606  -0.83763
 Alpha  occ. eigenvalues --   -0.69798  -0.66619  -0.62496  -0.60189  -0.53956
 Alpha  occ. eigenvalues --   -0.50342  -0.46055  -0.41894  -0.39238  -0.37933
 Alpha  occ. eigenvalues --   -0.36956  -0.36036  -0.34167  -0.34127  -0.31327
 Alpha  occ. eigenvalues --   -0.31088  -0.29410  -0.29219  -0.28660  -0.26534
 Alpha  occ. eigenvalues --   -0.25823  -0.23199  -0.23062  -0.21427  -0.17731
 Alpha  occ. eigenvalues --   -0.17346  -0.16178  -0.15576  -0.11283   0.04829
 Alpha virt. eigenvalues --    0.07148   0.08488   0.08728   0.09265   0.10502
 Alpha virt. eigenvalues --    0.10948   0.11489   0.11945   0.12282   0.13166
 Alpha virt. eigenvalues --    0.13720   0.14464   0.14903   0.15445   0.16568

  Beta  occ. eigenvalues --  -88.75095 -19.05573 -19.01290 -18.99634 -14.18696
  Beta  occ. eigenvalues --  -10.18251 -10.12057 -10.09787 -10.08114 -10.07723
  Beta  occ. eigenvalues --  -10.07592 -10.05365  -7.83738  -5.80036  -5.79692
  Beta  occ. eigenvalues --   -5.79271  -0.99349  -0.92160  -0.90483  -0.83548
  Beta  occ. eigenvalues --   -0.69577  -0.66380  -0.62346  -0.60076  -0.53798
  Beta  occ. eigenvalues --   -0.50160  -0.45813  -0.41727  -0.39081  -0.37718
  Beta  occ. eigenvalues --   -0.36827  -0.35746  -0.34075  -0.33825  -0.31134
  Beta  occ. eigenvalues --   -0.30942  -0.29300  -0.29064  -0.28508  -0.26436
  Beta  occ. eigenvalues --   -0.25355  -0.23083  -0.22899  -0.21125  -0.17604
  Beta  occ. eigenvalues --   -0.17194  -0.16104  -0.15130  -0.10347
  Beta virt. eigenvalues --    0.07572   0.08439   0.08914   0.09180   0.10164
  Beta virt. eigenvalues --    0.10869   0.11384   0.11771   0.12302   0.12701
  Beta virt. eigenvalues --    0.13207   0.13840   0.14555   0.15117   0.15509

 Mulliken charges and spin densities:
               1          2
     1  C    0.262012  -1.044632
     2  C   -2.440593   0.828878
     3  C    0.966802   0.875278
     4  S   -0.259654   0.019930
     5  C   -0.115923   0.334083
     6  N    0.064621   0.021222
     7  C    0.221828  -0.408993
     8  O   -0.313497   0.007925
     9  C    1.710509  -2.026009
    10  C   -0.132322   0.122374
    11  O   -0.339436   0.067772
    12  O   -0.202925   0.058875
    13  H   -0.015278   0.154745
    14  H    0.027427   0.127722
    15  H   -0.100890   0.232005
    16  H   -0.020906   0.192399
    17  H    0.166221  -0.009225
    18  H    0.265703   0.010531
    19  H   -0.390655   0.603773
    20  H   -0.226079   0.426215
    21  H   -0.126963   0.405132
 Sum of Mulliken charges =  -1.00000   1.00000

 Dipole moment (field-independent basis, Debye):
    X=             -2.4531    Y=             -0.0126    Z=              0.5707  Tot=              2.5187
 Quadrupole moment (field-independent basis, Debye-Ang):
   XX=           -137.6070   YY=           -103.0745   ZZ=            -99.0113
   XY=              4.6041   XZ=              3.2281   YZ=             -1.6658

 Summary of Natural Population Analysis:

                                       Natural Population
                Natural  -----------------------------------------------
    Atom  No    Charge         Core      Valence    Rydberg      Total
 -----------------------------------------------------------------------
      C    1   -0.29098      0.99963     2.28636    0.00500     3.29098
      C    2    0.06915      0.99941     1.91699    0.01445     2.93085
      C    3   -0.08904      0.99941     2.07623    0.01339     3.08904
      S    4    0.19523      4.99939     2.78658    0.01880     7.80477
      C    5    0.07425      0.99961     1.90974    0.01640     2.92575
      N    6   -0.27838      0.99960     2.76629    0.01248     3.77838
      C    7   -0.02493      0.99954     2.01363    0.01176     3.02493
      O    8   -0.37491      0.99990     3.36781    0.00720     4.37491
      C    9   -0.25125      0.99953     2.23979    0.01193     3.25125
      C   10    0.42410      0.99973     1.55023    0.02593     2.57590
      O   11   -0.30591      0.99986     3.29994    0.00610     4.30591
      O   12   -0.34652      0.99988     3.33980    0.00685     4.34652
      H   13    0.10052      0.00000     0.39816    0.00132     0.39948
      H   14    0.10481      0.00000     0.39377    0.00142     0.39519
      H   15    0.10590      0.00000     0.39291    0.00118     0.39410
      H   16    0.08408      0.00000     0.41388    0.00204     0.41592
      H   17    0.08660      0.00000     0.41186    0.00154     0.41340
      H   18    0.24135      0.00000     0.25499    0.00366     0.25865
      H   19    0.11874      0.00000     0.37857    0.00269     0.38126
      H   20    0.11920      0.00000     0.37782    0.00297     0.38080
      H   21    0.23800      0.00000     0.25697    0.00503     0.26200
 =======================================================================
   * Total *   -0.00000     15.99550    32.83233    0.17217    49.00000

 Normal termination of Gaussian 16 at Wed Dec  9 18:47:02 2020.
