 Gaussian 16, Revision A.03,

 -----------------------------------------------------------
 # opt freq B3LYP/6-31G(d) empiricaldispersion=gd3bj scf=xqc
 -----------------------------------------------------------

 -------------------------------
 CID_146916080_JID_3709_neutraal
 -------------------------------
 Symbolic Z-matrix:
 Charge =  0 Multiplicity = 1

 SCF Done:  E(RB3LYP) =  -508.560883238     A.U. after   13 cycles
 SCF Done:  E(RB3LYP) =  -508.578388322     A.U. after   12 cycles
 SCF Done:  E(RB3LYP) =  -508.591077641     A.U. after   12 cycles
 SCF Done:  E(RB3LYP) =  -508.591305845     A.U. after    7 cycles
 SCF Done:  E(RB3LYP) =  -508.600902188     A.U. after   11 cycles
 SCF Done:  E(RB3LYP) =  -508.589219222     A.U. after   12 cycles
 SCF Done:  E(RB3LYP) =  -508.607681374     A.U. after   11 cycles
 SCF Done:  E(RB3LYP) =  -508.608471946     A.U. after   10 cycles
 SCF Done:  E(RB3LYP) =  -508.608880512     A.U. after   10 cycles
 SCF Done:  E(RB3LYP) =  -508.608923274     A.U. after   11 cycles
 SCF Done:  E(RB3LYP) =  -508.609213504     A.U. after    8 cycles
 SCF Done:  E(RB3LYP) =  -508.609214427     A.U. after    8 cycles
 SCF Done:  E(RB3LYP) =  -508.609215156     A.U. after    8 cycles
 SCF Done:  E(RB3LYP) =  -508.609215278     A.U. after    7 cycles
 SCF Done:  E(RB3LYP) =  -508.609215334     A.U. after    7 cycles
 Optimization completed.
    -- Stationary point found.
 Normal termination of Gaussian 16 at Sun Dec 13 16:26:18 2020.

 --------------------------------------------------------------------
 #N Geom=AllCheck Guess=TCheck SCRF=Check GenChk RB3LYP/6-31G(d) Freq
 --------------------------------------------------------------------

 Structure from the checkpoint file:  "JID_3709.chk"
 -------------------------------
 CID_146916080_JID_3709_neutraal
 -------------------------------
 Charge =  0 Multiplicity = 1

 SCF Done:  E(RB3LYP) =  -508.609215334     A.U. after    1 cycles

  Exact polarizability: 156.790  -7.541 115.724   0.929  -1.838 117.835
 Approx polarizability: 182.335 -13.712 173.726   2.027  -6.588 183.552

                      1                      2                      3
                      A                      A                      A
 Frequencies --     21.5851                33.8778                38.5816
 Red. masses --      1.9105                 3.6214                 3.8469
 Frc consts  --      0.0005                 0.0024                 0.0034
 IR Inten    --      0.0067                 0.1170                 0.0548

                      4                      5                      6
                      A                      A                      A
 Frequencies --     55.5105                69.0559                77.2092
 Red. masses --      2.4544                 2.8300                 2.9590
 Frc consts  --      0.0045                 0.0080                 0.0104
 IR Inten    --      0.2458                 0.2976                 0.0473

                      7                      8                      9
                      A                      A                      A
 Frequencies --    131.0616               148.3359               197.3307
 Red. masses --      2.9546                 2.9002                 2.3642
 Frc consts  --      0.0299                 0.0376                 0.0542
 IR Inten    --      0.0781                 0.1102                 0.1650

                     10                     11                     12
                      A                      A                      A
 Frequencies --    253.4220               279.6564               330.3387
 Red. masses --      2.5352                 2.2169                 2.3112
 Frc consts  --      0.0959                 0.1021                 0.1486
 IR Inten    --      0.3897                 0.6701                 3.3841

                     13                     14                     15
                      A                      A                      A
 Frequencies --    348.9633               406.4509               425.7294
 Red. masses --      2.0570                 2.1326                 1.8127
 Frc consts  --      0.1476                 0.2076                 0.1936
 IR Inten    --      1.0393                 1.1040                 0.1911

                     16                     17                     18
                      A                      A                      A
 Frequencies --    481.1567               538.1343               574.0134
 Red. masses --      2.3244                 2.4262                 2.5150
 Frc consts  --      0.3171                 0.4140                 0.4882
 IR Inten    --      2.6382                 4.3477                 1.2140

                     19                     20                     21
                      A                      A                      A
 Frequencies --    623.8705               660.4249               728.1883
 Red. masses --      2.6003                 2.4759                 1.3408
 Frc consts  --      0.5963                 0.6362                 0.4189
 IR Inten    --      0.0845                 6.1756                 8.5463

                     22                     23                     24
                      A                      A                      A
 Frequencies --    740.9832               777.7910               793.7020
 Red. masses --      1.4568                 1.2103                 2.0810
 Frc consts  --      0.4713                 0.4314                 0.7724
 IR Inten    --     21.7639                 3.8001                 1.5019

                     25                     26                     27
                      A                      A                      A
 Frequencies --    830.9729               852.8057               888.1739
 Red. masses --      1.9003                 2.0615                 2.3487
 Frc consts  --      0.7731                 0.8834                 1.0916
 IR Inten    --      0.3174                 0.8881                 0.7900

                     28                     29                     30
                      A                      A                      A
 Frequencies --    897.6552               905.8416               941.4352
 Red. masses --      2.2978                 2.0751                 1.8203
 Frc consts  --      1.0909                 1.0032                 0.9505
 IR Inten    --      1.4403                 0.7763                 2.3855

                     31                     32                     33
                      A                      A                      A
 Frequencies --    956.2528               963.7859               980.1364
 Red. masses --      2.0217                 1.4715                 1.6401
 Frc consts  --      1.0892                 0.8053                 0.9283
 IR Inten    --      4.1167                10.9676                 0.7834

                     34                     35                     36
                      A                      A                      A
 Frequencies --    999.1115              1008.2426              1016.3245
 Red. masses --      1.4503                 1.5332                 1.4660
 Frc consts  --      0.8530                 0.9183                 0.8922
 IR Inten    --      1.1822                 0.3205                 0.1074

                     37                     38                     39
                      A                      A                      A
 Frequencies --   1019.3557              1054.2561              1057.1168
 Red. masses --      1.3101                 2.0427                 1.9189
 Frc consts  --      0.8021                 1.3377                 1.2634
 IR Inten    --      0.3712                 1.0133                 3.7719

                     40                     41                     42
                      A                      A                      A
 Frequencies --   1070.1972              1082.3080              1109.7221
 Red. masses --      1.6680                 1.7864                 2.2523
 Frc consts  --      1.1256                 1.2329                 1.6342
 IR Inten    --      2.0305                32.5633                 0.8581

                     43                     44                     45
                      A                      A                      A
 Frequencies --   1116.0778              1127.9422              1136.2011
 Red. masses --      1.4626                 2.1272                 1.9065
 Frc consts  --      1.0734                 1.5945                 1.4501
 IR Inten    --      0.5120                 2.1512                 0.7212

                     46                     47                     48
                      A                      A                      A
 Frequencies --   1157.4979              1185.6895              1202.3209
 Red. masses --      1.7050                 1.8605                 1.3601
 Frc consts  --      1.3459                 1.5411                 1.1584
 IR Inten    --      0.2320                 0.2885                 0.1696

                     49                     50                     51
                      A                      A                      A
 Frequencies --   1222.9574              1229.5958              1245.3744
 Red. masses --      1.4613                 1.3954                 1.5259
 Frc consts  --      1.2877                 1.2430                 1.3943
 IR Inten    --      0.3840                 1.8070                 1.5945

                     52                     53                     54
                      A                      A                      A
 Frequencies --   1271.6781              1283.2607              1299.3469
 Red. masses --      1.3769                 1.1954                 1.3186
 Frc consts  --      1.3119                 1.1598                 1.3116
 IR Inten    --      1.0230                 1.9884                 1.9192

                     55                     56                     57
                      A                      A                      A
 Frequencies --   1313.2583              1330.9441              1341.3613
 Red. masses --      1.2831                 1.2080                 1.3246
 Frc consts  --      1.3038                 1.2608                 1.4042
 IR Inten    --      0.3544                 1.6565                 1.1140

                     58                     59                     60
                      A                      A                      A
 Frequencies --   1350.1664              1360.3905              1364.5183
 Red. masses --      1.1636                 1.3205                 1.3707
 Frc consts  --      1.2497                 1.4398                 1.5037
 IR Inten    --      4.0773                 0.4167                 3.5716

                     61                     62                     63
                      A                      A                      A
 Frequencies --   1370.0053              1386.6367              1397.6833
 Red. masses --      1.3355                 1.3992                 1.4360
 Frc consts  --      1.4769                 1.5851                 1.6529
 IR Inten    --      5.8343                 8.4611                 1.7729

                     64                     65                     66
                      A                      A                      A
 Frequencies --   1410.6418              1420.7505              1429.6585
 Red. masses --      1.4879                 1.4127                 1.5419
 Frc consts  --      1.7444                 1.6801                 1.8568
 IR Inten    --      2.9347                 1.5451                 1.1147

                     67                     68                     69
                      A                      A                      A
 Frequencies --   1502.2328              1511.8426              1515.1235
 Red. masses --      1.0833                 1.0921                 1.0794
 Frc consts  --      1.4404                 1.4707                 1.4600
 IR Inten    --      3.2908                 5.3698                 0.0469

                     70                     71                     72
                      A                      A                      A
 Frequencies --   1521.3597              1523.0275              1525.1137
 Red. masses --      1.0834                 1.0862                 1.0876
 Frc consts  --      1.4774                 1.4844                 1.4905
 IR Inten    --      3.5572                 9.8817                 3.8122

                     73                     74                     75
                      A                      A                      A
 Frequencies --   1529.1314              1535.3356              1549.5105
 Red. masses --      1.0810                 1.0967                 1.1039
 Frc consts  --      1.4892                 1.5231                 1.5616
 IR Inten    --      1.3939                 1.7376                 0.4542

                     76                     77                     78
                      A                      A                      A
 Frequencies --   1555.6214              1875.0907              3009.5067
 Red. masses --      1.1002                 7.1482                 1.0807
 Frc consts  --      1.5687                14.8079                 5.7668
 IR Inten    --      6.0660                 9.2759                 7.8298

                     79                     80                     81
                      A                      A                      A
 Frequencies --   3020.2826              3029.8195              3030.6974
 Red. masses --      1.0617                 1.0676                 1.0639
 Frc consts  --      5.7063                 5.7743                 5.7573
 IR Inten    --     12.1316                42.7568                20.6976

                     82                     83                     84
                      A                      A                      A
 Frequencies --   3037.2008              3037.5327              3040.1722
 Red. masses --      1.0554                 1.0568                 1.0700
 Frc consts  --      5.7362                 5.7450                 5.8268
 IR Inten    --     43.9428                36.6584                47.6295

                     85                     86                     87
                      A                      A                      A
 Frequencies --   3042.2786              3050.1199              3052.1464
 Red. masses --      1.0630                 1.0652                 1.0615
 Frc consts  --      5.7965                 5.8389                 5.8261
 IR Inten    --     17.1484                24.8551                 7.3245

                     88                     89                     90
                      A                      A                      A
 Frequencies --   3055.7015              3067.2077              3070.0647
 Red. masses --      1.0950                 1.0645                 1.1001
 Frc consts  --      6.0241                 5.9005                 6.1090
 IR Inten    --     48.4884                53.2329                23.3226

                     91                     92                     93
                      A                      A                      A
 Frequencies --   3074.6876              3083.9022              3086.6342
 Red. masses --      1.0993                 1.0997                 1.0970
 Frc consts  --      6.1231                 6.1622                 6.1576
 IR Inten    --     49.4753                88.2893                28.4130

                     94                     95                     96
                      A                      A                      A
 Frequencies --   3091.4587              3091.8761              3093.1810
 Red. masses --      1.1038                 1.1081                 1.1048
 Frc consts  --      6.2153                 6.2411                 6.2282
 IR Inten    --     85.7246                22.1697                63.7994

                     97                     98                     99
                      A                      A                      A
 Frequencies --   3099.2991              3113.9470              3286.2498
 Red. masses --      1.0987                 1.1052                 1.1147
 Frc consts  --      6.2183                 6.3140                 7.0929
 IR Inten    --     15.3769                92.3334                 0.5502

 - Thermochemistry -
 -------------------
 Temperature   298.150 Kelvin.  Pressure   1.00000 Atm.
 Atom     1 has atomic number  6 and mass  12.00000

 Molecular mass:   178.17215 amu.
 Principal axes and moments of inertia in atomic units:
                           1         2         3
     Eigenvalues --   787.064906417.871736557.55226
           X            1.00000  -0.00060  -0.00204
           Y            0.00062   0.99998   0.00657
           Z            0.00204  -0.00657   0.99998
 This molecule is an asymmetric top.
 Rotational symmetry number  1.
 Warning -- assumption of classical behavior for rotation
           may cause significant error
 Rotational temperatures (Kelvin)      0.11005     0.01350     0.01321
 Rotational constants (GHZ):           2.29300     0.28121     0.27522
 Zero-point vibrational energy     849530.3 (Joules/Mol)
                                  203.04262 (Kcal/Mol)
 Warning -- explicit consideration of  18 degrees of freedom as
           vibrations may cause significant error
 Vibrational temperatures:     31.06    48.74    55.51    79.87    99.36
          (Kelvin)            111.09   188.57   213.42   283.91   364.62
                              402.36   475.28   502.08   584.79   612.53
                              692.28   774.26   825.88   897.61   950.20
                             1047.70  1066.11  1119.07  1141.96  1195.58
                             1227.00  1277.88  1291.53  1303.30  1354.52
                             1375.83  1386.67  1410.20  1437.50  1450.64
                             1462.26  1466.63  1516.84  1520.96  1539.78
                             1557.20  1596.64  1605.79  1622.86  1634.74
                             1665.38  1705.94  1729.87  1759.56  1769.11
                             1791.82  1829.66  1846.33  1869.47  1889.49
                             1914.93  1929.92  1942.59  1957.30  1963.24
                             1971.13  1995.06  2010.95  2029.60  2044.14
                             2056.96  2161.38  2175.20  2179.92  2188.90
                             2191.30  2194.30  2200.08  2209.01  2229.40
                             2238.19  2697.84  4330.01  4345.51  4359.23
                             4360.50  4369.85  4370.33  4374.13  4377.16
                             4388.44  4391.36  4396.47  4413.03  4417.14
                             4423.79  4437.05  4440.98  4447.92  4448.52
                             4450.40  4459.20  4480.28  4728.18

 Zero-point correction=                           0.323569 (Hartree/Particle)
 Thermal correction to Energy=                    0.337923
 Thermal correction to Enthalpy=                  0.338867
 Thermal correction to Gibbs Free Energy=         0.279469
 Sum of electronic and zero-point Energies=           -508.285646
 Sum of electronic and thermal Energies=              -508.271293
 Sum of electronic and thermal Enthalpies=            -508.270349
 Sum of electronic and thermal Free Energies=         -508.329746

                     E (Thermal)             CV                S
                      KCal/Mol        Cal/Mol-Kelvin    Cal/Mol-Kelvin
 Total                  212.050             53.235            125.013
 Electronic               0.000              0.000              0.000
 Translational            0.889              2.981             41.440
 Rotational               0.889              2.981             31.871
 Vibrational            210.272             47.273             51.702
 Vibration     1          0.593              1.985              6.483
 Vibration     2          0.594              1.983              5.588
 Vibration     3          0.594              1.981              5.331
 Vibration     4          0.596              1.975              4.611
 Vibration     5          0.598              1.969              4.180
 Vibration     6          0.599              1.964              3.961
 Vibration     7          0.612              1.922              2.930
 Vibration     8          0.618              1.904              2.693
 Vibration     9          0.637              1.844              2.158
 Vibration    10          0.665              1.757              1.707
 Vibration    11          0.680              1.711              1.536
 Vibration    12          0.713              1.615              1.258
 Vibration    13          0.726              1.577              1.171
 Vibration    14          0.771              1.456              0.939
 Vibration    15          0.788              1.414              0.873
 Vibration    16          0.837              1.292              0.707
 Vibration    17          0.893              1.166              0.569
 Vibration    18          0.930              1.087              0.497

 Optimization completed.
    -- Stationary point found.
 Normal termination of Gaussian 16 at Sun Dec 13 16:35:06 2020.

 ----------------------------------------------------------------------
 # B3LYP/6-311++G(d,p) empiricaldispersion=gd3bj scf=xqc pop=npa geom=c
 heck
 ----------------------------------------------------------------------

 ---------------------------------------
 CID_146916080_JID_3709_Energie_neutraal
 ---------------------------------------
 Structure from the checkpoint file:  "JID_3709.chk"
 Charge =  0 Multiplicity = 1

 SCF Done:  E(RB3LYP) =  -508.745523396     A.U. after   13 cycles
 Normal termination of Gaussian 16 at Sun Dec 13 16:38:46 2020.

 ----------------------------------------------------------------------
 # B3LYP/6-311++G(d,p) empiricaldispersion=gd3bj scf=xqc pop=npa geom=c
 heck
 ----------------------------------------------------------------------

 -------------------------------------
 CID_146916080_JID_3709_Energie_kation
 -------------------------------------
 Structure from the checkpoint file:  "JID_3709.chk"
 Charge =  1 Multiplicity = 2

 SCF Done:  E(UB3LYP) =  -508.422935108     A.U. after   31 cycles
 Normal termination of Gaussian 16 at Sun Dec 13 16:50:19 2020.
 Gaussian 16:  ES64L-G16RevA.03 25-Dec-2016

 ----------------------------------------------------------------------
 # B3LYP/6-311++G(d,p) empiricaldispersion=gd3bj scf=xqc pop=npa geom=c
 heck
 ----------------------------------------------------------------------

 ------------------------------------
 CID_146916080_JID_3709_Energie_anion
 ------------------------------------
 Structure from the checkpoint file:  "JID_3709.chk"
 Charge = -1 Multiplicity = 2

                         Standard orientation:
 ---------------------------------------------------------------------
 Center     Atomic      Atomic             Coordinates (Angstroms)
 Number     Number       Type             X           Y           Z
 ---------------------------------------------------------------------
      1          6           0       -4.141266   -0.879954   -0.488609
      2          6           0       -4.291717    0.665821   -0.434912
      3          6           0       -3.127396    1.145356    0.446262
      4          6           0       -1.986272    0.175194    0.100199
      5          6           0       -2.709353   -1.186392    0.031026
      6          6           0       -0.802984    0.223200    1.068726
      7          6           0        0.319764   -0.780952    0.765124
      8          6           0        0.941569   -0.660574   -0.634823
      9          6           0        1.505431    0.725280   -0.978454
     10          6           0        2.569027    1.234844    0.014757
     11          6           0        3.711199    0.300543    0.135989
     12          6           0        4.501990   -0.469846    0.816092
     13          6           0        4.750755   -0.445977   -0.669991
     14          1           0       -4.289166   -1.253453   -1.507176
     15          1           0       -4.893324   -1.373063    0.136208
     16          1           0       -4.184682    1.088341   -1.441519
     17          1           0       -5.269985    0.982646   -0.058933
     18          1           0       -3.384014    1.037036    1.510040
     19          1           0       -2.862981    2.195850    0.279579
     20          1           0       -1.632619    0.429149   -0.910372
     21          1           0       -2.756316   -1.615666    1.040867
     22          1           0       -2.180490   -1.911867   -0.595548
     23          1           0       -0.394165    1.243031    1.083541
     24          1           0       -1.177285    0.033963    2.085214
     25          1           0        1.108443   -0.671540    1.520445
     26          1           0       -0.067918   -1.800873    0.884516
     27          1           0        1.745907   -1.402268   -0.720600
     28          1           0        0.196499   -0.930869   -1.394006
     29          1           0        1.951667    0.687240   -1.979870
     30          1           0        0.695629    1.463651   -1.025546
     31          1           0        2.939856    2.207750   -0.337468
     32          1           0        2.125188    1.404060    1.003008
     33          1           0        4.816359   -0.883419    1.762826
     34          1           0        4.452648   -1.299624   -1.289076
     35          1           0        5.616257    0.090666   -1.074451
 ---------------------------------------------------------------------

 SCF Done:  E(UB3LYP) =  -508.728920306     A.U. after   33 cycles
 SCF Done:  E(UB3LYP) =  -508.728920306     a.u. after    1 cycles

 The electronic state is 2-A.
 Alpha  occ. eigenvalues --  -10.09341 -10.08465 -10.08438 -10.08272 -10.06969
 Alpha  occ. eigenvalues --  -10.06494 -10.06373 -10.06346 -10.06225 -10.06176
 Alpha  occ. eigenvalues --  -10.06131 -10.06004 -10.05890  -0.77950  -0.73994
 Alpha  occ. eigenvalues --   -0.70803  -0.66525  -0.61894  -0.60580  -0.57610
 Alpha  occ. eigenvalues --   -0.52893  -0.49982  -0.47439  -0.46641  -0.44576
 Alpha  occ. eigenvalues --   -0.43489  -0.39115  -0.38046  -0.37973  -0.35900
 Alpha  occ. eigenvalues --   -0.35240  -0.33504  -0.32901  -0.31434  -0.30888
 Alpha  occ. eigenvalues --   -0.29683  -0.28459  -0.26978  -0.25551  -0.23932
 Alpha  occ. eigenvalues --   -0.23778  -0.23658  -0.23289  -0.22440  -0.21875
 Alpha  occ. eigenvalues --   -0.21208  -0.20910  -0.20405  -0.19240  -0.15070
 Alpha  occ. eigenvalues --    0.04533
 Alpha virt. eigenvalues --    0.06269   0.06783   0.07359   0.07960   0.08097
 Alpha virt. eigenvalues --    0.08608   0.09457   0.09835   0.10157   0.10284
 Alpha virt. eigenvalues --    0.10393   0.10836   0.11776   0.11861   0.12827

  Beta  occ. eigenvalues --  -10.09336 -10.08446 -10.08421 -10.08255 -10.06949
  Beta  occ. eigenvalues --  -10.06484 -10.06363 -10.06338 -10.06206 -10.06162
  Beta  occ. eigenvalues --  -10.06112 -10.05987 -10.05871  -0.77932  -0.73966
  Beta  occ. eigenvalues --   -0.70775  -0.66491  -0.61857  -0.60537  -0.57567
  Beta  occ. eigenvalues --   -0.52846  -0.49932  -0.47389  -0.46577  -0.44524
  Beta  occ. eigenvalues --   -0.43438  -0.39076  -0.38007  -0.37929  -0.35854
  Beta  occ. eigenvalues --   -0.35211  -0.33477  -0.32873  -0.31402  -0.30854
  Beta  occ. eigenvalues --   -0.29652  -0.28427  -0.26953  -0.25525  -0.23895
  Beta  occ. eigenvalues --   -0.23741  -0.23620  -0.23264  -0.22407  -0.21844
  Beta  occ. eigenvalues --   -0.21181  -0.20873  -0.20378  -0.19214  -0.15015
  Beta virt. eigenvalues --    0.06490   0.06975   0.07374   0.07806   0.08362
  Beta virt. eigenvalues --    0.08495   0.08896   0.09727   0.10170   0.10442
  Beta virt. eigenvalues --    0.10564   0.10771   0.11053   0.12079   0.12178

 Mulliken charges and spin densities:
               1          2
     1  C    0.730108  -1.199499
     2  C   -0.304937  -0.066294
     3  C    0.487471  -0.981943
     4  C   -0.734423   1.426910
     5  C    0.334126  -0.923075
     6  C   -0.230431  -0.238113
     7  C   -0.102678  -0.167292
     8  C    0.330387  -0.433223
     9  C    0.024078  -0.378795
    10  C    0.940339  -1.305065
    11  C    1.069455  -0.676329
    12  C   -1.950283   1.662872
    13  C    0.304727  -0.885011
    14  H   -0.208935   0.350386
    15  H   -0.113907   0.243101
    16  H   -0.199398   0.342939
    17  H   -0.104001   0.257054
    18  H   -0.002380   0.119502
    19  H   -0.298272   0.452041
    20  H    0.433213  -0.310823
    21  H   -0.024085   0.173798
    22  H    0.065475   0.075784
    23  H    0.237076  -0.074339
    24  H   -0.107224   0.244052
    25  H    0.031101   0.153207
    26  H    0.067557   0.083685
    27  H    0.133108   0.021310
    28  H   -0.328819   0.523990
    29  H   -0.011070   0.168905
    30  H   -0.435806   0.611555
    31  H   -0.326107   0.516540
    32  H   -0.136915   0.282215
    33  H   -0.492627   0.643501
    34  H   -0.011437   0.113284
    35  H   -0.064487   0.173173
 Sum of Mulliken charges =  -1.00000   1.00000

 Dipole moment (field-independent basis, Debye):
    X=              0.5178    Y=             -2.0785    Z=              1.4577  Tot=              2.5910
 Quadrupole moment (field-independent basis, Debye-Ang):
   XX=           -181.3103   YY=           -123.9721   ZZ=           -118.7951
   XY=             -1.7579   XZ=             -4.0287   YZ=              1.4385

 Summary of Natural Population Analysis:

                                       Natural Population
                Natural  -----------------------------------------------
    Atom  No    Charge         Core      Valence    Rydberg      Total
 -----------------------------------------------------------------------
      C    1   -0.19083      0.99965     2.18442    0.00676     3.19083
      C    2   -0.18957      0.99964     2.18313    0.00680     3.18957
      C    3   -0.18772      0.99962     2.17850    0.00961     3.18772
      C    4   -0.11497      0.99959     2.10414    0.01123     3.11497
      C    5   -0.19017      0.99962     2.18351    0.00703     3.19017
      C    6   -0.18585      0.99961     2.17833    0.00791     3.18585
      C    7   -0.19004      0.99963     2.18266    0.00775     3.19004
      C    8   -0.19363      0.99962     2.18504    0.00897     3.19363
      C    9   -0.18630      0.99962     2.17707    0.00961     3.18630
      C   10   -0.21551      0.99957     2.20662    0.00932     3.21551
      C   11    0.01824      0.99948     1.96836    0.01392     2.98176
      C   12   -0.09766      0.99936     2.09067    0.00762     3.09766
      C   13   -0.20219      0.99966     2.19613    0.00640     3.20219
      H   14    0.09704      0.00000     0.40150    0.00146     0.40296
      H   15    0.09459      0.00000     0.40404    0.00137     0.40541
      H   16    0.09514      0.00000     0.40317    0.00169     0.40486
      H   17    0.09686      0.00000     0.40191    0.00123     0.40314
      H   18    0.09132      0.00000     0.40733    0.00135     0.40868
      H   19    0.10178      0.00000     0.39704    0.00117     0.39822
      H   20    0.09491      0.00000     0.40264    0.00244     0.40509
      H   21    0.09301      0.00000     0.40554    0.00144     0.40699
      H   22    0.10070      0.00000     0.39807    0.00123     0.39930
      H   23    0.09683      0.00000     0.40171    0.00146     0.40317
      H   24    0.09534      0.00000     0.40343    0.00123     0.40466
      H   25    0.09610      0.00000     0.40254    0.00136     0.40390
      H   26    0.09668      0.00000     0.40210    0.00123     0.40332
      H   27    0.09755      0.00000     0.40106    0.00139     0.40245
      H   28    0.09892      0.00000     0.39984    0.00124     0.40108
      H   29    0.09900      0.00000     0.39980    0.00120     0.40100
      H   30    0.10079      0.00000     0.39765    0.00157     0.39921
      H   31    0.11247      0.00000     0.38577    0.00176     0.38753
      H   32    0.10488      0.00000     0.39370    0.00142     0.39512
      H   33    0.10247      0.00000     0.39619    0.00134     0.39753
      H   34    0.08007      0.00000     0.41783    0.00210     0.41993
      H   35    0.07975      0.00000     0.41809    0.00216     0.42025
 =======================================================================
   * Total *    0.00000     12.99467    36.85954    0.14579    50.00000

 Normal termination of Gaussian 16 at Sun Dec 13 17:03:46 2020.
