 Gaussian 16, Revision A.03,

 -----------------------------------------------------------
 # opt freq B3LYP/6-31G(d) empiricaldispersion=gd3bj scf=xqc
 -----------------------------------------------------------

 ------------------------------
 CID_153541493_JID_868_neutraal
 ------------------------------
 Symbolic Z-matrix:
 Charge =  0 Multiplicity = 1

 SCF Done:  E(RB3LYP) =  -429.056567716     A.U. after   13 cycles
 SCF Done:  E(RB3LYP) =  -429.058416029     A.U. after   10 cycles
 SCF Done:  E(RB3LYP) =  -429.058590146     A.U. after   10 cycles
 SCF Done:  E(RB3LYP) =  -429.058627124     A.U. after    9 cycles
 SCF Done:  E(RB3LYP) =  -429.058642856     A.U. after    8 cycles
 SCF Done:  E(RB3LYP) =  -429.058645628     A.U. after    7 cycles
 SCF Done:  E(RB3LYP) =  -429.058646058     A.U. after    7 cycles
 SCF Done:  E(RB3LYP) =  -429.058646174     A.U. after    6 cycles
 Optimization completed.
    -- Stationary point found.

 1\1\GINC-NODE375\FOpt\RB3LYP\6-31G(d)\C9H18O1\VSC10255\08-Dec-2020\0\\
 # opt freq B3LYP/6-31G(d) empiricaldispersion=gd3bj scf=xqc\\CID_15354
 1493_JID_868_neutraal\\0,1\C,0.9130078127,-0.0239904744,0.0808332449\C
 ,0.3191668153,0.4459407196,-1.2549615634\C,1.2374357507,1.5168609686,-
 1.8684973235\C,0.7886535433,2.2314607233,-3.1576362403\C,-0.6769451331
 ,2.7240337608,-3.1871610115\C,-1.6537206436,1.7256202572,-3.8343070572
 \O,-1.8030260029,0.469391492,-3.1960421927\C,-0.7631510614,-0.47535479
 51,-3.4273817975\C,0.035972362,-0.7695638253,-2.1502614435\C,-0.783750

 Normal termination of Gaussian 16 at Tue Dec  8 12:57:08 2020.

 --------------------------------------------------------------------
 #N Geom=AllCheck Guess=TCheck SCRF=Check GenChk RB3LYP/6-31G(d) Freq
 --------------------------------------------------------------------

 Structure from the checkpoint file:  "JID_868.chk"
 ------------------------------
 CID_153541493_JID_868_neutraal
 ------------------------------
 Charge =  0 Multiplicity = 1

 SCF Done:  E(RB3LYP) =  -429.058646174     A.U. after    1 cycles

  Exact polarizability: 109.991   1.640  94.901   1.080   1.156  83.759
 Approx polarizability: 132.781   2.644 128.964   1.584   0.130 131.099

                      1                      2                      3
                      A                      A                      A
 Frequencies --     85.1230               128.8226               155.1202
 Red. masses --      2.5890                 2.4968                 2.1520
 Frc consts  --      0.0111                 0.0244                 0.0305
 IR Inten    --      0.6320                 0.3070                 0.4829

                      4                      5                      6
                      A                      A                      A
 Frequencies --    214.5628               230.6255               233.5043
 Red. masses --      2.8345                 1.3521                 1.1256
 Frc consts  --      0.0769                 0.0424                 0.0362
 IR Inten    --      3.0292                 0.3727                 0.0403

                      7                      8                      9
                      A                      A                      A
 Frequencies --    254.2826               310.2592               314.4433
 Red. masses --      2.0498                 2.3723                 2.3190
 Frc consts  --      0.0781                 0.1345                 0.1351
 IR Inten    --      0.8237                 0.2321                 0.0576

                     10                     11                     12
                      A                      A                      A
 Frequencies --    361.9883               367.4358               401.2102
 Red. masses --      2.3601                 2.3327                 2.1118
 Frc consts  --      0.1822                 0.1856                 0.2003
 IR Inten    --      0.1954                 1.7393                 0.2717

                     13                     14                     15
                      A                      A                      A
 Frequencies --    422.0875               506.7430               547.8952
 Red. masses --      2.6366                 2.3769                 2.4874
 Frc consts  --      0.2768                 0.3596                 0.4399
 IR Inten    --      2.7364                 6.6323                 2.0136

                     16                     17                     18
                      A                      A                      A
 Frequencies --    588.7407               743.9014               797.2821
 Red. masses --      3.3467                 1.9991                 1.8040
 Frc consts  --      0.6835                 0.6518                 0.6756
 IR Inten    --      0.8370                 1.5293                 0.9402

                     19                     20                     21
                      A                      A                      A
 Frequencies --    829.9756               867.0817               895.6837
 Red. masses --      1.6704                 1.9954                 1.8452
 Frc consts  --      0.6780                 0.8839                 0.8722
 IR Inten    --      4.6876                 3.4051                 3.5542

                     22                     23                     24
                      A                      A                      A
 Frequencies --    943.9104               951.3567               969.2076
 Red. masses --      1.5501                 1.5993                 1.7827
 Frc consts  --      0.8137                 0.8528                 0.9866
 IR Inten    --      1.4417                 0.4375                 6.9445

                     25                     26                     27
                      A                      A                      A
 Frequencies --    974.9959              1013.4093              1045.9733
 Red. masses --      1.6082                 2.1807                 2.3545
 Frc consts  --      0.9007                 1.3195                 1.5177
 IR Inten    --      2.2349                 7.7991                 6.5732

                     28                     29                     30
                      A                      A                      A
 Frequencies --   1058.3387              1085.5526              1096.6913
 Red. masses --      1.9602                 1.7266                 1.9104
 Frc consts  --      1.2936                 1.1988                 1.3538
 IR Inten    --      5.1440                 1.5206                 5.1082

                     31                     32                     33
                      A                      A                      A
 Frequencies --   1124.0722              1154.2573              1172.4281
 Red. masses --      2.5948                 3.2772                 2.0140
 Frc consts  --      1.9317                 2.5725                 1.6311
 IR Inten    --      6.6418               122.1632                 6.5241

                     34                     35                     36
                      A                      A                      A
 Frequencies --   1192.5224              1202.4249              1227.2302
 Red. masses --      2.2524                 2.1962                 1.4728
 Frc consts  --      1.8872                 1.8708                 1.3069
 IR Inten    --      4.3857                23.8555                14.9072

                     37                     38                     39
                      A                      A                      A
 Frequencies --   1272.6016              1303.6982              1317.3247
 Red. masses --      1.2689                 1.2228                 1.3267
 Frc consts  --      1.2108                 1.2245                 1.3565
 IR Inten    --      1.5647                13.2826                 3.6717

                     40                     41                     42
                      A                      A                      A
 Frequencies --   1333.5773              1336.5500              1353.8540
 Red. masses --      1.2069                 1.2934                 1.1983
 Frc consts  --      1.2646                 1.3613                 1.2940
 IR Inten    --      0.7402                 0.6580                 3.1306

                     43                     44                     45
                      A                      A                      A
 Frequencies --   1376.3690              1386.9157              1408.6854
 Red. masses --      1.2450                 1.2300                 1.3789
 Frc consts  --      1.3896                 1.3940                 1.6121
 IR Inten    --      7.6867                 0.6073                 5.5143

                     46                     47                     48
                      A                      A                      A
 Frequencies --   1417.2141              1428.1957              1432.1531
 Red. masses --      1.3823                 1.2864                 1.4202
 Frc consts  --      1.6358                 1.5459                 1.7162
 IR Inten    --      5.2328                 9.3606                 0.2657

                     49                     50                     51
                      A                      A                      A
 Frequencies --   1437.3153              1444.9001              1452.7382
 Red. masses --      1.2461                 1.2723                 1.2895
 Frc consts  --      1.5167                 1.5650                 1.6034
 IR Inten    --      7.9832                 6.3235                 4.9468

                     52                     53                     54
                      A                      A                      A
 Frequencies --   1505.5298              1517.8419              1518.6939
 Red. masses --      1.0839                 1.0824                 1.0890
 Frc consts  --      1.4475                 1.4693                 1.4799
 IR Inten    --      0.1980                 0.2632                 2.5514

                     55                     56                     57
                      A                      A                      A
 Frequencies --   1525.9037              1529.5692              1530.2830
 Red. masses --      1.0775                 1.0445                 1.0481
 Frc consts  --      1.4782                 1.4398                 1.4461
 IR Inten    --      1.7075                 6.0153                 5.2833

                     58                     59                     60
                      A                      A                      A
 Frequencies --   1533.0003              1534.2163              1557.6538
 Red. masses --      1.0612                 1.0691                 1.0834
 Frc consts  --      1.4694                 1.4827                 1.5487
 IR Inten    --      0.4909                 7.6045                 4.9376

                     61                     62                     63
                      A                      A                      A
 Frequencies --   2973.6124              3012.6656              3020.7387
 Red. masses --      1.0701                 1.0601                 1.0607
 Frc consts  --      5.5752                 5.6687                 5.7027
 IR Inten    --     46.4437                21.6495                16.9426

                     64                     65                     66
                      A                      A                      A
 Frequencies --   3032.4117              3034.1435              3036.2218
 Red. masses --      1.0750                 1.0649                 1.0468
 Frc consts  --      5.8244                 5.7758                 5.6856
 IR Inten    --     37.5254                36.0558                23.8506

                     67                     68                     69
                      A                      A                      A
 Frequencies --   3038.7665              3041.8445              3043.3861
 Red. masses --      1.0456                 1.0927                 1.0599
 Frc consts  --      5.6886                 5.9571                 5.7839
 IR Inten    --     77.6109                 3.1123                49.6775

                     70                     71                     72
                      A                      A                      A
 Frequencies --   3053.5805              3067.0835              3070.9340
 Red. masses --      1.0941                 1.0907                 1.1017
 Frc consts  --      6.0109                 6.0450                 6.1214
 IR Inten    --      6.2094                16.9905                67.6794

                     73                     74                     75
                      A                      A                      A
 Frequencies --   3082.4036              3090.6228              3102.4218
 Red. masses --      1.0936                 1.0991                 1.1003
 Frc consts  --      6.1220                 6.1858                 6.2394
 IR Inten    --     24.9673                45.7418                17.7943

                     76                     77                     78
                      A                      A                      A
 Frequencies --   3104.0308              3110.6107              3116.5660
 Red. masses --      1.1003                 1.1023                 1.1020
 Frc consts  --      6.2460                 6.2839                 6.3066
 IR Inten    --    114.1083                42.0260                37.4643

 - Thermochemistry -
 -------------------
 Temperature   298.150 Kelvin.  Pressure   1.00000 Atm.
 Atom     1 has atomic number  6 and mass  12.00000

 Molecular mass:   142.13577 amu.
 Principal axes and moments of inertia in atomic units:
                           1         2         3
     Eigenvalues --   962.552671810.788692405.73099
           X            0.99998   0.00441  -0.00362
           Y           -0.00434   0.99977   0.02090
           Z            0.00371  -0.02089   0.99977
 This molecule is an asymmetric top.
 Rotational symmetry number  1.
 Warning -- assumption of classical behavior for rotation
           may cause significant error
 Rotational temperatures (Kelvin)      0.08998     0.04783     0.03600
 Rotational constants (GHZ):           1.87495     0.99666     0.75018
 Zero-point vibrational energy     687589.4 (Joules/Mol)
                                  164.33781 (Kcal/Mol)
 Warning -- explicit consideration of  16 degrees of freedom as
           vibrations may cause significant error
 Vibrational temperatures:    122.47   185.35   223.18   308.71   331.82
          (Kelvin)            335.96   365.86   446.39   452.41   520.82
                              528.66   577.25   607.29   729.09   788.30
                              847.07  1070.31  1147.11  1194.15  1247.54
                             1288.69  1358.08  1368.79  1394.47  1402.80
                             1458.07  1504.92  1522.71  1561.87  1577.89
                             1617.29  1660.72  1686.86  1715.77  1730.02
                             1765.71  1830.99  1875.73  1895.34  1918.72
                             1923.00  1947.89  1980.29  1995.46  2026.78
                             2039.06  2054.86  2060.55  2067.98  2078.89
                             2090.17  2166.12  2183.84  2185.06  2195.44
                             2200.71  2201.74  2205.65  2207.39  2241.12
                             4278.37  4334.55  4346.17  4362.96  4365.46
                             4368.45  4372.11  4376.54  4378.75  4393.42
                             4412.85  4418.39  4434.89  4446.72  4463.69
                             4466.01  4475.47  4484.04

 Zero-point correction=                           0.261889 (Hartree/Particle)
 Thermal correction to Energy=                    0.272472
 Thermal correction to Enthalpy=                  0.273416
 Thermal correction to Gibbs Free Energy=         0.226761
 Sum of electronic and zero-point Energies=           -428.796757
 Sum of electronic and thermal Energies=              -428.786174
 Sum of electronic and thermal Enthalpies=            -428.785230
 Sum of electronic and thermal Free Energies=         -428.831885

                     E (Thermal)             CV                S
                      KCal/Mol        Cal/Mol-Kelvin    Cal/Mol-Kelvin
 Total                  170.979             41.614             98.194
 Electronic               0.000              0.000              0.000
 Translational            0.889              2.981             40.766
 Rotational               0.889              2.981             29.818
 Vibrational            169.201             35.653             27.610
 Vibration     1          0.601              1.959              3.769
 Vibration     2          0.611              1.924              2.964
 Vibration     3          0.620              1.897              2.608
 Vibration     4          0.644              1.819              2.005
 Vibration     5          0.652              1.794              1.874
 Vibration     6          0.654              1.790              1.852
 Vibration     7          0.665              1.756              1.701
 Vibration     8          0.699              1.654              1.361
 Vibration     9          0.702              1.646              1.339
 Vibration    10          0.736              1.551              1.114
 Vibration    11          0.740              1.539              1.090
 Vibration    12          0.767              1.468              0.958
 Vibration    13          0.784              1.422              0.885
 Vibration    14          0.862              1.235              0.641
 Vibration    15          0.903              1.144              0.549
 Vibration    16          0.946              1.056              0.469

                           ! Non-Optimized Parameters !

 1\1\GINC-NODE375\Freq\RB3LYP\6-31G(d)\C9H18O1\VSC10255\08-Dec-2020\0\\
 #N Geom=AllCheck Guess=TCheck SCRF=Check GenChk RB3LYP/6-31G(d) Freq\\
 CID_153541493_JID_868_neutraal\\0,1\C,0.9130078127,-0.0239904744,0.080
 8332449\C,0.3191668153,0.4459407196,-1.2549615634\C,1.2374357507,1.516
 8609686,-1.8684973235\C,0.7886535433,2.2314607233,-3.1576362403\C,-0.6
 769451331,2.7240337608,-3.1871610115\C,-1.6537206436,1.7256202572,-3.8
 343070572\O,-1.8030260029,0.469391492,-3.1960421927\C,-0.7631510614,-0
 .4753547951,-3.4273817975\C,0.035972362,-0.7695638253,-2.1502614435\C,

 Normal termination of Gaussian 16 at Tue Dec  8 13:11:35 2020.

 ----------------------------------------------------------------------
 # B3LYP/6-311++G(d,p) empiricaldispersion=gd3bj scf=xqc pop=npa geom=c
 heck
 ----------------------------------------------------------------------

 --------------------------------------
 CID_153541493_JID_868_Energie_neutraal
 --------------------------------------
 Structure from the checkpoint file:  "JID_868.chk"
 Charge =  0 Multiplicity = 1

 SCF Done:  E(RB3LYP) =  -429.179723338     A.U. after   12 cycles
 Normal termination of Gaussian 16 at Tue Dec  8 13:17:07 2020.

 ----------------------------------------------------------------------
 # B3LYP/6-311++G(d,p) empiricaldispersion=gd3bj scf=xqc pop=npa geom=c
 heck
 ----------------------------------------------------------------------

 ------------------------------------
 CID_153541493_JID_868_Energie_kation
 ------------------------------------
 Structure from the checkpoint file:  "JID_868.chk"
 Charge =  1 Multiplicity = 2

 SCF Done:  E(UB3LYP) =  -428.851777155     A.U. after   19 cycles
 Normal termination of Gaussian 16 at Tue Dec  8 13:24:20 2020.
 Gaussian 16:  ES64L-G16RevA.03 25-Dec-2016

 -----------------------------------
 CID_153541493_JID_868_Energie_anion
 -----------------------------------
 Structure from the checkpoint file:  "JID_868.chk"
 Charge = -1 Multiplicity = 2

                         Standard orientation:
 ---------------------------------------------------------------------
 Center     Atomic      Atomic             Coordinates (Angstroms)
 Number     Number       Type             X           Y           Z
 ---------------------------------------------------------------------
      1          6           0        2.913053   -1.021991   -0.654736
      2          6           0        1.551638   -0.400066   -0.311825
      3          6           0        0.712365   -1.421109    0.475326
      4          6           0       -0.745709   -1.070521    0.828945
      5          6           0       -1.596490   -0.468087   -0.313300
      6          6           0       -1.613514    1.071135   -0.328281
      7          8           0       -0.373971    1.724026   -0.540537
      8          6           0        0.494667    1.794769    0.585458
      9          6           0        1.762538    0.953591    0.382686
     10          6           0       -3.050716   -0.953945   -0.215545
     11          1           0        3.515608   -0.344732   -1.270751
     12          1           0        2.792757   -1.961382   -1.206859
     13          1           0        3.485908   -1.243115    0.255348
     14          1           0        1.033512   -0.187591   -1.254542
     15          1           0        0.693695   -2.343974   -0.121696
     16          1           0        1.244513   -1.678279    1.403161
     17          1           0       -0.786678   -0.406191    1.700582
     18          1           0       -1.220747   -2.002538    1.162132
     19          1           0       -1.188729   -0.806917   -1.275737
     20          1           0       -2.069890    1.427037    0.611938
     21          1           0       -2.255921    1.408633   -1.149472
     22          1           0       -0.039323    1.495405    1.494341
     23          1           0        0.776495    2.848267    0.715737
     24          1           0        2.253012    0.811269    1.357146
     25          1           0        2.463400    1.532243   -0.232796
     26          1           0       -3.674190   -0.532677   -1.012997
     27          1           0       -3.102284   -2.045513   -0.288688
     28          1           0       -3.496365   -0.664806    0.745079
 ---------------------------------------------------------------------

 SCF Done:  E(UB3LYP) =  -429.159805046     A.U. after   29 cycles

 The electronic state is 2-A.
 Alpha  occ. eigenvalues --  -19.01584 -10.10880 -10.10810 -10.06725 -10.06385
 Alpha  occ. eigenvalues --  -10.05838 -10.05601 -10.05529 -10.05352 -10.05328
 Alpha  occ. eigenvalues --   -0.92824  -0.71376  -0.69839  -0.62966  -0.61623
 Alpha  occ. eigenvalues --   -0.56786  -0.53640  -0.50054  -0.47730  -0.43925
 Alpha  occ. eigenvalues --   -0.38914  -0.38355  -0.35988  -0.34858  -0.33424
 Alpha  occ. eigenvalues --   -0.31818  -0.30958  -0.29952  -0.29186  -0.28734
 Alpha  occ. eigenvalues --   -0.26366  -0.25569  -0.24924  -0.23533  -0.22914
 Alpha  occ. eigenvalues --   -0.22000  -0.21402  -0.20175  -0.19183  -0.14863
 Alpha  occ. eigenvalues --    0.04974
 Alpha virt. eigenvalues --    0.06889   0.07403   0.08073   0.09227   0.09632
 Alpha virt. eigenvalues --    0.09830   0.10490   0.10733   0.12007   0.12209
 Alpha virt. eigenvalues --    0.12528   0.12922   0.13413   0.14103   0.15034

  Beta  occ. eigenvalues --  -19.01575 -10.10867 -10.10792 -10.06719 -10.06384
  Beta  occ. eigenvalues --  -10.05817 -10.05578 -10.05506 -10.05328 -10.05288
  Beta  occ. eigenvalues --   -0.92807  -0.71348  -0.69811  -0.62928  -0.61579
  Beta  occ. eigenvalues --   -0.56730  -0.53570  -0.49993  -0.47673  -0.43871
  Beta  occ. eigenvalues --   -0.38884  -0.38326  -0.35943  -0.34826  -0.33397
  Beta  occ. eigenvalues --   -0.31777  -0.30900  -0.29910  -0.29148  -0.28704
  Beta  occ. eigenvalues --   -0.26320  -0.25532  -0.24899  -0.23489  -0.22870
  Beta  occ. eigenvalues --   -0.21970  -0.21344  -0.20142  -0.19149  -0.14833
  Beta virt. eigenvalues --    0.07224   0.07792   0.08171   0.08709   0.09900
  Beta virt. eigenvalues --    0.10212   0.10457   0.10957   0.11093   0.12684
  Beta virt. eigenvalues --    0.12759   0.12954   0.13368   0.13729   0.14533

 Mulliken charges and spin densities:
               1          2
     1  C   -0.058444  -0.434688
     2  C   -1.380343   1.958620
     3  C    0.851299  -1.327873
     4  C    1.289209  -1.719049
     5  C   -2.930142   3.342788
     6  C    1.061183  -1.665167
     7  O   -0.117844   0.035685
     8  C   -0.102604  -0.146094
     9  C    1.262104  -1.851985
    10  C    1.847222  -2.559379
    11  H   -0.124928   0.253011
    12  H   -0.249305   0.386949
    13  H   -0.085098   0.223350
    14  H    0.081609   0.080588
    15  H   -0.132823   0.247334
    16  H   -0.205505   0.367961
    17  H   -0.044554   0.178034
    18  H   -0.193809   0.392242
    19  H    0.016971   0.170306
    20  H   -0.268831   0.431043
    21  H    0.228171  -0.087509
    22  H    0.119685  -0.013445
    23  H   -0.412055   0.587013
    24  H   -0.381654   0.524411
    25  H    0.098966   0.045077
    26  H   -0.435387   0.559220
    27  H   -0.472650   0.616764
    28  H   -0.260441   0.404791
 Sum of Mulliken charges =  -1.00000   1.00000

 Dipole moment (field-independent basis, Debye):
    X=              1.5625    Y=              2.3347    Z=             -1.4326  Tot=              3.1535
 Quadrupole moment (field-independent basis, Debye-Ang):
   XX=           -129.6797   YY=           -112.9778   ZZ=            -98.0598
   XY=             -6.3017   XZ=             -1.8218   YZ=             -0.6331

 Summary of Natural Population Analysis:

                                       Natural Population
                Natural  -----------------------------------------------
    Atom  No    Charge         Core      Valence    Rydberg      Total
 -----------------------------------------------------------------------
      C    1   -0.27782      0.99965     2.27337    0.00480     3.27782
      C    2   -0.11774      0.99959     2.10849    0.00967     3.11774
      C    3   -0.18478      0.99961     2.17535    0.00982     3.18478
      C    4   -0.18998      0.99961     2.18064    0.00973     3.18998
      C    5   -0.12835      0.99960     2.11887    0.00988     3.12835
      C    6    0.00011      0.99953     1.98770    0.01266     2.99989
      O    7   -0.30561      0.99988     3.29681    0.00891     4.30561
      C    8   -0.00694      0.99957     1.99508    0.01229     3.00694
      C    9   -0.19802      0.99960     2.18887    0.00955     3.19802
      C   10   -0.28245      0.99965     2.27649    0.00631     3.28245
      H   11    0.09634      0.00000     0.40269    0.00097     0.40366
      H   12    0.09800      0.00000     0.40097    0.00104     0.40200
      H   13    0.09608      0.00000     0.40272    0.00119     0.40392
      H   14    0.09808      0.00000     0.39926    0.00266     0.40192
      H   15    0.09605      0.00000     0.40249    0.00146     0.40395
      H   16    0.09645      0.00000     0.40224    0.00131     0.40355
      H   17    0.09338      0.00000     0.40494    0.00168     0.40662
      H   18    0.10153      0.00000     0.39703    0.00144     0.39847
      H   19    0.09379      0.00000     0.40408    0.00213     0.40621
      H   20    0.07599      0.00000     0.42268    0.00134     0.42401
      H   21    0.08829      0.00000     0.41044    0.00127     0.41171
      H   22    0.08061      0.00000     0.41755    0.00183     0.41939
      H   23    0.08430      0.00000     0.41435    0.00135     0.41570
      H   24    0.09845      0.00000     0.40013    0.00142     0.40155
      H   25    0.09562      0.00000     0.40323    0.00115     0.40438
      H   26    0.09743      0.00000     0.40134    0.00123     0.40257
      H   27    0.10352      0.00000     0.39490    0.00158     0.39648
      H   28    0.09765      0.00000     0.40087    0.00148     0.40235
 =======================================================================
   * Total *    0.00000      9.99628    29.88357    0.12015    40.00000

 Normal termination of Gaussian 16 at Tue Dec  8 13:35:49 2020.
