 Gaussian 16, Revision A.03,

 -----------------------------------------------------------
 # opt freq B3LYP/6-31G(d) empiricaldispersion=gd3bj scf=xqc
 -----------------------------------------------------------

 -------------------------------
 CID_114420350_JID_2035_neutraal
 -------------------------------
 Symbolic Z-matrix:
 Charge =  0 Multiplicity = 1

 SCF Done:  E(RB3LYP) =  -537.317305678     A.U. after   15 cycles
 SCF Done:  E(RB3LYP) =  -537.319876211     A.U. after   12 cycles
 SCF Done:  E(RB3LYP) =  -537.320243180     A.U. after   11 cycles
 SCF Done:  E(RB3LYP) =  -537.320408127     A.U. after   11 cycles
 SCF Done:  E(RB3LYP) =  -537.320493562     A.U. after   10 cycles
 SCF Done:  E(RB3LYP) =  -537.320565097     A.U. after   11 cycles
 SCF Done:  E(RB3LYP) =  -537.320591424     A.U. after   11 cycles
 SCF Done:  E(RB3LYP) =  -537.320601307     A.U. after   10 cycles
 SCF Done:  E(RB3LYP) =  -537.320605363     A.U. after    9 cycles
 SCF Done:  E(RB3LYP) =  -537.320605965     A.U. after    7 cycles
 SCF Done:  E(RB3LYP) =  -537.320606144     A.U. after    7 cycles
 SCF Done:  E(RB3LYP) =  -537.320606237     A.U. after    7 cycles
 SCF Done:  E(RB3LYP) =  -537.320606270     A.U. after    7 cycles
 SCF Done:  E(RB3LYP) =  -537.320606285     A.U. after    6 cycles
 Optimization completed.
    -- Stationary point found.
 Normal termination of Gaussian 16 at Wed Dec  9 16:47:32 2020.

 --------------------------------------------------------------------
 #N Geom=AllCheck Guess=TCheck SCRF=Check GenChk RB3LYP/6-31G(d) Freq
 --------------------------------------------------------------------

 Structure from the checkpoint file:  "JID_2035.chk"
 -------------------------------
 CID_114420350_JID_2035_neutraal
 -------------------------------
 Charge =  0 Multiplicity = 1

 SCF Done:  E(RB3LYP) =  -537.320606285     A.U. after    1 cycles

  Exact polarizability: 144.747   1.307  86.899   0.777   2.755  94.367
 Approx polarizability: 179.560   1.809 119.729  -2.251   7.883 161.774

                      1                      2                      3
                      A                      A                      A
 Frequencies --     29.4154                45.3010                76.3977
 Red. masses --      3.0844                 3.9172                 2.1881
 Frc consts  --      0.0016                 0.0047                 0.0075
 IR Inten    --      0.3592                 2.9741                 0.3836

                      4                      5                      6
                      A                      A                      A
 Frequencies --     83.2235               134.5903               151.5292
 Red. masses --      3.4541                 2.9489                 3.2999
 Frc consts  --      0.0141                 0.0315                 0.0446
 IR Inten    --      0.8074                 1.4357                 0.5750

                      7                      8                      9
                      A                      A                      A
 Frequencies --    201.9813               220.2065               260.1993
 Red. masses --      2.3565                 1.0446                 1.0997
 Frc consts  --      0.0566                 0.0298                 0.0439
 IR Inten    --      7.0798                 0.0545                10.7516

                     10                     11                     12
                      A                      A                      A
 Frequencies --    261.0702               276.4109               294.9874
 Red. masses --      1.2763                 1.3937                 2.0125
 Frc consts  --      0.0513                 0.0627                 0.1032
 IR Inten    --      2.2608                36.1393                12.0261

                     13                     14                     15
                      A                      A                      A
 Frequencies --    334.0096               350.7520               374.6524
 Red. masses --      2.6557                 3.4330                 3.2276
 Frc consts  --      0.1746                 0.2488                 0.2669
 IR Inten    --      3.3876                 1.9199                 4.1801

                     16                     17                     18
                      A                      A                      A
 Frequencies --    462.9311               482.5430               508.7870
 Red. masses --      6.1252                 2.8307                 2.8558
 Frc consts  --      0.7734                 0.3883                 0.4356
 IR Inten    --      3.8591                 3.7000                 2.1838

                     19                     20                     21
                      A                      A                      A
 Frequencies --    655.4965               709.4168               722.3744
 Red. masses --      2.7168                 5.7545                 3.2146
 Frc consts  --      0.6878                 1.7063                 0.9883
 IR Inten    --      1.6846                 1.9219                 2.1902

                     22                     23                     24
                      A                      A                      A
 Frequencies --    747.6688               795.0540               815.5187
 Red. masses --      3.0787                 1.2436                 1.5374
 Frc consts  --      1.0140                 0.4632                 0.6024
 IR Inten    --      1.7184                 3.2239                24.6972

                     25                     26                     27
                      A                      A                      A
 Frequencies --    861.9806               874.4811               922.4014
 Red. masses --      2.1723                 2.5187                 5.3907
 Frc consts  --      0.9509                 1.1348                 2.7023
 IR Inten    --      3.9350                81.5097                32.7468

                     28                     29                     30
                      A                      A                      A
 Frequencies --    933.4440               974.6258               995.3844
 Red. masses --      1.3768                 1.5858                 1.5338
 Frc consts  --      0.7068                 0.8875                 0.8954
 IR Inten    --     82.4856                 4.2163                 1.6744

                     31                     32                     33
                      A                      A                      A
 Frequencies --   1007.7697              1021.2442              1030.4096
 Red. masses --      2.9582                 2.1753                 2.5710
 Frc consts  --      1.7701                 1.3367                 1.6083
 IR Inten    --     12.4373                 2.6487                 8.4120

                     34                     35                     36
                      A                      A                      A
 Frequencies --   1045.9974              1083.0221              1094.3706
 Red. masses --      2.1479                 1.7276                 2.9399
 Frc consts  --      1.3846                 1.1939                 2.0745
 IR Inten    --      6.3627                10.0916                24.3361

                     37                     38                     39
                      A                      A                      A
 Frequencies --   1125.4903              1147.4245              1173.7363
 Red. masses --      1.5627                 2.1618                 1.3197
 Frc consts  --      1.1663                 1.6770                 1.0712
 IR Inten    --      4.8518                 0.1675                 6.3462

                     40                     41                     42
                      A                      A                      A
 Frequencies --   1201.3802              1225.6422              1305.8438
 Red. masses --      1.9120                 2.2357                 1.3163
 Frc consts  --      1.6259                 1.9787                 1.3225
 IR Inten    --      3.1752                18.9726                 2.0380

                     43                     44                     45
                      A                      A                      A
 Frequencies --   1322.4132              1329.0512              1362.7756
 Red. masses --      3.1861                 1.2948                 1.3223
 Frc consts  --      3.2828                 1.3475                 1.4469
 IR Inten    --     20.3129                 2.7686                 8.4774

                     46                     47                     48
                      A                      A                      A
 Frequencies --   1376.2187              1399.7220              1417.5324
 Red. masses --      1.3055                 1.4680                 1.4543
 Frc consts  --      1.4568                 1.6946                 1.7217
 IR Inten    --      2.4781                 0.7879                22.4073

                     49                     50                     51
                      A                      A                      A
 Frequencies --   1430.5265              1437.4431              1442.5067
 Red. masses --      1.2354                 1.2756                 1.2482
 Frc consts  --      1.4895                 1.5529                 1.5302
 IR Inten    --      3.6817                 6.0795                 0.7412

                     52                     53                     54
                      A                      A                      A
 Frequencies --   1466.9429              1514.3435              1518.4264
 Red. masses --      3.7218                 1.0722                 1.1289
 Frc consts  --      4.7187                 1.4487                 1.5335
 IR Inten    --     49.1561                 0.4910                 3.1292

                     55                     56                     57
                      A                      A                      A
 Frequencies --   1522.4393              1526.1656              1529.1310
 Red. masses --      1.2369                 1.0543                 1.0661
 Frc consts  --      1.6891                 1.4468                 1.4687
 IR Inten    --      4.8099                 4.9874                 8.9402

                     58                     59                     60
                      A                      A                      A
 Frequencies --   1535.6221              1541.4898              1546.6564
 Red. masses --      1.0751                 1.1819                 2.0940
 Frc consts  --      1.4937                 1.6547                 2.9513
 IR Inten    --     10.2145                 1.5990                 4.3860

                     61                     62                     63
                      A                      A                      A
 Frequencies --   1664.7099              1693.3059              3033.7510
 Red. masses --      6.3210                 1.1083                 1.0644
 Frc consts  --     10.3207                 1.8723                 5.7718
 IR Inten    --     27.4869                41.8992                17.1909

                     64                     65                     66
                      A                      A                      A
 Frequencies --   3047.3122              3048.3521              3051.5039
 Red. masses --      1.0349                 1.0413                 1.0491
 Frc consts  --      5.6621                 5.7011                 5.7557
 IR Inten    --     23.7997                14.7538                29.8647

                     67                     68                     69
                      A                      A                      A
 Frequencies --   3056.5823              3063.0523              3076.2652
 Red. masses --      1.0650                 1.0854                 1.0999
 Frc consts  --      5.8621                 5.9997                 6.1327
 IR Inten    --     13.4640                17.8742                16.3357

                     70                     71                     72
                      A                      A                      A
 Frequencies --   3114.1428              3115.8746              3119.2799
 Red. masses --      1.1017                 1.1029                 1.1007
 Frc consts  --      6.2951                 6.3085                 6.3099
 IR Inten    --     33.8221                36.2350                39.2819

                     73                     74                     75
                      A                      A                      A
 Frequencies --   3122.9085              3130.9076              3135.4965
 Red. masses --      1.1013                 1.1027                 1.1023
 Frc consts  --      6.3281                 6.3688                 6.3851
 IR Inten    --     43.2908                23.7143                29.3459

                     76                     77                     78
                      A                      A                      A
 Frequencies --   3287.0401              3460.0950              3548.2626
 Red. masses --      1.0980                 1.0492                 1.0926
 Frc consts  --      6.9899                 7.4006                 8.1050
 IR Inten    --      0.3198                 2.2297                 0.9021

 - Thermochemistry -
 -------------------
 Temperature   298.150 Kelvin.  Pressure   1.00000 Atm.
 Atom     1 has atomic number  6 and mass  12.00000

 Molecular mass:   168.12626 amu.
 Principal axes and moments of inertia in atomic units:
                           1         2         3
     Eigenvalues --   794.880354373.069964520.75482
           X            0.99998   0.00600  -0.00212
           Y           -0.00607   0.99953  -0.03008
           Z            0.00194   0.03009   0.99955
 This molecule is an asymmetric top.
 Rotational symmetry number  1.
 Warning -- assumption of classical behavior for rotation
           may cause significant error
 Rotational temperatures (Kelvin)      0.10896     0.01981     0.01916
 Rotational constants (GHZ):           2.27046     0.41269     0.39921
 Zero-point vibrational energy     646027.8 (Joules/Mol)
                                  154.40435 (Kcal/Mol)
 Warning -- explicit consideration of  18 degrees of freedom as
           vibrations may cause significant error
 Vibrational temperatures:     42.32    65.18   109.92   119.74   193.65
          (Kelvin)            218.02   290.61   316.83   374.37   375.62
                              397.69   424.42   480.57   504.65   539.04
                              666.05   694.27   732.03   943.11  1020.69
                             1039.34  1075.73  1143.91  1173.35  1240.20
                             1258.18  1327.13  1343.02  1402.27  1432.14
                             1449.96  1469.34  1482.53  1504.96  1558.23
                             1574.56  1619.33  1650.89  1688.74  1728.52
                             1763.43  1878.82  1902.66  1912.21  1960.73
                             1980.07  2013.89  2039.51  2058.21  2068.16
                             2075.45  2110.60  2178.80  2184.68  2190.45
                             2195.81  2200.08  2209.42  2217.86  2225.29
                             2395.15  2436.29  4364.89  4384.40  4385.90
                             4390.43  4397.74  4407.05  4426.06  4480.56
                             4483.05  4487.95  4493.17  4504.68  4511.28
                             4729.32  4978.30  5105.16

 Zero-point correction=                           0.246059 (Hartree/Particle)
 Thermal correction to Energy=                    0.259461
 Thermal correction to Enthalpy=                  0.260405
 Thermal correction to Gibbs Free Energy=         0.205325
 Sum of electronic and zero-point Energies=           -537.074547
 Sum of electronic and thermal Energies=              -537.061145
 Sum of electronic and thermal Enthalpies=            -537.060201
 Sum of electronic and thermal Free Energies=         -537.115281

                     E (Thermal)             CV                S
                      KCal/Mol        Cal/Mol-Kelvin    Cal/Mol-Kelvin
 Total                  162.814             49.046            115.926
 Electronic               0.000              0.000              0.000
 Translational            0.889              2.981             41.267
 Rotational               0.889              2.981             31.131
 Vibrational            161.037             43.084             43.528
 Vibration     1          0.593              1.984              5.868
 Vibration     2          0.595              1.979              5.013
 Vibration     3          0.599              1.965              3.981
 Vibration     4          0.600              1.961              3.813
 Vibration     5          0.613              1.919              2.879
 Vibration     6          0.619              1.901              2.653
 Vibration     7          0.639              1.837              2.115
 Vibration     8          0.647              1.810              1.957
 Vibration     9          0.668              1.745              1.660
 Vibration    10          0.669              1.744              1.655
 Vibration    11          0.678              1.717              1.556
 Vibration    12          0.689              1.683              1.445
 Vibration    13          0.716              1.608              1.241
 Vibration    14          0.728              1.574              1.163
 Vibration    15          0.746              1.524              1.061
 Vibration    16          0.821              1.332              0.758
 Vibration    17          0.839              1.289              0.703
 Vibration    18          0.864              1.231              0.637

                           ! Non-Optimized Parameters !
 Normal termination of Gaussian 16 at Wed Dec  9 16:53:19 2020.

 ----------------------------------------------------------------------
 # B3LYP/6-311++G(d,p) empiricaldispersion=gd3bj scf=xqc pop=npa geom=c
 heck
 ----------------------------------------------------------------------

 ---------------------------------------
 CID_114420350_JID_2035_Energie_neutraal
 ---------------------------------------
 Structure from the checkpoint file:  "JID_2035.chk"
 Charge =  0 Multiplicity = 1

 SCF Done:  E(RB3LYP) =  -537.475945835     A.U. after   15 cycles
 Normal termination of Gaussian 16 at Wed Dec  9 16:55:48 2020.

 ----------------------------------------------------------------------
 # B3LYP/6-311++G(d,p) empiricaldispersion=gd3bj scf=xqc pop=npa geom=c
 heck
 ----------------------------------------------------------------------

 -------------------------------------
 CID_114420350_JID_2035_Energie_kation
 -------------------------------------
 Structure from the checkpoint file:  "JID_2035.chk"
 Charge =  1 Multiplicity = 2

 SCF Done:  E(UB3LYP) =  -537.147386724     A.U. after   27 cycles
 Normal termination of Gaussian 16 at Wed Dec  9 17:01:27 2020.
 Gaussian 16:  ES64L-G16RevA.03 25-Dec-2016

 ----------------------------------------------------------------------
 # B3LYP/6-311++G(d,p) empiricaldispersion=gd3bj scf=xqc pop=npa geom=c
 heck
 ----------------------------------------------------------------------

 ------------------------------------
 CID_114420350_JID_2035_Energie_anion
 ------------------------------------
 Structure from the checkpoint file:  "JID_2035.chk"
 Charge = -1 Multiplicity = 2

                         Standard orientation:
 ---------------------------------------------------------------------
 Center     Atomic      Atomic             Coordinates (Angstroms)
 Number     Number       Type             X           Y           Z
 ---------------------------------------------------------------------
      1          6           0        4.330274   -0.990183   -0.122259
      2          6           0        2.801560   -0.957578   -0.190758
      3          6           0        2.183186    0.377761    0.277400
      4          6           0        2.598394    1.567060   -0.604759
      5          6           0        0.684882    0.262520    0.330581
      6          7           0        0.056197    0.361662    1.480845
      7          8           0       -1.309561    0.201389    1.177273
      8          6           0       -1.451019    0.017508   -0.154370
      9          6           0       -0.227651    0.041817   -0.747991
     10          6           0       -2.851922   -0.180402   -0.650268
     11          6           0       -3.457383   -1.473299   -0.069922
     12          7           0       -3.626812    1.039184   -0.370446
     13          1           0        4.786550   -0.269190   -0.808577
     14          1           0        4.709667   -1.982902   -0.387712
     15          1           0        4.682824   -0.757827    0.889961
     16          1           0        2.471777   -1.164673   -1.218387
     17          1           0        2.392346   -1.762485    0.432118
     18          1           0        2.518805    0.568834    1.304494
     19          1           0        2.310847    1.399875   -1.649860
     20          1           0        2.115042    2.488731   -0.265977
     21          1           0        3.681128    1.721621   -0.574063
     22          1           0       -0.003210   -0.069423   -1.797937
     23          1           0       -2.787789   -0.279856   -1.740396
     24          1           0       -3.504051   -1.415689    1.022599
     25          1           0       -4.473339   -1.618152   -0.455126
     26          1           0       -2.860215   -2.351751   -0.340240
     27          1           0       -4.596636    0.885361   -0.644346
     28          1           0       -3.634885    1.199267    0.636547
 ---------------------------------------------------------------------

 SCF Done:  E(UB3LYP) =  -537.463419461     A.U. after   33 cycles
 SCF Done:  E(UB3LYP) =  -537.463419461     a.u. after    1 cycles

 The electronic state is 2-A.
 Alpha  occ. eigenvalues --  -19.10633 -14.25807 -14.20142 -10.14380 -10.12149
 Alpha  occ. eigenvalues --  -10.11496 -10.09483 -10.07854 -10.07824 -10.07203
 Alpha  occ. eigenvalues --  -10.06902 -10.06672  -1.04067  -0.80653  -0.77956
 Alpha  occ. eigenvalues --   -0.71460  -0.69502  -0.63946  -0.63760  -0.56790
 Alpha  occ. eigenvalues --   -0.54961  -0.52039  -0.48496  -0.45189  -0.42485
 Alpha  occ. eigenvalues --   -0.38861  -0.37822  -0.36900  -0.36452  -0.34153
 Alpha  occ. eigenvalues --   -0.33460  -0.32576  -0.31964  -0.31088  -0.29996
 Alpha  occ. eigenvalues --   -0.29578  -0.27972  -0.26869  -0.26708  -0.24978
 Alpha  occ. eigenvalues --   -0.24463  -0.23951  -0.21230  -0.19187  -0.16394
 Alpha  occ. eigenvalues --   -0.15503   0.04180
 Alpha virt. eigenvalues --    0.05630   0.07457   0.07626   0.07705   0.08786
 Alpha virt. eigenvalues --    0.09033   0.09223   0.10294   0.10669   0.11144
 Alpha virt. eigenvalues --    0.11422   0.12354   0.12636   0.13395   0.13943

  Beta  occ. eigenvalues --  -19.10621 -14.25795 -14.20109 -10.14379 -10.12133
  Beta  occ. eigenvalues --  -10.11494 -10.09480 -10.07839 -10.07810 -10.07177
  Beta  occ. eigenvalues --  -10.06869 -10.06630  -1.04047  -0.80604  -0.77926
  Beta  occ. eigenvalues --   -0.71432  -0.69475  -0.63887  -0.63716  -0.56742
  Beta  occ. eigenvalues --   -0.54887  -0.51994  -0.48448  -0.45158  -0.42451
  Beta  occ. eigenvalues --   -0.38814  -0.37788  -0.36862  -0.36417  -0.34110
  Beta  occ. eigenvalues --   -0.33424  -0.32520  -0.31932  -0.31051  -0.29956
  Beta  occ. eigenvalues --   -0.29547  -0.27930  -0.26822  -0.26660  -0.24950
  Beta  occ. eigenvalues --   -0.24433  -0.23922  -0.21208  -0.19156  -0.16360
  Beta  occ. eigenvalues --   -0.15458
  Beta virt. eigenvalues --    0.06321   0.06925   0.07843   0.08062   0.08282
  Beta virt. eigenvalues --    0.09104   0.09552   0.09680   0.10726   0.11304
  Beta virt. eigenvalues --    0.11494   0.11641   0.12661   0.12939   0.13732

 Mulliken charges and spin densities:
               1          2
     1  C    0.882065  -1.489493
     2  C   -0.444127   0.179672
     3  C   -0.577092   0.669277
     4  C    0.703191  -1.384965
     5  C    2.323266  -1.787313
     6  N   -0.397210   0.041927
     7  O    0.173863   0.003832
     8  C    4.108921  -4.029220
     9  C   -2.185985   1.998267
    10  C   -4.111048   3.650901
    11  C    1.275490  -1.954728
    12  N   -0.235318  -0.114234
    13  H   -0.268105   0.416797
    14  H   -0.249518   0.395091
    15  H   -0.120608   0.253072
    16  H   -0.215445   0.355562
    17  H    0.070920   0.075922
    18  H    0.139924   0.054407
    19  H   -0.145884   0.307293
    20  H    0.084181   0.058082
    21  H   -0.141833   0.286069
    22  H   -0.416365   0.603151
    23  H   -0.367266   0.575944
    24  H    0.049570   0.120940
    25  H   -0.911975   1.077064
    26  H    0.001824   0.136466
    27  H   -0.193516   0.441336
    28  H    0.168076   0.058883
 Sum of Mulliken charges =  -1.00000   1.00000

 Dipole moment (field-independent basis, Debye):
    X=              2.3707    Y=              1.4098    Z=              3.3423  Tot=              4.3335
 Quadrupole moment (field-independent basis, Debye-Ang):
   XX=           -176.0511   YY=           -108.8226   ZZ=           -111.2836
   XY=             -1.2921   XZ=             -2.7650   YZ=             -1.7430

 Summary of Natural Population Analysis:

                                       Natural Population
                Natural  -----------------------------------------------
    Atom  No    Charge         Core      Valence    Rydberg      Total
 -----------------------------------------------------------------------
      C    1   -0.28644      0.99967     2.28174    0.00503     3.28644
      C    2   -0.18444      0.99962     2.17612    0.00870     3.18444
      C    3   -0.12611      0.99956     2.11582    0.01073     3.12611
      C    4   -0.28261      0.99965     2.27725    0.00570     3.28261
      C    5    0.09473      0.99958     1.88879    0.01690     2.90527
      N    6   -0.08748      0.99966     2.57670    0.01112     3.58748
      O    7   -0.17623      0.99985     3.16809    0.00829     4.17623
      C    8    0.18626      0.99948     1.79743    0.01683     2.81374
      C    9   -0.16939      0.99942     2.16184    0.00813     3.16939
      C   10   -0.03846      0.99957     2.02558    0.01331     3.03846
      C   11   -0.28842      0.99965     2.28261    0.00615     3.28842
      N   12   -0.41425      0.99977     2.90438    0.01010     3.91425
      H   13    0.09882      0.00000     0.39991    0.00127     0.40118
      H   14    0.10136      0.00000     0.39766    0.00098     0.39864
      H   15    0.09467      0.00000     0.40431    0.00102     0.40533
      H   16    0.09685      0.00000     0.40165    0.00150     0.40315
      H   17    0.09883      0.00000     0.40000    0.00117     0.40117
      H   18    0.10348      0.00000     0.39453    0.00200     0.39652
      H   19    0.09959      0.00000     0.39929    0.00112     0.40041
      H   20    0.10192      0.00000     0.39724    0.00084     0.39808
      H   21    0.10145      0.00000     0.39769    0.00086     0.39855
      H   22    0.11761      0.00000     0.38109    0.00130     0.38239
      H   23    0.10164      0.00000     0.39578    0.00257     0.39836
      H   24    0.09952      0.00000     0.39905    0.00144     0.40048
      H   25    0.10295      0.00000     0.39397    0.00308     0.39705
      H   26    0.10262      0.00000     0.39629    0.00109     0.39738
      H   27    0.17756      0.00000     0.32010    0.00234     0.32244
      H   28    0.17398      0.00000     0.32396    0.00206     0.32602
 =======================================================================
   * Total *    0.00000     11.99547    33.85888    0.14564    46.00000

 Normal termination of Gaussian 16 at Wed Dec  9 17:08:41 2020.
