 Gaussian 16, Revision A.03,

 -----------------------------------------------------------
 # opt freq B3LYP/6-31G(d) empiricaldispersion=gd3bj scf=xqc
 -----------------------------------------------------------

 -------------------------------
 CID_105319876_JID_5493_neutraal
 -------------------------------
 Symbolic Z-matrix:
 Charge =  0 Multiplicity = 1

 SCF Done:  E(RB3LYP) =  -975.795797794     A.U. after   14 cycles
 SCF Done:  E(RB3LYP) =  -975.802699029     A.U. after   12 cycles
 SCF Done:  E(RB3LYP) =  -975.804413528     A.U. after   12 cycles
 SCF Done:  E(RB3LYP) =  -975.804972445     A.U. after   12 cycles
 SCF Done:  E(RB3LYP) =  -975.805852003     A.U. after   14 cycles
 SCF Done:  E(RB3LYP) =  -975.805134483     A.U. after   14 cycles
 SCF Done:  E(RB3LYP) =  -975.806694224     A.U. after   12 cycles
 SCF Done:  E(RB3LYP) =  -975.807260249     A.U. after   12 cycles
 SCF Done:  E(RB3LYP) =  -975.807319969     A.U. after   11 cycles
 SCF Done:  E(RB3LYP) =  -975.807420829     A.U. after   10 cycles
 SCF Done:  E(RB3LYP) =  -975.813851048     A.U. after    8 cycles
 SCF Done:  E(RB3LYP) =  -975.813851409     A.U. after    7 cycles
 SCF Done:  E(RB3LYP) =  -975.813851495     A.U. after    7 cycles
 SCF Done:  E(RB3LYP) =  -975.813851525     A.U. after    7 cycles
 SCF Done:  E(RB3LYP) =  -975.813851540     A.U. after    7 cycles
 Optimization completed.
    -- Stationary point found.
 Normal termination of Gaussian 16 at Thu Dec 10 16:34:57 2020.

 --------------------------------------------------------------------
 #N Geom=AllCheck Guess=TCheck SCRF=Check GenChk RB3LYP/6-31G(d) Freq
 --------------------------------------------------------------------

 Structure from the checkpoint file:  "JID_5493.chk"
 -------------------------------
 CID_105319876_JID_5493_neutraal
 -------------------------------
 Charge =  0 Multiplicity = 1

 SCF Done:  E(RB3LYP) =  -975.813851540     A.U. after    1 cycles

  Exact polarizability: 212.762  -2.922 144.562   8.032  10.606 122.468
 Approx polarizability: 281.113 -13.936 216.739  12.210  29.966 208.049

                      1                      2                      3
                      A                      A                      A
 Frequencies --     25.8804                39.3244                52.8026
 Red. masses --      3.1398                 3.2762                 4.0322
 Frc consts  --      0.0012                 0.0030                 0.0066
 IR Inten    --      1.9024                 0.4921                 0.7788

                      4                      5                      6
                      A                      A                      A
 Frequencies --     56.2125                85.3084               112.6760
 Red. masses --      3.4420                 3.0473                 1.7357
 Frc consts  --      0.0064                 0.0131                 0.0130
 IR Inten    --      0.2533                 1.4715                 0.4193

                      7                      8                      9
                      A                      A                      A
 Frequencies --    133.2499               145.5055               177.3552
 Red. masses --      4.0267                 1.7670                 2.7857
 Frc consts  --      0.0421                 0.0220                 0.0516
 IR Inten    --      3.9785                 0.4239                 3.8267

                     10                     11                     12
                      A                      A                      A
 Frequencies --    190.2619               200.8571               240.1999
 Red. masses --      1.6789                 1.7788                 1.1482
 Frc consts  --      0.0358                 0.0423                 0.0390
 IR Inten    --      4.8894                 0.2674                 0.8141

                     13                     14                     15
                      A                      A                      A
 Frequencies --    265.6471               285.7876               305.1344
 Red. masses --      2.8097                 3.6522                 1.4562
 Frc consts  --      0.1168                 0.1757                 0.0799
 IR Inten    --      4.0040                 0.6485                64.3723

                     16                     17                     18
                      A                      A                      A
 Frequencies --    319.5671               355.8305               372.7493
 Red. masses --      3.0320                 3.8801                 2.7406
 Frc consts  --      0.1824                 0.2895                 0.2244
 IR Inten    --      4.5154                 1.2189                28.3324

                     19                     20                     21
                      A                      A                      A
 Frequencies --    397.2117               416.4347               446.4739
 Red. masses --      4.5655                 3.0738                 2.8170
 Frc consts  --      0.4244                 0.3141                 0.3308
 IR Inten    --      2.7676                 0.2370                 4.1218

                     22                     23                     24
                      A                      A                      A
 Frequencies --    465.6255               486.8287               550.4023
 Red. masses --      2.7652                 3.5075                 3.2069
 Frc consts  --      0.3532                 0.4898                 0.5724
 IR Inten    --      4.3428                 3.0105                13.0097

                     25                     26                     27
                      A                      A                      A
 Frequencies --    643.4344               653.6678               687.4182
 Red. masses --      4.1791                 5.2794                 3.2053
 Frc consts  --      1.0194                 1.3291                 0.8924
 IR Inten    --      9.2821                 4.2722                 8.9360

                     28                     29                     30
                      A                      A                      A
 Frequencies --    730.5142               742.5989               796.2362
 Red. masses --      5.7192                 3.7143                 2.9939
 Frc consts  --      1.7982                 1.2068                 1.1183
 IR Inten    --      2.8126                13.0815                 7.9126

                     31                     32                     33
                      A                      A                      A
 Frequencies --    825.7764               834.1111               845.4828
 Red. masses --      2.5914                 1.5231                 1.3687
 Frc consts  --      1.0411                 0.6244                 0.5765
 IR Inten    --     24.5393                17.0889                 6.7416

                     34                     35                     36
                      A                      A                      A
 Frequencies --    851.3886               882.3045               951.2916
 Red. masses --      1.7867                 2.2385                 1.4269
 Frc consts  --      0.7630                 1.0267                 0.7608
 IR Inten    --      5.0173                59.0707                18.4042

                     37                     38                     39
                      A                      A                      A
 Frequencies --    961.1885               969.0127               978.4453
 Red. masses --      1.6968                 1.3579                 1.4069
 Frc consts  --      0.9236                 0.7512                 0.7936
 IR Inten    --     65.1721                16.1552                 0.6697

                     40                     41                     42
                      A                      A                      A
 Frequencies --    991.7508              1003.5802              1024.8643
 Red. masses --      1.1836                 1.3204                 1.2480
 Frc consts  --      0.6859                 0.7835                 0.7723
 IR Inten    --      5.4249                 7.4158                 2.3319

                     43                     44                     45
                      A                      A                      A
 Frequencies --   1039.2889              1061.0936              1112.1129
 Red. masses --      3.3086                 2.1581                 2.3579
 Frc consts  --      2.1056                 1.4316                 1.7182
 IR Inten    --      9.1266                 5.0503                63.1586

                     46                     47                     48
                      A                      A                      A
 Frequencies --   1115.5790              1119.0357              1138.6842
 Red. masses --      2.8702                 1.6700                 1.8010
 Frc consts  --      2.1046                 1.2321                 1.3758
 IR Inten    --     12.6668                 0.8096                 8.5668

                     49                     50                     51
                      A                      A                      A
 Frequencies --   1155.7158              1171.5952              1211.5081
 Red. masses --      1.4213                 2.2595                 1.9143
 Frc consts  --      1.1185                 1.8274                 1.6554
 IR Inten    --      1.1629                30.3779                 3.0702

                     52                     53                     54
                      A                      A                      A
 Frequencies --   1229.2637              1249.1815              1291.3017
 Red. masses --      1.3064                 2.3945                 2.0703
 Frc consts  --      1.1631                 2.2015                 2.0339
 IR Inten    --      2.5006                 1.6851                15.6689

                     55                     56                     57
                      A                      A                      A
 Frequencies --   1315.1020              1336.8794              1340.0907
 Red. masses --      1.4059                 1.6289                 1.4298
 Frc consts  --      1.4326                 1.7153                 1.5128
 IR Inten    --      5.2502                 9.4386                 5.3780

                     58                     59                     60
                      A                      A                      A
 Frequencies --   1379.0286              1389.8521              1392.6231
 Red. masses --      1.6085                 1.4185                 1.2450
 Frc consts  --      1.8023                 1.6144                 1.4227
 IR Inten    --      2.9061                 0.5615                 6.6584

                     61                     62                     63
                      A                      A                      A
 Frequencies --   1439.5428              1450.3530              1456.6993
 Red. masses --      1.3385                 1.2369                 2.5216
 Frc consts  --      1.6343                 1.5329                 3.1526
 IR Inten    --      3.6492                 0.4231                 8.0999

                     64                     65                     66
                      A                      A                      A
 Frequencies --   1499.4608              1501.5696              1511.3346
 Red. masses --      1.0516                 1.0492                 1.1062
 Frc consts  --      1.3931                 1.3938                 1.4887
 IR Inten    --      8.7641                 1.7137                 2.5128

                     67                     68                     69
                      A                      A                      A
 Frequencies --   1515.5844              1518.1308              1520.2728
 Red. masses --      1.0758                 1.0624                 1.0532
 Frc consts  --      1.4560                 1.4426                 1.4342
 IR Inten    --      8.0461                33.9283                13.5510

                     70                     71                     72
                      A                      A                      A
 Frequencies --   1525.5866              1544.4525              1618.5318
 Red. masses --      1.0758                 2.1375                 6.1681
 Frc consts  --      1.4752                 3.0040                 9.5202
 IR Inten    --      7.7926                43.6177                 0.9211

                     73                     74                     75
                      A                      A                      A
 Frequencies --   1659.3845              1695.9093              1755.5915
 Red. masses --      5.4373                 1.0866                 6.8567
 Frc consts  --      8.8213                 1.8414                12.4513
 IR Inten    --     21.1357                12.6492                10.9721

                     76                     77                     78
                      A                      A                      A
 Frequencies --   3025.6668              3035.0684              3055.1133
 Red. masses --      1.0389                 1.0418                 1.0837
 Frc consts  --      5.6034                 5.6544                 5.9595
 IR Inten    --     31.8018                44.6630                16.9301

                     79                     80                     81
                      A                      A                      A
 Frequencies --   3064.5173              3070.3733              3078.1519
 Red. masses --      1.0302                 1.0998                 1.0992
 Frc consts  --      5.7002                 6.1085                 6.1364
 IR Inten    --     21.5749                14.5687                36.4823

                     82                     83                     84
                      A                      A                      A
 Frequencies --   3124.2229              3147.1114              3156.2869
 Red. masses --      1.0994                 1.1081                 1.0884
 Frc consts  --      6.3227                 6.4665                 6.3884
 IR Inten    --     21.6223                 9.6379                22.7084

                     85                     86                     87
                      A                      A                      A
 Frequencies --   3157.1966              3160.5720              3181.8006
 Red. masses --      1.0955                 1.1038                 1.0870
 Frc consts  --      6.4338                 6.4965                 6.4839
 IR Inten    --     17.1969                 5.3554                 7.1489

                     88                     89                     90
                      A                      A                      A
 Frequencies --   3194.2657              3199.4590              3223.5259
 Red. masses --      1.0885                 1.0934                 1.0912
 Frc consts  --      6.5436                 6.5948                 6.6803
 IR Inten    --      6.0716                11.6551                11.0435

                     91                     92                     93
                      A                      A                      A
 Frequencies --   3370.9932              3405.9339              3549.9681
 Red. masses --      1.0731                 1.0552                 1.0879
 Frc consts  --      7.1849                 7.2118                 8.0780
 IR Inten    --     14.3482                10.8397                 0.3882

 - Thermochemistry -
 -------------------
 Temperature   298.150 Kelvin.  Pressure   1.00000 Atm.
 Atom     1 has atomic number  6 and mass  12.00000

 Molecular mass:   222.11907 amu.
 Principal axes and moments of inertia in atomic units:
                           1         2         3
     Eigenvalues --  2114.549686559.078187780.12063
           X            0.99966   0.02341   0.01108
           Y           -0.02331   0.99969  -0.00897
           Z           -0.01128   0.00871   0.99990
 This molecule is an asymmetric top.
 Rotational symmetry number  1.
 Warning -- assumption of classical behavior for rotation
           may cause significant error
 Rotational temperatures (Kelvin)      0.04096     0.01321     0.01113
 Rotational constants (GHZ):           0.85349     0.27515     0.23197
 Zero-point vibrational energy     741451.2 (Joules/Mol)
                                  177.21109 (Kcal/Mol)
 Warning -- explicit consideration of  24 degrees of freedom as
           vibrations may cause significant error
 Vibrational temperatures:     37.24    56.58    75.97    80.88   122.74
          (Kelvin)            162.12   191.72   209.35   255.17   273.74
                              288.99   345.59   382.21   411.18   439.02
                              459.79   511.96   536.30   571.50   599.16
                              642.38   669.93   700.44   791.91   925.76
                              940.48   989.04  1051.05  1068.43  1145.61
                             1188.11  1200.10  1216.46  1224.96  1269.44
                             1368.70  1382.94  1394.19  1407.76  1426.91
                             1443.93  1474.55  1495.30  1526.68  1600.08
                             1605.07  1610.04  1638.31  1662.82  1685.66
                             1743.09  1768.64  1797.29  1857.90  1892.14
                             1923.47  1928.09  1984.11  1999.69  2003.67
                             2071.18  2086.73  2095.87  2157.39  2160.42
                             2174.47  2180.59  2184.25  2187.33  2194.98
                             2222.12  2328.71  2387.48  2440.04  2525.90
                             4353.26  4366.79  4395.63  4409.16  4417.58
                             4428.77  4495.06  4527.99  4541.19  4542.50
                             4547.36  4577.90  4595.84  4603.31  4637.93
                             4850.11  4900.38  5107.61

 Zero-point correction=                           0.282404 (Hartree/Particle)
 Thermal correction to Energy=                    0.299250
 Thermal correction to Enthalpy=                  0.300194
 Thermal correction to Gibbs Free Energy=         0.236549
 Sum of electronic and zero-point Energies=           -975.531448
 Sum of electronic and thermal Energies=              -975.514602
 Sum of electronic and thermal Enthalpies=            -975.513658
 Sum of electronic and thermal Free Energies=         -975.577303

                     E (Thermal)             CV                S
                      KCal/Mol        Cal/Mol-Kelvin    Cal/Mol-Kelvin
 Total                  187.782             61.948            133.952
 Electronic               0.000              0.000              0.000
 Translational            0.889              2.981             42.097
 Rotational               0.889              2.981             33.045
 Vibrational            186.005             55.987             58.810
 Vibration     1          0.593              1.985              6.123
 Vibration     2          0.594              1.981              5.293
 Vibration     3          0.596              1.976              4.710
 Vibration     4          0.596              1.975              4.586
 Vibration     5          0.601              1.959              3.765
 Vibration     6          0.607              1.939              3.222
 Vibration     7          0.613              1.920              2.899
 Vibration     8          0.617              1.908              2.730
 Vibration     9          0.628              1.870              2.356
 Vibration    10          0.634              1.853              2.225
 Vibration    11          0.638              1.839              2.125
 Vibration    12          0.657              1.779              1.801
 Vibration    13          0.671              1.736              1.624
 Vibration    14          0.684              1.700              1.499
 Vibration    15          0.696              1.664              1.389
 Vibration    16          0.705              1.636              1.312
 Vibration    17          0.731              1.563              1.140
 Vibration    18          0.744              1.528              1.068
 Vibration    19          0.764              1.476              0.973
 Vibration    20          0.780              1.435              0.904
 Vibration    21          0.806              1.369              0.807
 Vibration    22          0.823              1.326              0.750
 Vibration    23          0.843              1.279              0.692
 Vibration    24          0.906              1.139              0.543

 Optimization completed.
    -- Stationary point found.
 Normal termination of Gaussian 16 at Thu Dec 10 16:45:19 2020.

 ----------------------------------------------------------------------
 # B3LYP/6-311++G(d,p) empiricaldispersion=gd3bj scf=xqc pop=npa geom=c
 heck
 ----------------------------------------------------------------------

 ---------------------------------------
 CID_105319876_JID_5493_Energie_neutraal
 ---------------------------------------
 Structure from the checkpoint file:  "JID_5493.chk"
 Charge =  0 Multiplicity = 1

 SCF Done:  E(RB3LYP) =  -976.006991617     A.U. after   15 cycles
 Normal termination of Gaussian 16 at Thu Dec 10 16:50:29 2020.

 ----------------------------------------------------------------------
 # B3LYP/6-311++G(d,p) empiricaldispersion=gd3bj scf=xqc pop=npa geom=c
 heck
 ----------------------------------------------------------------------

 -------------------------------------
 CID_105319876_JID_5493_Energie_kation
 -------------------------------------
 Structure from the checkpoint file:  "JID_5493.chk"
 Charge =  1 Multiplicity = 2

 SCF Done:  E(UB3LYP) =  -975.735043248     A.U. after   23 cycles
 Normal termination of Gaussian 16 at Thu Dec 10 17:01:17 2020.
 Gaussian 16:  ES64L-G16RevA.03 25-Dec-2016

 ----------------------------------------------------------------------
 # B3LYP/6-311++G(d,p) empiricaldispersion=gd3bj scf=xqc pop=npa geom=c
 heck
 ----------------------------------------------------------------------

 ------------------------------------
 CID_105319876_JID_5493_Energie_anion
 ------------------------------------
 Structure from the checkpoint file:  "JID_5493.chk"
 Charge = -1 Multiplicity = 2

                         Standard orientation:
 ---------------------------------------------------------------------
 Center     Atomic      Atomic             Coordinates (Angstroms)
 Number     Number       Type             X           Y           Z
 ---------------------------------------------------------------------
      1          6           0       -4.270267   -2.106434   -0.306046
      2          6           0       -3.152134   -1.248120    0.228924
      3          6           0       -2.974811    0.004741   -0.209553
      4          6           0       -1.911710    0.985986    0.237770
      5          6           0       -0.479290    0.482281    0.085114
      6          6           0       -0.095441   -0.325257   -0.995165
      7          6           0        1.227653   -0.709154   -1.172401
      8          6           0        2.217714   -0.291831   -0.267502
      9          6           0        1.847379    0.516345    0.811991
     10          6           0        0.513426    0.895603    0.977357
     11         16           0        3.880019   -0.846041   -0.588970
     12          6           0        4.821859   -0.150383    0.804760
     13          7           0       -2.131890    2.241422   -0.512361
     14          7           0       -1.279305    3.274412   -0.011015
     15          6           0       -2.282452   -1.907833    1.268559
     16          1           0       -4.856494   -1.584462   -1.068470
     17          1           0       -4.951730   -2.413563    0.499260
     18          1           0       -3.877229   -3.031849   -0.749901
     19          1           0       -3.675444    0.405495   -0.940875
     20          1           0       -2.065249    1.258091    1.288987
     21          1           0       -0.852018   -0.675115   -1.691980
     22          1           0        1.499405   -1.343702   -2.012029
     23          1           0        2.583832    0.855895    1.531223
     24          1           0        0.239376    1.530355    1.815439
     25          1           0        4.792926    0.942553    0.803413
     26          1           0        4.459087   -0.533190    1.762450
     27          1           0        5.854335   -0.477211    0.660229
     28          1           0       -1.926635    2.046554   -1.497732
     29          1           0       -0.337033    3.209061   -0.404608
     30          1           0       -1.682223    4.159877   -0.306286
     31          1           0       -2.901957   -2.347203    2.061653
     32          1           0       -1.705663   -2.731508    0.825624
     33          1           0       -1.570797   -1.219909    1.727911
 ---------------------------------------------------------------------

 SCF Done:  E(UB3LYP) =  -975.994721267     A.U. after   33 cycles
 SCF Done:  E(UB3LYP) =  -975.994721267     a.u. after    1 cycles

 The electronic state is 2-A.
 Alpha  occ. eigenvalues --  -88.75640 -14.23469 -14.22865 -10.11470 -10.11196
 Alpha  occ. eigenvalues --  -10.10048 -10.08911 -10.08439 -10.08246 -10.08212
 Alpha  occ. eigenvalues --  -10.08120 -10.08031 -10.07738 -10.07382 -10.07029
 Alpha  occ. eigenvalues --   -7.84240  -5.80643  -5.80242  -5.79635  -0.87409
 Alpha  occ. eigenvalues --   -0.77463  -0.73718  -0.70913  -0.69198  -0.65762
 Alpha  occ. eigenvalues --   -0.64320  -0.60634  -0.60319  -0.56751  -0.52556
 Alpha  occ. eigenvalues --   -0.51789  -0.48114  -0.44435  -0.42587  -0.40492
 Alpha  occ. eigenvalues --   -0.39381  -0.37461  -0.37272  -0.36039  -0.34895
 Alpha  occ. eigenvalues --   -0.34294  -0.33735  -0.33526  -0.32771  -0.31125
 Alpha  occ. eigenvalues --   -0.30665  -0.29952  -0.28601  -0.28010  -0.27342
 Alpha  occ. eigenvalues --   -0.26968  -0.25832  -0.23956  -0.22887  -0.19569
 Alpha  occ. eigenvalues --   -0.17335  -0.16475  -0.15265  -0.14801  -0.11494
 Alpha  occ. eigenvalues --    0.04060
 Alpha virt. eigenvalues --    0.05488   0.06232   0.07196   0.07269   0.07720
 Alpha virt. eigenvalues --    0.07953   0.08383   0.08967   0.09288   0.09631
 Alpha virt. eigenvalues --    0.09972   0.10575   0.10698   0.11333   0.11858

  Beta  occ. eigenvalues --  -88.75633 -14.23450 -14.22842 -10.11472 -10.11193
  Beta  occ. eigenvalues --  -10.09976 -10.08902 -10.08433 -10.08247 -10.08192
  Beta  occ. eigenvalues --  -10.08106 -10.08018 -10.07714 -10.07366 -10.07023
  Beta  occ. eigenvalues --   -7.84233  -5.80632  -5.80226  -5.79631  -0.87378
  Beta  occ. eigenvalues --   -0.77442  -0.73691  -0.70876  -0.69149  -0.65731
  Beta  occ. eigenvalues --   -0.64268  -0.60591  -0.60285  -0.56688  -0.52508
  Beta  occ. eigenvalues --   -0.51748  -0.48084  -0.44389  -0.42551  -0.40464
  Beta  occ. eigenvalues --   -0.39343  -0.37433  -0.37238  -0.36008  -0.34859
  Beta  occ. eigenvalues --   -0.34255  -0.33666  -0.33501  -0.32747  -0.31094
  Beta  occ. eigenvalues --   -0.30617  -0.29927  -0.28571  -0.27985  -0.27315
  Beta  occ. eigenvalues --   -0.26927  -0.25808  -0.23935  -0.22822  -0.19544
  Beta  occ. eigenvalues --   -0.17304  -0.16432  -0.15232  -0.14775  -0.11466
  Beta virt. eigenvalues --    0.05915   0.06560   0.06911   0.07327   0.07456
  Beta virt. eigenvalues --    0.07850   0.08173   0.08818   0.09267   0.09448
  Beta virt. eigenvalues --    0.09866   0.10341   0.10878   0.10997   0.11589

 Mulliken charges and spin densities:
               1          2
     1  C    1.081321  -1.621372
     2  C   -1.042571   1.648899
     3  C    0.003155  -0.609386
     4  C    1.114799  -1.411730
     5  C    1.670936  -1.105601
     6  C   -0.878509   0.277732
     7  C   -0.152449  -0.178413
     8  C    0.162325   0.618630
     9  C   -1.507407   1.368396
    10  C    0.616375  -0.889621
    11  S   -0.022163  -0.736716
    12  C    0.531826  -0.992909
    13  N   -0.024684  -0.012996
    14  N   -0.483523   0.020459
    15  C   -0.545149  -0.228611
    16  H   -0.258385   0.408430
    17  H    0.049336   0.079962
    18  H   -0.122604   0.267042
    19  H    0.046499   0.132983
    20  H    0.253538  -0.041690
    21  H   -0.269904   0.485309
    22  H    0.058756   0.115530
    23  H   -0.128676   0.316301
    24  H   -0.245370   0.464352
    25  H   -0.337922   0.531998
    26  H   -0.234160   0.419709
    27  H   -0.673653   0.862821
    28  H   -0.031887   0.231636
    29  H    0.135461   0.090645
    30  H    0.032053   0.231905
    31  H    0.066363   0.064275
    32  H   -0.020500   0.180721
    33  H    0.156774   0.011311
 Sum of Mulliken charges =  -1.00000   1.00000

 Dipole moment (field-independent basis, Debye):
    X=             -4.0887    Y=             -0.8264    Z=             -0.7155  Tot=              4.2323
 Quadrupole moment (field-independent basis, Debye-Ang):
   XX=           -204.6262   YY=           -143.6560   ZZ=           -131.2550
   XY=             -2.5124   XZ=            -14.3704   YZ=             -2.7673

 Summary of Natural Population Analysis:

                                       Natural Population
                Natural  -----------------------------------------------
    Atom  No    Charge         Core      Valence    Rydberg      Total
 -----------------------------------------------------------------------
      C    1   -0.29376      0.99963     2.28864    0.00550     3.29376
      C    2   -0.00108      0.99950     1.99290    0.00867     3.00108
      C    3   -0.10556      0.99943     2.09443    0.01170     3.10556
      C    4   -0.03533      0.99954     2.02044    0.01535     3.03533
      C    5   -0.03469      0.99949     2.02301    0.01220     3.03469
      C    6   -0.09665      0.99950     2.08694    0.01021     3.09665
      C    7   -0.10622      0.99950     2.09700    0.00972     3.10622
      C    8   -0.08872      0.99942     2.07552    0.01378     3.08872
      C    9   -0.11712      0.99949     2.10681    0.01083     3.11712
      C   10   -0.09106      0.99950     2.08100    0.01056     3.09106
      S   11    0.12978      4.99954     2.85021    0.02047     7.87022
      C   12   -0.35302      0.99963     2.34688    0.00652     3.35302
      N   13   -0.24353      0.99975     2.72915    0.01464     3.74353
      N   14   -0.33134      0.99977     2.81928    0.01229     3.83134
      C   15   -0.30141      0.99962     2.29676    0.00503     3.30141
      H   16    0.10262      0.00000     0.39645    0.00093     0.39738
      H   17    0.09871      0.00000     0.40033    0.00096     0.40129
      H   18    0.10205      0.00000     0.39670    0.00125     0.39795
      H   19    0.09981      0.00000     0.39873    0.00146     0.40019
      H   20    0.10513      0.00000     0.39297    0.00191     0.39487
      H   21    0.10577      0.00000     0.39247    0.00176     0.39423
      H   22    0.10183      0.00000     0.39706    0.00111     0.39817
      H   23    0.10586      0.00000     0.39251    0.00163     0.39414
      H   24    0.10546      0.00000     0.39314    0.00140     0.39454
      H   25    0.10660      0.00000     0.39077    0.00263     0.39340
      H   26    0.10540      0.00000     0.39239    0.00221     0.39460
      H   27    0.11284      0.00000     0.38537    0.00179     0.38716
      H   28    0.16020      0.00000     0.33600    0.00380     0.33980
      H   29    0.16877      0.00000     0.32930    0.00193     0.33123
      H   30    0.17407      0.00000     0.32419    0.00174     0.32593
      H   31    0.09970      0.00000     0.39926    0.00104     0.40030
      H   32    0.10656      0.00000     0.39214    0.00130     0.39344
      H   33    0.10836      0.00000     0.39074    0.00090     0.39164
 =======================================================================
   * Total *    0.00000     18.99329    40.80948    0.19723    60.00000

 Normal termination of Gaussian 16 at Thu Dec 10 17:21:47 2020.
