 Gaussian 16, Revision A.03,

 -----------------------------------------------------------
 # opt freq B3LYP/6-31G(d) empiricaldispersion=gd3bj scf=xqc
 -----------------------------------------------------------

 ----------------------------
 CID_21860050_JID_35_neutraal
 ----------------------------
 Symbolic Z-matrix:
 Charge =  0 Multiplicity = 1

 SCF Done:  E(RB3LYP) =  -494.578365650     A.U. after   33 cycles
 SCF Done:  E(RB3LYP) =  -494.690186244     a.u. after   22 cycles
 SCF Done:  E(RB3LYP) =  -494.710411434     A.U. after   24 cycles
 SCF Done:  E(RB3LYP) =  -494.712411641     A.U. after   29 cycles
 SCF Done:  E(RB3LYP) =  -494.711142997     A.U. after   33 cycles
 SCF Done:  E(RB3LYP) =  -494.712655814     a.u. after    9 cycles
 SCF Done:  E(RB3LYP) =  -494.710055362     A.U. after   21 cycles
 SCF Done:  E(RB3LYP) =  -494.712939744     A.U. after   21 cycles
 SCF Done:  E(RB3LYP) =  -494.712558222     A.U. after   20 cycles
 SCF Done:  E(RB3LYP) =  -494.713437409     A.U. after   19 cycles
 SCF Done:  E(RB3LYP) =  -494.714961420     A.U. after   18 cycles
 SCF Done:  E(RB3LYP) =  -494.714977667     A.U. after   15 cycles
 SCF Done:  E(RB3LYP) =  -494.714984859     A.U. after   14 cycles
 SCF Done:  E(RB3LYP) =  -494.714986197     A.U. after   12 cycles
 SCF Done:  E(RB3LYP) =  -494.714986355     A.U. after   11 cycles
 Optimization completed.
    -- Stationary point found.
 Normal termination of Gaussian 16 at Tue Dec  8 10:22:05 2020.

 --------------------------------------------------------------------
 #N Geom=AllCheck Guess=TCheck SCRF=Check GenChk RB3LYP/6-31G(d) Freq
 --------------------------------------------------------------------

 Structure from the checkpoint file:  "JID_35.chk"
 ----------------------------
 CID_21860050_JID_35_neutraal
 ----------------------------
 Charge =  0 Multiplicity = 1

 SCF Done:  E(RB3LYP) =  -494.714986355     A.U. after    1 cycles

  Exact polarizability: 156.378   9.393 109.070  -3.430  -2.158  31.841
 Approx polarizability: 512.079  35.196 279.948 -32.824   4.081  54.166

                      1                      2                      3
                      A                      A                      A
 Frequencies --     69.4004               124.7980               161.6764
 Red. masses --      7.6814                 4.2013                 6.9455
 Frc consts  --      0.0218                 0.0386                 0.1070
 IR Inten    --      4.2985                10.4109                 4.6874

                      4                      5                      6
                      A                      A                      A
 Frequencies --    216.4224               242.7941               312.6898
 Red. masses --      7.4212                 3.9890                 5.6931
 Frc consts  --      0.2048                 0.1385                 0.3280
 IR Inten    --      7.5329                15.2252                46.8678

                      7                      8                      9
                      A                      A                      A
 Frequencies --    351.1846               407.1477               489.2965
 Red. masses --      6.6539                 4.5937                 8.4118
 Frc consts  --      0.4835                 0.4487                 1.1865
 IR Inten    --     16.8298                 7.2064                 7.9437

                     10                     11                     12
                      A                      A                      A
 Frequencies --    515.2496               588.1189               633.4029
 Red. masses --      5.5295                 3.2961                 5.5120
 Frc consts  --      0.8649                 0.6717                 1.3029
 IR Inten    --     35.0213                36.0282                10.1690

                     13                     14                     15
                      A                      A                      A
 Frequencies --    666.6689               724.5132               768.2982
 Red. masses --      2.6038                 6.2267                 1.7613
 Frc consts  --      0.6818                 1.9257                 0.6126
 IR Inten    --      4.5341                 1.0180                30.0789

                     16                     17                     18
                      A                      A                      A
 Frequencies --    807.7554               845.7635               908.6789
 Red. masses --      3.9046                 1.8654                 3.0861
 Frc consts  --      1.5010                 0.7862                 1.5014
 IR Inten    --     31.6009                61.4624                40.5079

                     19                     20                     21
                      A                      A                      A
 Frequencies --   1001.7591              1013.2068              1064.7901
 Red. masses --      1.2821                 1.7751                 2.6429
 Frc consts  --      0.7580                 1.0737                 1.7655
 IR Inten    --      0.8989                 4.0360               177.6940

                     22                     23                     24
                      A                      A                      A
 Frequencies --   1173.5232              1200.1375              1274.1161
 Red. masses --      1.5587                 1.9240                 3.3044
 Frc consts  --      1.2647                 1.6328                 3.1605
 IR Inten    --     16.6767               171.5266                44.7762

                     25                     26                     27
                      A                      A                      A
 Frequencies --   1329.7721              1381.8866              1415.4985
 Red. masses --      2.0893                 2.3471                 2.1885
 Frc consts  --      2.1767                 2.6407                 2.5835
 IR Inten    --     27.7307                 4.2855                 5.0182

                     28                     29                     30
                      A                      A                      A
 Frequencies --   1440.6605              1555.5094              1635.3239
 Red. masses --      2.3837                 8.5691                 6.4443
 Frc consts  --      2.9149                12.2160                10.1539
 IR Inten    --     63.5853               103.4550                42.3937

                     31                     32                     33
                      A                      A                      A
 Frequencies --   1645.3082              1747.7373              3054.4642
 Red. masses --     11.0384                 9.6241                 1.0879
 Frc consts  --     17.6056                17.3205                 5.9801
 IR Inten    --    187.8789               137.5649                17.8991

                     34                     35                     36
                      A                      A                      A
 Frequencies --   3217.8496              3239.7607              3244.6215
 Red. masses --      1.0886                 1.0969                 1.0906
 Frc consts  --      6.6410                 6.7832                 6.7648
 IR Inten    --      0.7813                 2.3606                 0.9452

 - Thermochemistry -
 -------------------
 Temperature   298.150 Kelvin.  Pressure   1.00000 Atm.
 Atom     1 has atomic number  6 and mass  12.00000

 Molecular mass:   136.01604 amu.
 Principal axes and moments of inertia in atomic units:
                           1         2         3
     Eigenvalues --   695.932061744.114662414.88020
           X            0.99999  -0.00306   0.00216
           Y            0.00308   0.99993  -0.01148
           Z           -0.00212   0.01148   0.99993
 This molecule is an asymmetric top.
 Rotational symmetry number  1.
 Warning -- assumption of classical behavior for rotation
           may cause significant error
 Rotational temperatures (Kelvin)      0.12446     0.04966     0.03587
 Rotational constants (GHZ):           2.59327     1.03476     0.74734
 Zero-point vibrational energy     242063.1 (Joules/Mol)
                                   57.85446 (Kcal/Mol)
 Warning -- explicit consideration of  11 degrees of freedom as
           vibrations may cause significant error
 Vibrational temperatures:     99.85   179.56   232.62   311.38   349.33
          (Kelvin)            449.89   505.28   585.79   703.99   741.33
                              846.17   911.33   959.19  1042.41  1105.41
                             1162.18  1216.87  1307.39  1441.31  1457.78
                             1532.00  1688.44  1726.73  1833.17  1913.25
                             1988.23  2036.59  2072.79  2238.03  2352.87
                             2367.23  2514.60  4394.69  4629.77  4661.29
                             4668.29

 Zero-point correction=                           0.092197 (Hartree/Particle)
 Thermal correction to Energy=                    0.100692
 Thermal correction to Enthalpy=                  0.101636
 Thermal correction to Gibbs Free Energy=         0.058373
 Sum of electronic and zero-point Energies=           -494.622789
 Sum of electronic and thermal Energies=              -494.614294
 Sum of electronic and thermal Enthalpies=            -494.613350
 Sum of electronic and thermal Free Energies=         -494.656613

                     E (Thermal)             CV                S
                      KCal/Mol        Cal/Mol-Kelvin    Cal/Mol-Kelvin
 Total                   63.185             30.872             91.055
 Electronic               0.000              0.000              0.000
 Translational            0.889              2.981             40.635
 Rotational               0.889              2.981             29.462
 Vibrational             61.408             24.911             20.958
 Vibration     1          0.598              1.969              4.170
 Vibration     2          0.610              1.928              3.025
 Vibration     3          0.622              1.889              2.530
 Vibration     4          0.645              1.816              1.989
 Vibration     5          0.659              1.775              1.782
 Vibration     6          0.701              1.649              1.348
 Vibration     7          0.728              1.573              1.161
 Vibration     8          0.772              1.455              0.937
 Vibration     9          0.845              1.274              0.685
 Vibration    10          0.870              1.216              0.621
 Vibration    11          0.945              1.057              0.471

                           ! Non-Optimized Parameters !
 Normal termination of Gaussian 16 at Tue Dec  8 10:24:00 2020.

 ----------------------------------------------------------------------
 # B3LYP/6-311++G(d,p) empiricaldispersion=gd3bj scf=xqc pop=npa geom=c
 heck
 ----------------------------------------------------------------------

 ------------------------------------
 CID_21860050_JID_35_Energie_neutraal
 ------------------------------------
 Structure from the checkpoint file:  "JID_35.chk"
 Charge =  0 Multiplicity = 1

 SCF Done:  E(RB3LYP) =  -494.858454118     A.U. after   23 cycles
 Normal termination of Gaussian 16 at Tue Dec  8 10:24:43 2020.

 ----------------------------------------------------------------------
 # B3LYP/6-311++G(d,p) empiricaldispersion=gd3bj scf=xqc pop=npa geom=c
 heck
 ----------------------------------------------------------------------

 ----------------------------------
 CID_21860050_JID_35_Energie_kation
 ----------------------------------
 Structure from the checkpoint file:  "JID_35.chk"
 Charge =  1 Multiplicity = 2

 SCF Done:  E(UB3LYP) =  -494.537065346     A.U. after   33 cycles
 SCF Done:  E(UB3LYP) =  -494.537065346     a.u. after    2 cycles
 Normal termination of Gaussian 16 at Tue Dec  8 10:27:39 2020.
 Gaussian 16:  ES64L-G16RevA.03 25-Dec-2016

 ----------------------------------------------------------------------
 # B3LYP/6-311++G(d,p) empiricaldispersion=gd3bj scf=xqc pop=npa geom=c
 heck
 ----------------------------------------------------------------------

 ---------------------------------
 CID_21860050_JID_35_Energie_anion
 ---------------------------------
 Structure from the checkpoint file:  "JID_35.chk"
 Charge = -1 Multiplicity = 2

                         Standard orientation:
 ---------------------------------------------------------------------
 Center     Atomic      Atomic             Coordinates (Angstroms)
 Number     Number       Type             X           Y           Z
 ---------------------------------------------------------------------
      1          6           0        1.132561   -1.441405    0.169099
      2          6           0       -0.219620   -1.372152    0.194556
      3          6           0       -0.841078   -0.098778    0.000471
      4          6           0       -0.124721    1.180929    0.019347
      5          6           0        1.278256    1.089497   -0.137080
      6          6           0        1.945235   -0.187925   -0.042305
      7          8           0        3.169535   -0.320414   -0.154731
      8          8           0       -0.798932    2.209596    0.261205
      9          6           0       -2.313114   -0.036909   -0.187351
     10          8           0       -3.015945   -1.030469   -0.108704
     11          1           0        1.692794   -2.363784    0.278974
     12          1           0       -0.859817   -2.242645    0.298735
     13          1           0        1.891574    1.980081   -0.209543
     14          1           0       -2.706917    0.957116   -0.450749
 ---------------------------------------------------------------------

 SCF Done:  E(UB3LYP) =  -495.011184344     A.U. after   29 cycles

 The electronic state is 2-A.
 Alpha  occ. eigenvalues --  -18.99257 -18.95560 -18.92277 -10.12328 -10.09967
 Alpha  occ. eigenvalues --  -10.08475 -10.06335 -10.05856 -10.05740 -10.00725
 Alpha  occ. eigenvalues --   -0.92201  -0.88659  -0.85368  -0.70449  -0.60289
 Alpha  occ. eigenvalues --   -0.59618  -0.49443  -0.44856  -0.42155  -0.37766
 Alpha  occ. eigenvalues --   -0.34757  -0.32148  -0.30963  -0.29354  -0.28632
 Alpha  occ. eigenvalues --   -0.27990  -0.26739  -0.25151  -0.23264  -0.22411
 Alpha  occ. eigenvalues --   -0.18167  -0.14163  -0.11507  -0.09281  -0.08438
 Alpha  occ. eigenvalues --   -0.06872
 Alpha virt. eigenvalues --    0.08075   0.09898   0.11539   0.12154   0.13113
 Alpha virt. eigenvalues --    0.14068   0.15559   0.16325   0.17180   0.18069
 Alpha virt. eigenvalues --    0.18526   0.18974   0.19392   0.20431   0.21231

  Beta  occ. eigenvalues --  -18.98842 -18.94938 -18.92194 -10.12392 -10.10037
  Beta  occ. eigenvalues --  -10.08562 -10.05963 -10.05677 -10.05389 -10.00602
  Beta  occ. eigenvalues --   -0.91479  -0.87577  -0.85173  -0.69729  -0.59389
  Beta  occ. eigenvalues --   -0.58870  -0.49077  -0.44574  -0.41826  -0.37507
  Beta  occ. eigenvalues --   -0.34413  -0.31962  -0.30573  -0.28364  -0.27905
  Beta  occ. eigenvalues --   -0.27336  -0.25095  -0.24703  -0.22983  -0.21223
  Beta  occ. eigenvalues --   -0.16550  -0.13646  -0.10889  -0.08404  -0.05589
  Beta virt. eigenvalues --   -0.00619   0.09419   0.09919   0.11568   0.12166
  Beta virt. eigenvalues --    0.13123   0.14752   0.15910   0.16368   0.17284
  Beta virt. eigenvalues --    0.18449   0.18914   0.19236   0.19647   0.20578

 Mulliken charges and spin densities:
               1          2
     1  C    0.332415   0.364968
     2  C   -0.567631  -0.184238
     3  C    1.048053   0.508335
     4  C   -1.239558  -0.091260
     5  C    0.584609   0.100824
     6  C   -0.677492  -0.034595
     7  O   -0.360816   0.225340
     8  O   -0.438503   0.031721
     9  C   -0.028277  -0.047738
    10  O   -0.304776   0.151314
    11  H    0.168081  -0.021535
    12  H    0.172550   0.006436
    13  H    0.151174  -0.008440
    14  H    0.160171  -0.001134
 Sum of Mulliken charges =  -1.00000   1.00000

 Dipole moment (field-independent basis, Debye):
    X=             -1.1055    Y=             -2.7586    Z=             -0.1610  Tot=              2.9762
 Quadrupole moment (field-independent basis, Debye-Ang):
   XX=            -96.5573   YY=            -73.8498   ZZ=            -60.7918
   XY=             -0.9243   XZ=              1.9786   YZ=             -2.3787

 Summary of Natural Population Analysis:

                                       Natural Population
                Natural  -----------------------------------------------
    Atom  No    Charge         Core      Valence    Rydberg      Total
 -----------------------------------------------------------------------
      C    1    0.05968      0.99954     1.93098    0.00981     2.94032
      C    2   -0.18015      0.99953     2.17124    0.00938     3.18015
      C    3    0.16590      0.99951     1.82373    0.01087     2.83410
      C    4    0.16156      0.99950     1.81911    0.01982     2.83844
      C    5   -0.15959      0.99952     2.14936    0.01071     3.15959
      C    6    0.18698      0.99961     1.79333    0.02008     2.81302
      O    7   -0.20064      0.99989     3.19280    0.00795     4.20064
      O    8   -0.34592      0.99989     3.33878    0.00724     4.34592
      C    9    0.17474      0.99967     1.80483    0.02076     2.82526
      O   10   -0.22241      0.99989     3.21566    0.00686     4.22241
      H   11    0.09042      0.00000     0.40829    0.00129     0.40958
      H   12    0.10610      0.00000     0.39161    0.00229     0.39390
      H   13    0.09638      0.00000     0.40114    0.00247     0.40362
      H   14    0.06696      0.00000     0.43079    0.00225     0.43304
 =======================================================================
   * Total *    0.00000      9.99655    24.87166    0.13178    35.00000

 Normal termination of Gaussian 16 at Tue Dec  8 10:29:03 2020.
