 Gaussian 16, Revision A.03,

 -----------------------------------------------------------
 # opt freq B3LYP/6-31G(d) empiricaldispersion=gd3bj scf=xqc
 -----------------------------------------------------------

 -------------------------------
 CID_106423942_JID_8763_neutraal
 -------------------------------
 Symbolic Z-matrix:
 Charge =  0 Multiplicity = 1

 SCF Done:  E(RB3LYP) =  -1575.09660065     A.U. after   15 cycles
 SCF Done:  E(RB3LYP) =  -1575.11136894     A.U. after   13 cycles
 SCF Done:  E(RB3LYP) =  -1575.11352635     A.U. after   13 cycles
 SCF Done:  E(RB3LYP) =  -1575.11405762     A.U. after   12 cycles
 SCF Done:  E(RB3LYP) =  -1575.11430172     A.U. after   12 cycles
 SCF Done:  E(RB3LYP) =  -1575.11451388     A.U. after   12 cycles
 SCF Done:  E(RB3LYP) =  -1575.11513055     A.U. after   14 cycles
 SCF Done:  E(RB3LYP) =  -1575.11552836     A.U. after   13 cycles
 SCF Done:  E(RB3LYP) =  -1575.11647769     A.U. after   14 cycles
 SCF Done:  E(RB3LYP) =  -1575.11661467     A.U. after   13 cycles
 SCF Done:  E(RB3LYP) =  -1575.11814524     A.U. after    9 cycles
 SCF Done:  E(RB3LYP) =  -1575.11814538     A.U. after    8 cycles
 SCF Done:  E(RB3LYP) =  -1575.11814539     A.U. after    7 cycles
 SCF Done:  E(RB3LYP) =  -1575.11814540     A.U. after    7 cycles
 SCF Done:  E(RB3LYP) =  -1575.11814541     A.U. after    7 cycles
 SCF Done:  E(RB3LYP) =  -1575.11814542     A.U. after    7 cycles
 Optimization completed.
    -- Stationary point found.
 Normal termination of Gaussian 16 at Fri Dec 11 22:25:34 2020.

 --------------------------------------------------------------------
 #N Geom=AllCheck Guess=TCheck SCRF=Check GenChk RB3LYP/6-31G(d) Freq
 --------------------------------------------------------------------

 Structure from the checkpoint file:  "JID_8763.chk"
 -------------------------------
 CID_106423942_JID_8763_neutraal
 -------------------------------
 Charge =  0 Multiplicity = 1

 SCF Done:  E(RB3LYP) =  -1575.11814542     A.U. after    1 cycles

  Exact polarizability: 219.990 -13.966 145.103  -8.652 -13.384 125.513
 Approx polarizability: 289.363 -26.936 255.882 -10.707 -32.320 218.940

                      1                      2                      3
                      A                      A                      A
 Frequencies --     13.3102                17.1879                32.5214
 Red. masses --      5.4175                 6.9594                 5.3275
 Frc consts  --      0.0006                 0.0012                 0.0033
 IR Inten    --      0.0976                 0.6487                 6.3982

                      4                      5                      6
                      A                      A                      A
 Frequencies --     56.6896                62.4295                78.9184
 Red. masses --      4.7572                 1.0738                 3.6910
 Frc consts  --      0.0090                 0.0025                 0.0135
 IR Inten    --      2.5549                 0.4856                 1.1253

                      7                      8                      9
                      A                      A                      A
 Frequencies --     99.2323               119.7206               130.2105
 Red. masses --      5.2958                 3.7829                 5.6061
 Frc consts  --      0.0307                 0.0319                 0.0560
 IR Inten    --      4.3399                 1.2202                 0.6182

                     10                     11                     12
                      A                      A                      A
 Frequencies --    182.1898               185.5242               199.4937
 Red. masses --      3.9951                 5.6976                 3.9128
 Frc consts  --      0.0781                 0.1155                 0.0917
 IR Inten    --      2.3138                 2.6940                 4.0795

                     13                     14                     15
                      A                      A                      A
 Frequencies --    243.2130               270.5363               276.7013
 Red. masses --      3.4806                 3.9841                 3.0789
 Frc consts  --      0.1213                 0.1718                 0.1389
 IR Inten    --      6.8323                13.6486                 8.9686

                     16                     17                     18
                      A                      A                      A
 Frequencies --    304.4550               305.5500               325.1425
 Red. masses --      4.0761                 3.3681                 1.7380
 Frc consts  --      0.2226                 0.1853                 0.1083
 IR Inten    --      5.3951                 7.6173                27.8752

                     19                     20                     21
                      A                      A                      A
 Frequencies --    355.6117               386.0768               448.1098
 Red. masses --      4.4809                 6.5108                 5.7988
 Frc consts  --      0.3339                 0.5718                 0.6861
 IR Inten    --     15.4183                 2.0850                18.9153

                     22                     23                     24
                      A                      A                      A
 Frequencies --    489.1265               512.6640               536.9565
 Red. masses --      4.2656                 4.2562                 3.8495
 Frc consts  --      0.6013                 0.6591                 0.6539
 IR Inten    --     29.2577                16.4014                18.2123

                     25                     26                     27
                      A                      A                      A
 Frequencies --    544.7486               563.6725               585.4760
 Red. masses --      3.0444                 6.3759                 4.0038
 Frc consts  --      0.5323                 1.1936                 0.8086
 IR Inten    --     74.3598                71.2258                53.3842

                     28                     29                     30
                      A                      A                      A
 Frequencies --    619.7308               643.3829               654.9294
 Red. masses --      3.5489                 5.9565                 4.0249
 Frc consts  --      0.8031                 1.4527                 1.0172
 IR Inten    --      4.5746                 3.0667                 4.0834

                     31                     32                     33
                      A                      A                      A
 Frequencies --    659.6250               721.0381               742.8831
 Red. masses --      4.1316                 6.4525                 5.7802
 Frc consts  --      1.0592                 1.9765                 1.8794
 IR Inten    --     12.6506                10.4880                25.0028

                     34                     35                     36
                      A                      A                      A
 Frequencies --    824.8209               849.7751               856.3769
 Red. masses --      2.7933                 1.2134                 1.2808
 Frc consts  --      1.1196                 0.5163                 0.5534
 IR Inten    --    193.0408                40.7614               109.7553

                     37                     38                     39
                      A                      A                      A
 Frequencies --    887.8715               913.5047               919.2210
 Red. masses --      1.3212                 1.3158                 6.7846
 Frc consts  --      0.6137                 0.6469                 3.3776
 IR Inten    --      9.5890                 1.5151                31.7164

                     40                     41                     42
                      A                      A                      A
 Frequencies --    928.4112               947.7845               990.0382
 Red. masses --      2.4424                 7.2770                 2.1210
 Frc consts  --      1.2404                 3.8514                 1.2249
 IR Inten    --     15.3369                 3.3075                26.5269

                     43                     44                     45
                      A                      A                      A
 Frequencies --   1005.2449              1018.6295              1025.1512
 Red. masses --      1.9680                 5.3116                 2.3280
 Frc consts  --      1.1717                 3.2472                 1.4415
 IR Inten    --     28.2777                 1.6214                94.9955

                     46                     47                     48
                      A                      A                      A
 Frequencies --   1061.9858              1071.1119              1073.7609
 Red. masses --      1.4473                 1.4955                 2.9800
 Frc consts  --      0.9617                 1.0109                 2.0243
 IR Inten    --     20.5063                 2.4143                 8.7127

                     49                     50                     51
                      A                      A                      A
 Frequencies --   1082.0479              1095.8477              1128.3621
 Red. masses --      3.2117                 4.3127                10.0391
 Frc consts  --      2.2155                 3.0514                 7.5308
 IR Inten    --     23.0481                59.4272               200.3588

                     52                     53                     54
                      A                      A                      A
 Frequencies --   1174.7265              1214.0711              1214.9915
 Red. masses --      1.4990                 1.9764                 2.1969
 Frc consts  --      1.2187                 1.7164                 1.9107
 IR Inten    --      8.4204                19.3888                19.6515

                     55                     56                     57
                      A                      A                      A
 Frequencies --   1227.8432              1232.1095              1283.7688
 Red. masses --      1.7517                 1.4944                 1.6921
 Frc consts  --      1.5560                 1.3367                 1.6431
 IR Inten    --      1.7619                24.8399                12.2276

                     58                     59                     60
                      A                      A                      A
 Frequencies --   1322.5912              1333.0820              1363.0811
 Red. masses --      5.8267                 1.2387                 2.0346
 Frc consts  --      6.0052                 1.2969                 2.2272
 IR Inten    --    150.3310                10.7059                37.6006

                     61                     62                     63
                      A                      A                      A
 Frequencies --   1405.7687              1414.2292              1420.5782
 Red. masses --      4.1092                 1.8603                 1.5084
 Frc consts  --      4.7845                 2.1922                 1.7935
 IR Inten    --     10.1471                 4.8467                42.6278

                     64                     65                     66
                      A                      A                      A
 Frequencies --   1447.4320              1452.2887              1494.8199
 Red. masses --      1.3006                 1.3240                 3.5278
 Frc consts  --      1.6054                 1.6453                 4.6444
 IR Inten    --      0.5799                56.8615                14.0122

                     67                     68                     69
                      A                      A                      A
 Frequencies --   1506.2986              1516.2544              1520.7829
 Red. masses --      1.0761                 1.0733                 5.8199
 Frc consts  --      1.4385                 1.4538                 7.9306
 IR Inten    --      4.5511                 7.6362                29.0424

                     70                     71                     72
                      A                      A                      A
 Frequencies --   1525.1111              1527.7739              1611.5510
 Red. masses --      1.1559                 1.1412                 6.1257
 Frc consts  --      1.5840                 1.5694                 9.3734
 IR Inten    --      3.8256                16.1796                 2.0305

                     73                     74                     75
                      A                      A                      A
 Frequencies --   1646.8026              1695.5616              2973.1960
 Red. masses --      6.3707                 1.0916                 1.0717
 Frc consts  --     10.1794                 1.8490                 5.5818
 IR Inten    --     12.9889                36.8511                62.7085

                     76                     77                     78
                      A                      A                      A
 Frequencies --   3046.9021              3049.9271              3079.2616
 Red. masses --      1.0394                 1.0885                 1.0598
 Frc consts  --      5.6854                 5.9657                 5.9205
 IR Inten    --     35.0439                19.9085                 7.5056

                     79                     80                     81
                      A                      A                      A
 Frequencies --   3102.5941              3120.7416              3129.1379
 Red. masses --      1.0977                 1.1053                 1.1020
 Frc consts  --      6.2258                 6.3422                 6.3573
 IR Inten    --     17.2024                 4.0089                15.6752

                     82                     83                     84
                      A                      A                      A
 Frequencies --   3239.4603              3259.6876              3314.7392
 Red. masses --      1.0934                 1.0954                 1.0999
 Frc consts  --      6.7607                 6.8580                 7.1205
 IR Inten    --      0.0754                 4.8561                 6.5242

                     85                     86                     87
                      A                      A                      A
 Frequencies --   3488.2685              3538.4632              3578.0156
 Red. masses --      1.0499                 1.0754                 1.0936
 Frc consts  --      7.5268                 7.9335                 8.2492
 IR Inten    --      0.1478                39.1428                 0.6816

 - Thermochemistry -
 -------------------
 Temperature   298.150 Kelvin.  Pressure   1.00000 Atm.
 Atom     1 has atomic number  6 and mass  12.00000

 Molecular mass:   287.03984 amu.
 Principal axes and moments of inertia in atomic units:
                           1         2         3
     Eigenvalues --  2525.83057********************
           X            0.99990  -0.00918  -0.01106
           Y            0.00751   0.98979  -0.14234
           Z            0.01225   0.14224   0.98976
 This molecule is an asymmetric top.
 Rotational symmetry number  1.
 Warning -- assumption of classical behavior for rotation
           may cause significant error
 Rotational temperatures (Kelvin)      0.03429     0.00797     0.00772
 Rotational constants (GHZ):           0.71451     0.16608     0.16086
 Zero-point vibrational energy     619180.6 (Joules/Mol)
                                  147.98772 (Kcal/Mol)
 Warning -- explicit consideration of  28 degrees of freedom as
           vibrations may cause significant error
 Vibrational temperatures:     19.15    24.73    46.79    81.56    89.82
          (Kelvin)            113.55   142.77   172.25   187.34   262.13
                              266.93   287.03   349.93   389.24   398.11
                              438.04   439.62   467.81   511.65   555.48
                              644.73   703.74   737.61   772.56   783.77
                              811.00   842.37   891.65   925.68   942.30
                              949.05  1037.41  1068.84  1186.73  1222.64
                             1232.14  1277.45  1314.33  1322.55  1335.78
                             1363.65  1424.44  1446.32  1465.58  1474.96
                             1527.96  1541.09  1544.90  1556.83  1576.68
                             1623.46  1690.17  1746.78  1748.10  1766.59
                             1772.73  1847.06  1902.91  1918.01  1961.17
                             2022.59  2034.76  2043.90  2082.53  2089.52
                             2150.71  2167.23  2181.55  2188.07  2194.29
                             2198.13  2318.66  2369.38  2439.53  4277.77
                             4383.81  4388.16  4430.37  4463.94  4490.05
                             4502.13  4660.86  4689.96  4769.17  5018.84
                             5091.06  5147.97

 Zero-point correction=                           0.235833 (Hartree/Particle)
 Thermal correction to Energy=                    0.254056
 Thermal correction to Enthalpy=                  0.255000
 Thermal correction to Gibbs Free Energy=         0.185666
 Sum of electronic and zero-point Energies=          -1574.882312
 Sum of electronic and thermal Energies=             -1574.864090
 Sum of electronic and thermal Enthalpies=           -1574.863145
 Sum of electronic and thermal Free Energies=        -1574.932479

                     E (Thermal)             CV                S
                      KCal/Mol        Cal/Mol-Kelvin    Cal/Mol-Kelvin
 Total                  159.422             66.001            145.926
 Electronic               0.000              0.000              0.000
 Translational            0.889              2.981             42.861
 Rotational               0.889              2.981             34.087
 Vibrational            157.645             60.039             68.978
 Vibration     1          0.593              1.987              7.443
 Vibration     2          0.593              1.986              6.935
 Vibration     3          0.594              1.983              5.669
 Vibration     4          0.596              1.975              4.569
 Vibration     5          0.597              1.972              4.379
 Vibration     6          0.600              1.963              3.918
 Vibration     7          0.604              1.950              3.469
 Vibration     8          0.609              1.933              3.105
 Vibration     9          0.612              1.923              2.943
 Vibration    10          0.630              1.864              2.306
 Vibration    11          0.632              1.860              2.272
 Vibration    12          0.638              1.841              2.138
 Vibration    13          0.659              1.774              1.779
 Vibration    14          0.674              1.727              1.593
 Vibration    15          0.678              1.717              1.554
 Vibration    16          0.695              1.665              1.392
 Vibration    17          0.696              1.663              1.386
 Vibration    18          0.709              1.625              1.284
 Vibration    19          0.731              1.564              1.141
 Vibration    20          0.755              1.500              1.015
 Vibration    21          0.807              1.365              0.802
 Vibration    22          0.845              1.274              0.686
 Vibration    23          0.868              1.222              0.627
 Vibration    24          0.892              1.168              0.572
 Vibration    25          0.900              1.151              0.555
 Vibration    26          0.919              1.110              0.517
 Vibration    27          0.942              1.063              0.475
 Vibration    28          0.980              0.990              0.417

                           ! Non-Optimized Parameters !
 Normal termination of Gaussian 16 at Fri Dec 11 22:37:11 2020.

 ----------------------------------------------------------------------
 # B3LYP/6-311++G(d,p) empiricaldispersion=gd3bj scf=xqc pop=npa geom=c
 heck
 ----------------------------------------------------------------------

 ---------------------------------------
 CID_106423942_JID_8763_Energie_neutraal
 ---------------------------------------
 Structure from the checkpoint file:  "JID_8763.chk"
 Charge =  0 Multiplicity = 1

 SCF Done:  E(RB3LYP) =  -1575.39557916     A.U. after   17 cycles
 Normal termination of Gaussian 16 at Fri Dec 11 22:42:14 2020.

 ----------------------------------------------------------------------
 # B3LYP/6-311++G(d,p) empiricaldispersion=gd3bj scf=xqc pop=npa geom=c
 heck
 ----------------------------------------------------------------------

 -------------------------------------
 CID_106423942_JID_8763_Energie_kation
 -------------------------------------
 Structure from the checkpoint file:  "JID_8763.chk"
 Charge =  1 Multiplicity = 2

 SCF Done:  E(UB3LYP) =  -1575.08895061     A.U. after   30 cycles
 Normal termination of Gaussian 16 at Fri Dec 11 22:54:17 2020.
 Gaussian 16:  ES64L-G16RevA.03 25-Dec-2016

 ----------------------------------------------------------------------
 # B3LYP/6-311++G(d,p) empiricaldispersion=gd3bj scf=xqc pop=npa geom=c
 heck
 ----------------------------------------------------------------------

 ------------------------------------
 CID_106423942_JID_8763_Energie_anion
 ------------------------------------
 Structure from the checkpoint file:  "JID_8763.chk"
 Charge = -1 Multiplicity = 2

                         Standard orientation:
 ---------------------------------------------------------------------
 Center     Atomic      Atomic             Coordinates (Angstroms)
 Number     Number       Type             X           Y           Z
 ---------------------------------------------------------------------
      1          6           0       -3.756459   -1.377173    2.217048
      2          6           0       -2.913409   -0.799258    1.111443
      3          6           0       -3.301436    0.230982    0.280808
      4         16           0       -2.088321    0.638934   -0.903124
      5          6           0       -1.049352   -0.603908   -0.269207
      6          6           0       -1.611061   -1.279845    0.783253
      7         16           0        0.510918   -0.998534   -0.977731
      8          8           0        1.169425   -1.899085   -0.020674
      9          8           0        0.389395   -1.374181   -2.386665
     10          7           0        1.235444    0.525255   -1.016268
     11          6           0        1.828381    1.047784    0.219155
     12          6           0        3.256959    0.651968    0.444783
     13          6           0        3.937777   -0.529747    0.437389
     14          6           0        5.275655   -0.139106    0.717376
     15          7           0        5.401669    1.158620    0.881084
     16          8           0        4.111713    1.669212    0.702399
     17          6           0       -4.598280    0.987278    0.263688
     18          7           0       -4.413125    2.297772   -0.360020
     19          1           0       -4.446485   -2.142326    1.839313
     20          1           0       -3.128239   -1.850085    2.978150
     21          1           0       -4.361663   -0.609653    2.711041
     22          1           0       -1.100357   -2.081368    1.304004
     23          1           0        1.833160    0.582601   -1.838347
     24          1           0        1.770674    2.139998    0.190417
     25          1           0        1.196813    0.714982    1.049468
     26          1           0        3.531502   -1.513854    0.266934
     27          1           0        6.155964   -0.763227    0.807059
     28          1           0       -5.330527    0.436147   -0.341678
     29          1           0       -5.005677    1.017015    1.289046
     30          1           0       -5.312078    2.729637   -0.558247
     31          1           0       -3.909467    2.920781    0.268067
 ---------------------------------------------------------------------

 SCF Done:  E(UB3LYP) =  -1575.40365335     A.U. after   31 cycles

 The electronic state is 2-A.
 Alpha  occ. eigenvalues --  -88.95272 -88.74678 -19.11699 -19.00664 -19.00376
 Alpha  occ. eigenvalues --  -14.26761 -14.24341 -14.19473 -10.14961 -10.13654
 Alpha  occ. eigenvalues --  -10.12053 -10.09790 -10.08496 -10.08191 -10.07271
 Alpha  occ. eigenvalues --  -10.07202 -10.06272 -10.05572  -8.01354  -7.83268
 Alpha  occ. eigenvalues --   -5.97675  -5.97605  -5.97436  -5.79590  -5.79196
 Alpha  occ. eigenvalues --   -5.78850  -1.05365  -1.00927  -0.89865  -0.83291
 Alpha  occ. eigenvalues --   -0.79140  -0.78099  -0.75827  -0.71162  -0.66462
 Alpha  occ. eigenvalues --   -0.63699  -0.62492  -0.57907  -0.57462  -0.53224
 Alpha  occ. eigenvalues --   -0.51481  -0.49456  -0.45305  -0.44154  -0.42418
 Alpha  occ. eigenvalues --   -0.41033  -0.39515  -0.39420  -0.38274  -0.37621
 Alpha  occ. eigenvalues --   -0.36317  -0.35452  -0.34323  -0.32577  -0.32389
 Alpha  occ. eigenvalues --   -0.32025  -0.31647  -0.30702  -0.30233  -0.28958
 Alpha  occ. eigenvalues --   -0.26663  -0.25723  -0.25232  -0.24827  -0.22768
 Alpha  occ. eigenvalues --   -0.22389  -0.21757  -0.21550  -0.20873  -0.19807
 Alpha  occ. eigenvalues --   -0.18624  -0.16600  -0.14850  -0.13365  -0.11703
 Alpha  occ. eigenvalues --    0.03598
 Alpha virt. eigenvalues --    0.05750   0.06450   0.07280   0.07715   0.08602
 Alpha virt. eigenvalues --    0.09249   0.09928   0.10328   0.10868   0.11153
 Alpha virt. eigenvalues --    0.11821   0.12085   0.12531   0.12758   0.13495

  Beta  occ. eigenvalues --  -88.95259 -88.74625 -19.11612 -19.00642 -19.00326
  Beta  occ. eigenvalues --  -14.26661 -14.24306 -14.19422 -10.14886 -10.13660
  Beta  occ. eigenvalues --  -10.12045 -10.09794 -10.08499 -10.08011 -10.07197
  Beta  occ. eigenvalues --  -10.06979 -10.06329 -10.05411  -8.01341  -7.83219
  Beta  occ. eigenvalues --   -5.97653  -5.97575  -5.97430  -5.79567  -5.79172
  Beta  occ. eigenvalues --   -5.78676  -1.05215  -1.00823  -0.89786  -0.83206
  Beta  occ. eigenvalues --   -0.78976  -0.77965  -0.75578  -0.71051  -0.66287
  Beta  occ. eigenvalues --   -0.63429  -0.62304  -0.57689  -0.57240  -0.53179
  Beta  occ. eigenvalues --   -0.51357  -0.49333  -0.45052  -0.44047  -0.42220
  Beta  occ. eigenvalues --   -0.40850  -0.39366  -0.39304  -0.38075  -0.37428
  Beta  occ. eigenvalues --   -0.36235  -0.35319  -0.34212  -0.32448  -0.32304
  Beta  occ. eigenvalues --   -0.31976  -0.31577  -0.30583  -0.30160  -0.28744
  Beta  occ. eigenvalues --   -0.26540  -0.25566  -0.24812  -0.24458  -0.22584
  Beta  occ. eigenvalues --   -0.22201  -0.21471  -0.21374  -0.20715  -0.19695
  Beta  occ. eigenvalues --   -0.18411  -0.16280  -0.14681  -0.12425  -0.10578
  Beta virt. eigenvalues --    0.06414   0.06715   0.07259   0.07735   0.08474
  Beta virt. eigenvalues --    0.08717   0.09664   0.10015   0.10374   0.10871
  Beta virt. eigenvalues --    0.11207   0.11895   0.12206   0.12647   0.12701

 Mulliken charges and spin densities:
               1          2
     1  C   -0.355617  -0.323458
     2  C    0.154361   0.228066
     3  C   -0.590753   0.569064
     4  S    0.046796  -0.188853
     5  C   -1.049379   0.242988
     6  C    0.397499   0.208246
     7  S    0.386932   0.124113
     8  O   -0.197976  -0.001320
     9  O   -0.085630   0.000809
    10  N   -0.123079  -0.025281
    11  C   -0.158155  -0.246342
    12  C   -0.713165   0.242507
    13  C    0.395547   0.020062
    14  C   -0.337909   0.025610
    15  N   -0.300345   0.048085
    16  O    0.125658   0.011901
    17  C    0.530732  -1.136664
    18  N   -0.387405  -0.001534
    19  H    0.135647   0.004594
    20  H    0.130793   0.003433
    21  H    0.074771   0.052071
    22  H    0.175335  -0.006214
    23  H    0.256701   0.027732
    24  H    0.211121  -0.004257
    25  H    0.209071   0.022565
    26  H    0.207428   0.000566
    27  H    0.175338   0.000996
    28  H   -0.214497   0.423402
    29  H   -0.065437   0.196875
    30  H   -0.120828   0.363313
    31  H    0.086446   0.116926
 Sum of Mulliken charges =  -1.00000   1.00000

 Dipole moment (field-independent basis, Debye):
    X=              3.7647    Y=             -1.1937    Z=              2.8888  Tot=              4.8931
 Quadrupole moment (field-independent basis, Debye-Ang):
   XX=           -205.4225   YY=           -147.1872   ZZ=           -142.9760
   XY=              1.9914   XZ=            -12.7364   YZ=             -4.9172

 Summary of Natural Population Analysis:

                                       Natural Population
                Natural  -----------------------------------------------
    Atom  No    Charge         Core      Valence    Rydberg      Total
 -----------------------------------------------------------------------
      C    1   -0.28657      0.99963     2.28236    0.00458     3.28657
      C    2   -0.07240      0.99943     2.06387    0.00910     3.07240
      C    3   -0.03885      0.99944     2.02519    0.01423     3.03885
      S    4    0.25532      4.99935     2.72276    0.02257     7.74468
      C    5   -0.23658      0.99938     2.22222    0.01498     3.23658
      C    6   -0.07570      0.99942     2.06568    0.01060     3.07570
      S    7    1.11615      4.99907     1.78194    0.10284     6.88385
      O    8   -0.47409      0.99990     3.46742    0.00677     4.47409
      O    9   -0.46119      0.99991     3.45615    0.00514     4.46119
      N   10   -0.42914      0.99977     2.91645    0.01293     3.92914
      C   11   -0.12020      0.99958     2.10879    0.01183     3.12020
      C   12    0.17637      0.99950     1.81050    0.01363     2.82363
      C   13   -0.17764      0.99949     2.17018    0.00797     3.17764
      C   14   -0.00973      0.99967     1.99576    0.01430     3.00973
      N   15   -0.07336      0.99972     2.56004    0.01360     3.57336
      O   16   -0.16503      0.99985     3.15388    0.01130     4.16503
      C   17   -0.10424      0.99957     2.09206    0.01262     3.10424
      N   18   -0.41914      0.99977     2.90826    0.01110     3.91914
      H   19    0.09859      0.00000     0.40014    0.00127     0.40141
      H   20    0.09898      0.00000     0.40005    0.00096     0.40102
      H   21    0.09896      0.00000     0.39951    0.00153     0.40104
      H   22    0.10802      0.00000     0.39064    0.00134     0.39198
      H   23    0.19537      0.00000     0.30310    0.00153     0.30463
      H   24    0.10842      0.00000     0.39041    0.00116     0.39158
      H   25    0.12014      0.00000     0.37867    0.00119     0.37986
      H   26    0.12898      0.00000     0.37005    0.00097     0.37102
      H   27    0.09948      0.00000     0.39958    0.00094     0.40052
      H   28    0.10285      0.00000     0.39487    0.00228     0.39715
      H   29    0.08492      0.00000     0.41334    0.00175     0.41508
      H   30    0.17729      0.00000     0.31971    0.00300     0.32271
      H   31    0.17403      0.00000     0.32421    0.00176     0.32597
 =======================================================================
   * Total *    0.00000     25.99244    48.68778    0.31978    75.00000

 Normal termination of Gaussian 16 at Fri Dec 11 23:06:30 2020.
