 Gaussian 16, Revision A.03,

 -----------------------------------------------------------
 # opt freq B3LYP/6-31G(d) empiricaldispersion=gd3bj scf=xqc
 -----------------------------------------------------------

 ------------------------------
 CID_81841320_JID_6224_neutraal
 ------------------------------
 Symbolic Z-matrix:
 Charge =  0 Multiplicity = 1

 SCF Done:  E(RB3LYP) =  -712.983172350     A.U. after   33 cycles
 SCF Done:  E(RB3LYP) =  -712.983172350     a.u. after    1 cycles
 SCF Done:  E(RB3LYP) =  -713.151661107     A.U. after   28 cycles
 SCF Done:  E(RB3LYP) =  -713.352927699     A.U. after   21 cycles
 SCF Done:  E(RB3LYP) =  -713.592708326     A.U. after   25 cycles
 SCF Done:  E(RB3LYP) =  -713.726673012     A.U. after   20 cycles
 SCF Done:  E(RB3LYP) =  -713.830291326     A.U. after   20 cycles
 SCF Done:  E(RB3LYP) =  -713.925749224     A.U. after   26 cycles
 SCF Done:  E(RB3LYP) =  -713.973670276     A.U. after   23 cycles
 SCF Done:  E(RB3LYP) =  -714.022815037     A.U. after   20 cycles
 SCF Done:  E(RB3LYP) =  -714.346288961     A.U. after   12 cycles
 SCF Done:  E(RB3LYP) =  -714.346309326     A.U. after   11 cycles
 SCF Done:  E(RB3LYP) =  -714.346316410     A.U. after   12 cycles
 SCF Done:  E(RB3LYP) =  -714.346318774     A.U. after   10 cycles
 SCF Done:  E(RB3LYP) =  -714.346319554     A.U. after    8 cycles
 SCF Done:  E(RB3LYP) =  -714.346319843     A.U. after    8 cycles
 Optimization completed.
    -- Stationary point found.

 1\1\GINC-NODE106\FOpt\RB3LYP\6-31G(d)\C10H8N6\VSC10255\10-Dec-2020\0\\
 # opt freq B3LYP/6-31G(d) empiricaldispersion=gd3bj scf=xqc\\CID_81841
 320_JID_6224_neutraal\\0,1\C,-2.585966689,-0.5266330823,-1.3641785984\
 C,-1.3244507165,-0.1572917294,-0.6224375482\C,-0.7613021731,1.16430099
 29,-0.8814284948\N,0.4799091133,1.394266886,-1.1167078293\C,1.08809334
 84,-0.0913614173,1.6439534372\N,-0.0409716302,-0.6529519931,1.42421598
 9\C,-0.8193393697,-0.9709826008,0.3557362921\C,2.2672360533,0.22595315
 22,0.701350801\N,2.2831014509,-0.0919816231,-0.6228392443\C,1.35753409

 Normal termination of Gaussian 16 at Thu Dec 10 21:58:26 2020.

 --------------------------------------------------------------------
 #N Geom=AllCheck Guess=TCheck SCRF=Check GenChk RB3LYP/6-31G(d) Freq
 --------------------------------------------------------------------

 Structure from the checkpoint file:  "JID_6224.chk"
 ------------------------------
 CID_81841320_JID_6224_neutraal
 ------------------------------
 Charge =  0 Multiplicity = 1

 SCF Done:  E(RB3LYP) =  -714.346319843     A.U. after    1 cycles

  Exact polarizability: 246.169  -9.095 145.237  -1.295   0.719  83.250
 Approx polarizability: 400.991 -33.485 271.250  -0.183   7.796 148.359

                      1                      2                      3
                      A                      A                      A
 Frequencies --     55.1236                65.2148                79.6430
 Red. masses --      4.4090                 6.8699                 5.0331
 Frc consts  --      0.0079                 0.0172                 0.0188
 IR Inten    --      5.8621                 4.7979                 2.4341

                      4                      5                      6
                      A                      A                      A
 Frequencies --    108.7725               146.1694               151.7178
 Red. masses --      7.5320                 5.8533                 1.1317
 Frc consts  --      0.0525                 0.0737                 0.0153
 IR Inten    --      7.0497                 3.7329                 0.5257

                      7                      8                      9
                      A                      A                      A
 Frequencies --    183.0744               202.5165               233.1493
 Red. masses --      5.0977                 4.6713                 4.2924
 Frc consts  --      0.1007                 0.1129                 0.1375
 IR Inten    --      1.5478                 1.7981                 5.7600

                     10                     11                     12
                      A                      A                      A
 Frequencies --    273.6235               287.2318               314.2553
 Red. masses --      5.1113                 3.6593                 1.2338
 Frc consts  --      0.2255                 0.1779                 0.0718
 IR Inten    --      0.9478                 3.2300               237.9721

                     13                     14                     15
                      A                      A                      A
 Frequencies --    344.2438               347.9824               379.2477
 Red. masses --      3.9831                 3.5399                 5.8648
 Frc consts  --      0.2781                 0.2526                 0.4970
 IR Inten    --      3.9982                 3.4657                21.3698

                     16                     17                     18
                      A                      A                      A
 Frequencies --    443.2249               463.5923               488.2078
 Red. masses --      6.9843                 4.0894                 5.8921
 Frc consts  --      0.8084                 0.5178                 0.8274
 IR Inten    --      8.8545                 1.7507                 5.6546

                     19                     20                     21
                      A                      A                      A
 Frequencies --    497.2692               540.0624               568.4566
 Red. masses --      5.9456                 4.5344                 6.3834
 Frc consts  --      0.8662                 0.7792                 1.2153
 IR Inten    --     13.9837                 7.5853                14.3263

                     22                     23                     24
                      A                      A                      A
 Frequencies --    602.5300               628.1738               640.3441
 Red. masses --      1.2356                 5.8160                 5.2935
 Frc consts  --      0.2643                 1.3522                 1.2789
 IR Inten    --      0.8141                17.8461                12.0945

                     25                     26                     27
                      A                      A                      A
 Frequencies --    685.9463               693.2245               723.9460
 Red. masses --      5.2001                 6.6557                11.3473
 Frc consts  --      1.4416                 1.8845                 3.5039
 IR Inten    --      4.8608                23.6960                12.8853

                     28                     29                     30
                      A                      A                      A
 Frequencies --    749.2080               798.3827               908.5738
 Red. masses --      8.6403                 9.3787                 1.8684
 Frc consts  --      2.8575                 3.5222                 0.9087
 IR Inten    --     15.9520                19.0496                22.0477

                     31                     32                     33
                      A                      A                      A
 Frequencies --    920.1348               933.8208               973.6548
 Red. masses --      4.4293                 2.9414                 1.5788
 Frc consts  --      2.2095                 1.5112                 0.8818
 IR Inten    --     88.9516                 4.3260                18.0699

                     34                     35                     36
                      A                      A                      A
 Frequencies --    985.6249              1023.1246              1037.3915
 Red. masses --      1.8672                 1.7352                 2.2822
 Frc consts  --      1.0687                 1.0702                 1.4471
 IR Inten    --     27.5658                 3.3852                58.6845

                     37                     38                     39
                      A                      A                      A
 Frequencies --   1067.9670              1075.0950              1114.8209
 Red. masses --      2.5139                 1.8810                 3.6681
 Frc consts  --      1.6893                 1.2809                 2.6860
 IR Inten    --     40.7723                17.9195                66.7497

                     40                     41                     42
                      A                      A                      A
 Frequencies --   1214.9939              1248.5383              1269.5419
 Red. masses --      3.5250                 3.2673                 3.7681
 Frc consts  --      3.0659                 3.0009                 3.5783
 IR Inten    --      4.2713                 7.7805                24.3230

                     43                     44                     45
                      A                      A                      A
 Frequencies --   1337.0798              1401.6425              1424.3411
 Red. masses --      4.9341                 1.2018                 1.4743
 Frc consts  --      5.1972                 1.3911                 1.7623
 IR Inten    --     18.0689                17.0861                24.2909

                     46                     47                     48
                      A                      A                      A
 Frequencies --   1442.2595              1451.3018              1482.5307
 Red. masses --      1.3233                 1.5875                 5.9979
 Frc consts  --      1.6218                 1.9700                 7.7670
 IR Inten    --     16.2351                35.7725               312.4627

                     49                     50                     51
                      A                      A                      A
 Frequencies --   1506.8756              1523.5117              1576.6007
 Red. masses --      1.0526                 1.1138                 2.5528
 Frc consts  --      1.4082                 1.5231                 3.7386
 IR Inten    --      9.1689                10.3726                36.2704

                     52                     53                     54
                      A                      A                      A
 Frequencies --   1609.0971              1630.7779              1687.6530
 Red. masses --      2.9464                 7.9135                 3.1840
 Frc consts  --      4.4948                12.3997                 5.3430
 IR Inten    --    132.7096               252.2850               552.4006

                     55                     56                     57
                      A                      A                      A
 Frequencies --   1707.2167              1711.6893              1758.7411
 Red. masses --      8.8766                 6.0717                 9.4435
 Frc consts  --     15.2430                10.4811                17.2102
 IR Inten    --    572.1829               198.5457               101.7899

                     58                     59                     60
                      A                      A                      A
 Frequencies --   2327.2651              3030.3483              3078.8732
 Red. masses --     12.6447                 1.0402                 1.0986
 Frc consts  --     40.3507                 5.6279                 6.1356
 IR Inten    --    138.8565                48.6841                20.1290

                     61                     62                     63
                      A                      A                      A
 Frequencies --   3104.7864              3129.6881              3137.4148
 Red. masses --      1.0875                 1.0986                 1.0879
 Frc consts  --      6.1767                 6.3398                 6.3093
 IR Inten    --     52.7136                 6.1248                37.5640

                     64                     65                     66
                      A                      A                      A
 Frequencies --   3144.6512              3595.3062              3719.3324
 Red. masses --      1.0884                 1.0446                 1.1064
 Frc consts  --      6.3413                 7.9553                 9.0177
 IR Inten    --     19.5192               243.1829                69.1098

 - Thermochemistry -
 -------------------
 Temperature   298.150 Kelvin.  Pressure   1.00000 Atm.
 Atom     1 has atomic number  6 and mass  12.00000

 Molecular mass:   212.08104 amu.
 Principal axes and moments of inertia in atomic units:
                           1         2         3
     Eigenvalues --  1837.718934480.897915797.77029
           X            0.99942  -0.03379  -0.00278
           Y            0.03381   0.99941   0.00578
           Z            0.00258  -0.00587   0.99998
 This molecule is an asymmetric top.
 Rotational symmetry number  1.
 Warning -- assumption of classical behavior for rotation
           may cause significant error
 Rotational temperatures (Kelvin)      0.04713     0.01933     0.01494
 Rotational constants (GHZ):           0.98206     0.40276     0.31128
 Zero-point vibrational energy     460483.3 (Joules/Mol)
                                  110.05816 (Kcal/Mol)
 Warning -- explicit consideration of  22 degrees of freedom as
           vibrations may cause significant error
 Vibrational temperatures:     79.31    93.83   114.59   156.50   210.31
          (Kelvin)            218.29   263.40   291.38   335.45   393.68
                              413.26   452.14   495.29   500.67   545.65
                              637.70   667.01   702.42   715.46   777.03
                              817.88   866.91   903.80   921.31   986.92
                              997.40  1041.60  1077.94  1148.69  1307.24
                             1323.87  1343.56  1400.87  1418.09  1472.05
                             1492.58  1536.57  1546.82  1603.98  1748.11
                             1796.37  1826.59  1923.76  2016.65  2049.31
                             2075.09  2088.10  2133.03  2168.06  2191.99
                             2268.38  2315.13  2346.33  2428.16  2456.30
                             2462.74  2530.44  3348.42  4360.00  4429.81
                             4467.10  4502.92  4514.04  4524.45  5172.84
                             5351.29

 Zero-point correction=                           0.175389 (Hartree/Particle)
 Thermal correction to Energy=                    0.189435
 Thermal correction to Enthalpy=                  0.190379
 Thermal correction to Gibbs Free Energy=         0.134514
 Sum of electronic and zero-point Energies=           -714.170931
 Sum of electronic and thermal Energies=              -714.156885
 Sum of electronic and thermal Enthalpies=            -714.155941
 Sum of electronic and thermal Free Energies=         -714.211806

                     E (Thermal)             CV                S
                      KCal/Mol        Cal/Mol-Kelvin    Cal/Mol-Kelvin
 Total                  118.872             52.531            117.578
 Electronic               0.000              0.000              0.000
 Translational            0.889              2.981             41.959
 Rotational               0.889              2.981             32.235
 Vibrational            117.095             46.569             43.385
 Vibration     1          0.596              1.976              4.625
 Vibration     2          0.597              1.971              4.293
 Vibration     3          0.600              1.963              3.900
 Vibration     4          0.606              1.942              3.291
 Vibration     5          0.617              1.907              2.722
 Vibration     6          0.619              1.901              2.651
 Vibration     7          0.631              1.863              2.297
 Vibration     8          0.639              1.836              2.110
 Vibration     9          0.654              1.790              1.855
 Vibration    10          0.676              1.722              1.573
 Vibration    11          0.684              1.697              1.490
 Vibration    12          0.702              1.646              1.340
 Vibration    13          0.723              1.587              1.192
 Vibration    14          0.726              1.579              1.175
 Vibration    15          0.749              1.514              1.042
 Vibration    16          0.803              1.376              0.817
 Vibration    17          0.821              1.331              0.756
 Vibration    18          0.844              1.276              0.688
 Vibration    19          0.853              1.256              0.665
 Vibration    20          0.895              1.161              0.565
 Vibration    21          0.924              1.099              0.507
 Vibration    22          0.961              1.026              0.445

 Optimization completed.
    -- Stationary point found.

 1\1\GINC-NODE106\Freq\RB3LYP\6-31G(d)\C10H8N6\VSC10255\10-Dec-2020\0\\
 #N Geom=AllCheck Guess=TCheck SCRF=Check GenChk RB3LYP/6-31G(d) Freq\\
 CID_81841320_JID_6224_neutraal\\0,1\C,-2.585966689,-0.5266330823,-1.36
 41785984\C,-1.3244507165,-0.1572917294,-0.6224375482\C,-0.7613021731,1
 .1643009929,-0.8814284948\N,0.4799091133,1.394266886,-1.1167078293\C,1
 .0880933484,-0.0913614173,1.6439534372\N,-0.0409716302,-0.6529519931,1
 .424215989\C,-0.8193393697,-0.9709826008,0.3557362921\C,2.2672360533,0
 .2259531522,0.701350801\N,2.2831014509,-0.0919816231,-0.6228392443\C,1

 Normal termination of Gaussian 16 at Thu Dec 10 22:06:25 2020.

 ----------------------------------------------------------------------
 # B3LYP/6-311++G(d,p) empiricaldispersion=gd3bj scf=xqc pop=npa geom=c
 heck
 ----------------------------------------------------------------------

 --------------------------------------
 CID_81841320_JID_6224_Energie_neutraal
 --------------------------------------
 Structure from the checkpoint file:  "JID_6224.chk"
 Charge =  0 Multiplicity = 1

 SCF Done:  E(RB3LYP) =  -714.537851971     A.U. after   16 cycles
 Normal termination of Gaussian 16 at Thu Dec 10 22:10:03 2020.

 ----------------------------------------------------------------------
 # B3LYP/6-311++G(d,p) empiricaldispersion=gd3bj scf=xqc pop=npa geom=c
 heck
 ----------------------------------------------------------------------

 ------------------------------------
 CID_81841320_JID_6224_Energie_kation
 ------------------------------------
 Structure from the checkpoint file:  "JID_6224.chk"
 Charge =  1 Multiplicity = 2

 SCF Done:  E(UB3LYP) =  -714.253088818     A.U. after   25 cycles
 Normal termination of Gaussian 16 at Thu Dec 10 22:17:53 2020.
 Gaussian 16:  ES64L-G16RevA.03 25-Dec-2016

 -----------------------------------
 CID_81841320_JID_6224_Energie_anion
 -----------------------------------
 Structure from the checkpoint file:  "JID_6224.chk"
 Charge = -1 Multiplicity = 2

                         Standard orientation:
 ---------------------------------------------------------------------
 Center     Atomic      Atomic             Coordinates (Angstroms)
 Number     Number       Type             X           Y           Z
 ---------------------------------------------------------------------
      1          6           0       -4.123899    1.300037    0.003651
      2          6           0       -2.732457    0.719793   -0.068604
      3          6           0       -2.440134   -0.174756   -1.184467
      4          7           0       -1.845902   -1.307681   -1.073950
      5          6           0        0.520593    0.282461    0.364584
      6          7           0       -0.402420    1.129349    0.627801
      7          6           0       -1.752015    1.132995    0.792819
      8          6           0        0.530997   -1.259309    0.413613
      9          7           0       -0.538295   -2.010611    0.796985
     10          6           0       -1.645353   -1.888282    0.165924
     11          6           0        1.890454    0.595418    0.039330
     12          6           0        2.542783   -0.634442   -0.063696
     13          7           0        1.719492   -1.742887    0.195420
     14          7           0        3.818440   -0.869805   -0.372104
     15          6           0        2.486937    1.855843   -0.145091
     16          7           0        3.039736    2.869736   -0.313290
     17          1           0       -4.353866    1.891648   -0.893788
     18          1           0       -4.890523    0.518444    0.075280
     19          1           0       -4.229113    1.960111    0.869617
     20          1           0       -2.754613    0.119561   -2.191105
     21          1           0       -2.061353    1.795763    1.602796
     22          1           0       -2.519714   -2.406908    0.565372
     23          1           0        4.149293   -1.823458   -0.395039
     24          1           0        4.455095   -0.110421   -0.567531
 ---------------------------------------------------------------------

 SCF Done:  E(UB3LYP) =  -714.595357109     A.U. after   23 cycles

 The electronic state is 2-A.
 Alpha  occ. eigenvalues --  -14.21733 -14.19902 -14.17658 -14.16479 -14.16199
 Alpha  occ. eigenvalues --  -14.15294 -10.11922 -10.11017 -10.10956 -10.09080
 Alpha  occ. eigenvalues --  -10.08546 -10.08156 -10.07228 -10.07035 -10.04740
 Alpha  occ. eigenvalues --  -10.03838  -0.86010  -0.84018  -0.79880  -0.78905
 Alpha  occ. eigenvalues --   -0.76261  -0.75351  -0.68219  -0.63736  -0.59135
 Alpha  occ. eigenvalues --   -0.57524  -0.52359  -0.50825  -0.47656  -0.45342
 Alpha  occ. eigenvalues --   -0.44228  -0.40912  -0.38617  -0.36848  -0.34931
 Alpha  occ. eigenvalues --   -0.33355  -0.32789  -0.31565  -0.30597  -0.29699
 Alpha  occ. eigenvalues --   -0.29274  -0.28804  -0.23273  -0.23042  -0.22381
 Alpha  occ. eigenvalues --   -0.22023  -0.21416  -0.20114  -0.19377  -0.17592
 Alpha  occ. eigenvalues --   -0.14976  -0.14124  -0.12771  -0.08636  -0.07234
 Alpha  occ. eigenvalues --    0.00098
 Alpha virt. eigenvalues --    0.06385   0.07863   0.08475   0.09769   0.09945
 Alpha virt. eigenvalues --    0.10678   0.11817   0.12116   0.12608   0.13457
 Alpha virt. eigenvalues --    0.13975   0.14618   0.14962   0.15454   0.15714

  Beta  occ. eigenvalues --  -14.21558 -14.19801 -14.17663 -14.16523 -14.15769
  Beta  occ. eigenvalues --  -14.15246 -10.11750 -10.11028 -10.10610 -10.09122
  Beta  occ. eigenvalues --  -10.08066 -10.07992 -10.07215 -10.07046 -10.04589
  Beta  occ. eigenvalues --  -10.03923  -0.85563  -0.83637  -0.79427  -0.78356
  Beta  occ. eigenvalues --   -0.76299  -0.75062  -0.68005  -0.63588  -0.58687
  Beta  occ. eigenvalues --   -0.57400  -0.51909  -0.50454  -0.47343  -0.45147
  Beta  occ. eigenvalues --   -0.44062  -0.40709  -0.38308  -0.36626  -0.34394
  Beta  occ. eigenvalues --   -0.33023  -0.32509  -0.31290  -0.30443  -0.29230
  Beta  occ. eigenvalues --   -0.28770  -0.28302  -0.23285  -0.22265  -0.21874
  Beta  occ. eigenvalues --   -0.21692  -0.20738  -0.19963  -0.18963  -0.16695
  Beta  occ. eigenvalues --   -0.14553  -0.13701  -0.11976  -0.07924  -0.06534
  Beta virt. eigenvalues --    0.06382   0.06975   0.07967   0.08501   0.09777
  Beta virt. eigenvalues --    0.09978   0.10761   0.12086   0.12342   0.12820
  Beta virt. eigenvalues --    0.13544   0.14602   0.14736   0.15119   0.15573

 Mulliken charges and spin densities:
               1          2
     1  C   -0.589753  -0.009279
     2  C    0.732795   0.086980
     3  C   -0.263114   0.006753
     4  N    0.016289   0.038156
     5  C   -0.303493   0.130790
     6  N    0.066901   0.221012
     7  C   -0.558517  -0.031163
     8  C   -0.561839   0.276958
     9  N   -0.025933  -0.025128
    10  C   -0.157673   0.105770
    11  C    1.818212  -0.123814
    12  C   -0.127939   0.184713
    13  N   -0.238441   0.015916
    14  N   -0.411231   0.086306
    15  C   -1.465267   0.050866
    16  N   -0.330530  -0.023192
    17  H    0.112822   0.005136
    18  H    0.132138   0.004422
    19  H    0.138566   0.001232
    20  H    0.160107  -0.000006
    21  H    0.137712   0.009081
    22  H    0.171161  -0.004544
    23  H    0.256673  -0.003881
    24  H    0.290352  -0.003086
 Sum of Mulliken charges =  -1.00000   1.00000

 Dipole moment (field-independent basis, Debye):
    X=             -3.7352    Y=             -1.6898    Z=             -0.7021  Tot=              4.1594
 Quadrupole moment (field-independent basis, Debye-Ang):
   XX=           -107.9096   YY=           -129.8019   ZZ=           -101.5511
   XY=            -15.8108   XZ=             -1.8859   YZ=              2.6123

 Summary of Natural Population Analysis:

                                       Natural Population
                Natural  -----------------------------------------------
    Atom  No    Charge         Core      Valence    Rydberg      Total
 -----------------------------------------------------------------------
      C    1   -0.28634      0.99965     2.28228    0.00441     3.28634
      C    2   -0.08728      0.99950     2.07856    0.00922     3.08728
      C    3    0.07531      0.99957     1.91080    0.01432     2.92469
      N    4   -0.22591      0.99964     2.71482    0.01145     3.72591
      C    5    0.15264      0.99949     1.83129    0.01658     2.84736
      N    6   -0.17051      0.99957     2.65831    0.01263     3.67051
      C    7    0.03026      0.99947     1.95817    0.01211     2.96974
      C    8    0.30414      0.99954     1.67642    0.01990     2.69586
      N    9   -0.25438      0.99961     2.74085    0.01392     3.75438
      C   10    0.18649      0.99960     1.79409    0.01982     2.81351
      C   11   -0.21923      0.99933     2.21015    0.00975     3.21923
      C   12    0.29535      0.99953     1.68892    0.01620     2.70465
      N   13   -0.28313      0.99966     2.76883    0.01464     3.78313
      N   14   -0.35333      0.99967     2.84634    0.00732     3.85333
      C   15    0.16371      0.99964     1.81739    0.01926     2.83629
      N   16   -0.24063      0.99979     2.72936    0.01148     3.74063
      H   17    0.09435      0.00000     0.40428    0.00138     0.40565
      H   18    0.09317      0.00000     0.40551    0.00132     0.40683
      H   19    0.09878      0.00000     0.40015    0.00106     0.40122
      H   20    0.07675      0.00000     0.42143    0.00182     0.42325
      H   21    0.08582      0.00000     0.41292    0.00126     0.41418
      H   22    0.07678      0.00000     0.42179    0.00142     0.42322
      H   23    0.19400      0.00000     0.30456    0.00144     0.30600
      H   24    0.19318      0.00000     0.30582    0.00099     0.30682
 =======================================================================
   * Total *    0.00000     15.99326    38.78304    0.22370    55.00000

 Normal termination of Gaussian 16 at Thu Dec 10 22:25:13 2020.
