 Gaussian 16, Revision A.03,

 -----------------------------------------------------------
 # opt freq B3LYP/6-31G(d) empiricaldispersion=gd3bj scf=xqc
 -----------------------------------------------------------

 -------------------------------
 CID_130603405_JID_5310_neutraal
 -------------------------------
 Symbolic Z-matrix:
 Charge =  0 Multiplicity = 1

 SCF Done:  E(RB3LYP) =  -684.956843013     A.U. after   15 cycles
 SCF Done:  E(RB3LYP) =  -684.961487257     A.U. after   13 cycles
 SCF Done:  E(RB3LYP) =  -684.962077707     A.U. after   12 cycles
 SCF Done:  E(RB3LYP) =  -684.962204422     A.U. after   12 cycles
 SCF Done:  E(RB3LYP) =  -684.962672881     A.U. after   12 cycles
 SCF Done:  E(RB3LYP) =  -684.962692374     A.U. after   11 cycles
 SCF Done:  E(RB3LYP) =  -684.962717471     A.U. after   10 cycles
 SCF Done:  E(RB3LYP) =  -684.962721741     A.U. after    9 cycles
 SCF Done:  E(RB3LYP) =  -684.962723040     A.U. after    9 cycles
 SCF Done:  E(RB3LYP) =  -684.962723371     A.U. after    8 cycles
 SCF Done:  E(RB3LYP) =  -684.962723821     A.U. after    7 cycles
 SCF Done:  E(RB3LYP) =  -684.962723973     A.U. after    7 cycles
 SCF Done:  E(RB3LYP) =  -684.962724129     A.U. after    7 cycles
 SCF Done:  E(RB3LYP) =  -684.962724230     A.U. after    8 cycles
 SCF Done:  E(RB3LYP) =  -684.962724277     A.U. after    7 cycles
 Optimization completed.
    -- Stationary point found.
 Normal termination of Gaussian 16 at Thu Dec 10 15:33:08 2020.

 --------------------------------------------------------------------
 #N Geom=AllCheck Guess=TCheck SCRF=Check GenChk RB3LYP/6-31G(d) Freq
 --------------------------------------------------------------------

 Structure from the checkpoint file:  "JID_5310.chk"
 -------------------------------
 CID_130603405_JID_5310_neutraal
 -------------------------------
 Charge =  0 Multiplicity = 1

 SCF Done:  E(RB3LYP) =  -684.962724277     A.U. after    1 cycles

  Exact polarizability: 162.336   8.706 123.830  -0.526  -7.450 100.909
 Approx polarizability: 211.976  18.775 203.683  -5.216 -28.470 154.065

                      1                      2                      3
                      A                      A                      A
 Frequencies --     30.8509                50.5653                57.4931
 Red. masses --      3.5820                 1.4625                 2.0473
 Frc consts  --      0.0020                 0.0022                 0.0040
 IR Inten    --      0.2584                 0.2757                 0.2236

                      4                      5                      6
                      A                      A                      A
 Frequencies --     64.5264               125.4656               140.7182
 Red. masses --      3.8504                 4.0607                 4.7585
 Frc consts  --      0.0094                 0.0377                 0.0555
 IR Inten    --      0.6007                 0.2942                 1.2872

                      7                      8                      9
                      A                      A                      A
 Frequencies --    171.4391               189.6783               250.8198
 Red. masses --      3.9621                 2.7316                 3.6788
 Frc consts  --      0.0686                 0.0579                 0.1364
 IR Inten    --      2.7760                 2.0748                 2.2207

                     10                     11                     12
                      A                      A                      A
 Frequencies --    261.0855               271.9920               293.9344
 Red. masses --      4.8004                 1.8440                 1.8100
 Frc consts  --      0.1928                 0.0804                 0.0921
 IR Inten    --      0.9661                30.2852                27.0639

                     13                     14                     15
                      A                      A                      A
 Frequencies --    330.0285               368.3189               378.9004
 Red. masses --      1.8022                 3.6081                 3.1781
 Frc consts  --      0.1157                 0.2884                 0.2688
 IR Inten    --      1.3279                17.6347                17.1875

                     16                     17                     18
                      A                      A                      A
 Frequencies --    413.0028               436.8665               467.6707
 Red. masses --      3.2107                 3.2414                 2.7033
 Frc consts  --      0.3227                 0.3645                 0.3484
 IR Inten    --      4.7729                 1.0972                 3.0932

                     19                     20                     21
                      A                      A                      A
 Frequencies --    531.8845               557.2035               662.3252
 Red. masses --      4.1019                 2.1175                 5.7578
 Frc consts  --      0.6837                 0.3874                 1.4881
 IR Inten    --      2.6357                 0.8909                 0.4325

                     22                     23                     24
                      A                      A                      A
 Frequencies --    671.5240               742.3599               762.0733
 Red. masses --      9.6541                 4.8922                 3.7867
 Frc consts  --      2.5650                 1.5885                 1.2957
 IR Inten    --      4.7337                10.5683                 4.7987

                     25                     26                     27
                      A                      A                      A
 Frequencies --    796.9477               804.6212               861.1182
 Red. masses --      2.4006                 3.0652                 1.7738
 Frc consts  --      0.8983                 1.1692                 0.7750
 IR Inten    --     16.3676                 7.1283                22.6685

                     28                     29                     30
                      A                      A                      A
 Frequencies --    880.1813               891.3949               896.4240
 Red. masses --      1.8659                 1.5636                 1.9479
 Frc consts  --      0.8517                 0.7320                 0.9222
 IR Inten    --     95.0613                48.1972                 6.8447

                     31                     32                     33
                      A                      A                      A
 Frequencies --    908.4591               957.3182               973.6767
 Red. masses --      1.5007                 2.1207                 2.2544
 Frc consts  --      0.7297                 1.1451                 1.2592
 IR Inten    --     31.8131                31.7334                16.7585

                     34                     35                     36
                      A                      A                      A
 Frequencies --   1008.6138              1033.5437              1052.1834
 Red. masses --      3.8276                 3.5587                 1.6902
 Frc consts  --      2.2942                 2.2398                 1.1025
 IR Inten    --     10.3959                39.0500                11.3916

                     37                     38                     39
                      A                      A                      A
 Frequencies --   1065.8486              1072.0214              1095.2414
 Red. masses --      1.7058                 2.0796                 1.7413
 Frc consts  --      1.1418                 1.4081                 1.2307
 IR Inten    --      4.8938                21.0715                 0.0182

                     40                     41                     42
                      A                      A                      A
 Frequencies --   1102.2118              1122.2734              1130.3690
 Red. masses --      2.1837                 1.7789                 2.8727
 Frc consts  --      1.5630                 1.3201                 2.1627
 IR Inten    --      2.5806                 1.9261                 6.6261

                     43                     44                     45
                      A                      A                      A
 Frequencies --   1155.7551              1157.1999              1204.2092
 Red. masses --      1.3963                 1.6071                 1.5869
 Frc consts  --      1.0989                 1.2680                 1.3558
 IR Inten    --     12.5450                 7.1598                 9.8781

                     46                     47                     48
                      A                      A                      A
 Frequencies --   1221.2346              1247.6477              1283.7715
 Red. masses --      1.7900                 1.4491                 1.3892
 Frc consts  --      1.5729                 1.3290                 1.3489
 IR Inten    --     46.7202                10.1682                 5.5074

                     49                     50                     51
                      A                      A                      A
 Frequencies --   1310.4883              1336.1993              1345.0914
 Red. masses --      1.2911                 4.1155                 1.3490
 Frc consts  --      1.3064                 4.3293                 1.4380
 IR Inten    --      3.1356                 4.7850                 4.4666

                     52                     53                     54
                      A                      A                      A
 Frequencies --   1354.4134              1377.8514              1378.5794
 Red. masses --      1.8026                 2.3491                 1.3102
 Frc consts  --      1.9483                 2.6276                 1.4670
 IR Inten    --      6.0319                33.8752                 2.5763

                     55                     56                     57
                      A                      A                      A
 Frequencies --   1389.5867              1392.5448              1401.8572
 Red. masses --      1.5519                 1.3717                 1.4852
 Frc consts  --      1.7656                 1.5672                 1.7196
 IR Inten    --     22.7926                 6.9655                 1.2925

                     58                     59                     60
                      A                      A                      A
 Frequencies --   1410.9163              1430.5471              1433.4841
 Red. masses --      1.7258                 5.6230                 1.4831
 Frc consts  --      2.0241                 6.7799                 1.7956
 IR Inten    --     28.0340                19.4370                 8.4881

                     61                     62                     63
                      A                      A                      A
 Frequencies --   1466.6712              1469.5938              1509.9564
 Red. masses --      1.2467                 5.4743                 1.0574
 Frc consts  --      1.5801                 6.9658                 1.4204
 IR Inten    --      4.4978                14.7710                 9.4824

                     64                     65                     66
                      A                      A                      A
 Frequencies --   1511.2060              1516.7160              1521.0408
 Red. masses --      1.0933                 1.0895                 1.0866
 Frc consts  --      1.4711                 1.4767                 1.4811
 IR Inten    --      0.5481                 3.5292                 7.5515

                     67                     68                     69
                      A                      A                      A
 Frequencies --   1527.8495              1533.7521              1553.0191
 Red. masses --      1.1958                 1.0986                 3.7042
 Frc consts  --      1.6447                 1.5227                 5.2638
 IR Inten    --     36.5545                 1.1662                40.2938

                     70                     71                     72
                      A                      A                      A
 Frequencies --   1692.3883              1776.5664              3012.6873
 Red. masses --      1.0906                11.3484                 1.0635
 Frc consts  --      1.8404                21.1032                 5.6872
 IR Inten    --     30.7786               150.1944                23.2926

                     73                     74                     75
                      A                      A                      A
 Frequencies --   3023.9789              3030.2742              3034.5984
 Red. masses --      1.0693                 1.0634                 1.0824
 Frc consts  --      5.7610                 5.7533                 5.8725
 IR Inten    --     20.8815                20.8955                 9.4022

                     76                     77                     78
                      A                      A                      A
 Frequencies --   3051.8430              3055.3710              3063.2749
 Red. masses --      1.0629                 1.0875                 1.0949
 Frc consts  --      5.8328                 5.9812                 6.0531
 IR Inten    --     20.1775                24.1734                52.3248

                     79                     80                     81
                      A                      A                      A
 Frequencies --   3075.9384              3078.9211              3079.2476
 Red. masses --      1.0926                 1.1023                 1.0394
 Frc consts  --      6.0908                 6.1568                 5.8066
 IR Inten    --     66.2096                42.3622                37.3515

                     82                     83                     84
                      A                      A                      A
 Frequencies --   3098.4395              3159.7900              3198.0461
 Red. masses --      1.1021                 1.0975                 1.1071
 Frc consts  --      6.2339                 6.4561                 6.6714
 IR Inten    --     44.9689                 7.8948                 2.3018

                     85                     86                     87
                      A                      A                      A
 Frequencies --   3304.0636              3455.1888              3544.1822
 Red. masses --      1.0984                 1.0490                 1.0927
 Frc consts  --      7.0650                 7.3787                 8.0870
 IR Inten    --      0.2432                 1.1537                 0.5418

 - Thermochemistry -
 -------------------
 Temperature   298.150 Kelvin.  Pressure   1.00000 Atm.
 Atom     1 has atomic number  6 and mass  12.00000

 Molecular mass:   208.13241 amu.
 Principal axes and moments of inertia in atomic units:
                           1         2         3
     Eigenvalues --  1497.364545364.602295752.43074
           X            0.99998   0.00658   0.00075
           Y           -0.00660   0.99959   0.02789
           Z           -0.00057  -0.02789   0.99961
 This molecule is an asymmetric top.
 Rotational symmetry number  1.
 Warning -- assumption of classical behavior for rotation
           may cause significant error
 Rotational temperatures (Kelvin)      0.05784     0.01615     0.01506
 Rotational constants (GHZ):           1.20528     0.33642     0.31374
 Zero-point vibrational energy     700169.2 (Joules/Mol)
                                  167.34447 (Kcal/Mol)
 Warning -- explicit consideration of  20 degrees of freedom as
           vibrations may cause significant error
 Vibrational temperatures:     44.39    72.75    82.72    92.84   180.52
          (Kelvin)            202.46   246.66   272.90   360.87   375.64
                              391.34   422.91   474.84   529.93   545.15
                              594.22   628.55   672.87   765.26   801.69
                              952.94   966.17  1068.09  1096.45  1146.63
                             1157.67  1238.96  1266.38  1282.52  1289.75
                             1307.07  1377.37  1400.90  1451.17  1487.04
                             1513.86  1533.52  1542.40  1575.81  1585.84
                             1614.70  1626.35  1662.87  1664.95  1732.59
                             1757.08  1795.09  1847.06  1885.50  1922.49
                             1935.29  1948.70  1982.42  1983.47  1999.31
                             2003.56  2016.96  2029.99  2058.24  2062.46
                             2110.21  2114.42  2172.49  2174.29  2182.22
                             2188.44  2198.23  2206.73  2234.45  2434.97
                             2556.08  4334.59  4350.83  4359.89  4366.11
                             4390.92  4396.00  4407.37  4425.59  4429.88
                             4430.35  4457.96  4546.23  4601.28  4753.81
                             4971.25  5099.29

 Zero-point correction=                           0.266680 (Hartree/Particle)
 Thermal correction to Energy=                    0.280936
 Thermal correction to Enthalpy=                  0.281881
 Thermal correction to Gibbs Free Energy=         0.224306
 Sum of electronic and zero-point Energies=           -684.696044
 Sum of electronic and thermal Energies=              -684.681788
 Sum of electronic and thermal Enthalpies=            -684.680844
 Sum of electronic and thermal Free Energies=         -684.738418

                     E (Thermal)             CV                S
                      KCal/Mol        Cal/Mol-Kelvin    Cal/Mol-Kelvin
 Total                  176.290             53.461            121.176
 Electronic               0.000              0.000              0.000
 Translational            0.889              2.981             41.903
 Rotational               0.889              2.981             32.202
 Vibrational            174.513             47.500             47.071
 Vibration     1          0.594              1.984              5.774
 Vibration     2          0.595              1.977              4.795
 Vibration     3          0.596              1.975              4.541
 Vibration     4          0.597              1.971              4.314
 Vibration     5          0.610              1.928              3.014
 Vibration     6          0.615              1.913              2.794
 Vibration     7          0.626              1.878              2.420
 Vibration     8          0.633              1.854              2.231
 Vibration     9          0.663              1.761              1.725
 Vibration    10          0.669              1.744              1.655
 Vibration    11          0.675              1.725              1.584
 Vibration    12          0.689              1.685              1.451
 Vibration    13          0.713              1.616              1.260
 Vibration    14          0.741              1.537              1.087
 Vibration    15          0.749              1.515              1.044
 Vibration    16          0.777              1.442              0.916
 Vibration    17          0.797              1.390              0.837
 Vibration    18          0.825              1.322              0.744
 Vibration    19          0.887              1.179              0.583
 Vibration    20          0.913              1.124              0.529

 Optimization completed.
    -- Stationary point found.
 Normal termination of Gaussian 16 at Thu Dec 10 15:42:53 2020.

 ----------------------------------------------------------------------
 # B3LYP/6-311++G(d,p) empiricaldispersion=gd3bj scf=xqc pop=npa geom=c
 heck
 ----------------------------------------------------------------------

 ---------------------------------------
 CID_130603405_JID_5310_Energie_neutraal
 ---------------------------------------
 Structure from the checkpoint file:  "JID_5310.chk"
 Charge =  0 Multiplicity = 1

 SCF Done:  E(RB3LYP) =  -685.155423175     A.U. after   15 cycles
 Normal termination of Gaussian 16 at Thu Dec 10 15:47:08 2020.

 ----------------------------------------------------------------------
 # B3LYP/6-311++G(d,p) empiricaldispersion=gd3bj scf=xqc pop=npa geom=c
 heck
 ----------------------------------------------------------------------

 -------------------------------------
 CID_130603405_JID_5310_Energie_kation
 -------------------------------------
 Structure from the checkpoint file:  "JID_5310.chk"
 Charge =  1 Multiplicity = 2

 SCF Done:  E(UB3LYP) =  -684.844901502     A.U. after   29 cycles
 Normal termination of Gaussian 16 at Thu Dec 10 15:57:40 2020.
 Gaussian 16:  ES64L-G16RevA.03 25-Dec-2016

 ----------------------------------------------------------------------
 # B3LYP/6-311++G(d,p) empiricaldispersion=gd3bj scf=xqc pop=npa geom=c
 heck
 ----------------------------------------------------------------------

 ------------------------------------
 CID_130603405_JID_5310_Energie_anion
 ------------------------------------
 Structure from the checkpoint file:  "JID_5310.chk"
 Charge = -1 Multiplicity = 2

                         Standard orientation:
 ---------------------------------------------------------------------
 Center     Atomic      Atomic             Coordinates (Angstroms)
 Number     Number       Type             X           Y           Z
 ---------------------------------------------------------------------
      1          6           0       -3.920751   -1.678006    0.862838
      2          7           0       -3.136655   -0.540326    0.422315
      3          7           0       -3.706323    0.526270   -0.155823
      4          6           0       -2.666407    1.292792   -0.480340
      5          6           0       -1.478735    0.644866   -0.084472
      6          7           0       -1.813372   -0.525712    0.486246
      7          6           0       -0.089189    1.119265   -0.239774
      8          8           0        0.126114    2.206416   -0.755714
      9          6           0        1.042159    0.228796    0.255061
     10          6           0        2.081749    1.043163    1.043795
     11          6           0        3.269448    0.174683    1.473042
     12          6           0        3.915634   -0.522644    0.269880
     13          6           0        2.876695   -1.331854   -0.517308
     14          6           0        1.689786   -0.464051   -0.963739
     15          7           0        0.646468   -1.173779   -1.711869
     16          1           0       -4.879578   -1.311639    1.230388
     17          1           0       -4.087455   -2.371274    0.032355
     18          1           0       -3.371858   -2.181392    1.658761
     19          1           0       -2.790655    2.249465   -0.963776
     20          1           0        0.622643   -0.552395    0.901687
     21          1           0        1.604509    1.497082    1.920913
     22          1           0        2.423957    1.870082    0.410669
     23          1           0        2.925186   -0.585791    2.189091
     24          1           0        4.009392    0.789248    2.000160
     25          1           0        4.736413   -1.172285    0.597234
     26          1           0        4.358549    0.235281   -0.391949
     27          1           0        2.494562   -2.152649    0.108832
     28          1           0        3.337575   -1.796152   -1.399980
     29          1           0        2.064656    0.332516   -1.621456
     30          1           0        1.060439   -1.656937   -2.508059
     31          1           0        0.229603   -1.891711   -1.119138
 ---------------------------------------------------------------------

 SCF Done:  E(UB3LYP) =  -685.152814709     A.U. after   33 cycles
 SCF Done:  E(UB3LYP) =  -685.152814709     a.u. after    1 cycles

 The electronic state is 2-A.
 Alpha  occ. eigenvalues --  -18.94006 -14.28419 -14.21635 -14.19790 -14.17517
 Alpha  occ. eigenvalues --  -10.10086 -10.08585 -10.08131 -10.06625 -10.06585
 Alpha  occ. eigenvalues --  -10.06377 -10.05858 -10.05318 -10.05107 -10.04530
 Alpha  occ. eigenvalues --   -0.97272  -0.88018  -0.77679  -0.75874  -0.72585
 Alpha  occ. eigenvalues --   -0.70978  -0.64033  -0.61492  -0.59348  -0.53309
 Alpha  occ. eigenvalues --   -0.49889  -0.49139  -0.46608  -0.45357  -0.41396
 Alpha  occ. eigenvalues --   -0.38410  -0.37511  -0.36813  -0.36314  -0.34310
 Alpha  occ. eigenvalues --   -0.34055  -0.32273  -0.31680  -0.30025  -0.29903
 Alpha  occ. eigenvalues --   -0.29190  -0.28461  -0.27372  -0.27014  -0.24001
 Alpha  occ. eigenvalues --   -0.23556  -0.23169  -0.22140  -0.21206  -0.19684
 Alpha  occ. eigenvalues --   -0.19267  -0.16596  -0.16507  -0.13383  -0.12339
 Alpha  occ. eigenvalues --   -0.10071   0.04819
 Alpha virt. eigenvalues --    0.06588   0.07092   0.08058   0.09009   0.09410
 Alpha virt. eigenvalues --    0.10002   0.11044   0.11323   0.11641   0.12024
 Alpha virt. eigenvalues --    0.12230   0.12374   0.13030   0.13238   0.14872

  Beta  occ. eigenvalues --  -18.93592 -14.28232 -14.21688 -14.19356 -14.17501
  Beta  occ. eigenvalues --  -10.10072 -10.08289 -10.08104 -10.06618 -10.06578
  Beta  occ. eigenvalues --  -10.06375 -10.05850 -10.05290 -10.05094 -10.04553
  Beta  occ. eigenvalues --   -0.96957  -0.87262  -0.77621  -0.75530  -0.72339
  Beta  occ. eigenvalues --   -0.70953  -0.63927  -0.61422  -0.59184  -0.53001
  Beta  occ. eigenvalues --   -0.49791  -0.49070  -0.46327  -0.45309  -0.41150
  Beta  occ. eigenvalues --   -0.38211  -0.37003  -0.36688  -0.36125  -0.34213
  Beta  occ. eigenvalues --   -0.33995  -0.32171  -0.31641  -0.29934  -0.29611
  Beta  occ. eigenvalues --   -0.28942  -0.28254  -0.27258  -0.26669  -0.23711
  Beta  occ. eigenvalues --   -0.23524  -0.22539  -0.21678  -0.21077  -0.19506
  Beta  occ. eigenvalues --   -0.18771  -0.16276  -0.15358  -0.12921  -0.11694
  Beta  occ. eigenvalues --   -0.09722
  Beta virt. eigenvalues --    0.06806   0.07554   0.08171   0.08937   0.09505
  Beta virt. eigenvalues --    0.10262   0.10864   0.11005   0.11340   0.11873
  Beta virt. eigenvalues --    0.12039   0.12241   0.12986   0.13138   0.13249

 Mulliken charges and spin densities:
               1          2
     1  C    0.474912  -0.771952
     2  N    0.464050   0.022899
     3  N   -0.228304   0.028426
     4  C    0.014176  -0.122270
     5  C   -0.379900   0.165230
     6  N   -0.425265   0.340875
     7  C   -0.361198  -0.000248
     8  O   -0.379249   0.144916
     9  C    0.618532   0.020778
    10  C   -0.367967  -0.177198
    11  C   -0.359513   0.042852
    12  C   -0.033433  -0.371685
    13  C   -0.102332  -0.117594
    14  C   -0.608583   0.071384
    15  N   -0.299035   0.002594
    16  H    0.029540   0.112133
    17  H   -0.416578   0.604206
    18  H    0.054051   0.099455
    19  H    0.150211   0.006183
    20  H    0.275655  -0.021666
    21  H    0.135920   0.013497
    22  H    0.187632  -0.001028
    23  H    0.084868   0.022612
    24  H    0.126122   0.025426
    25  H   -0.113789   0.278222
    26  H    0.123857  -0.023148
    27  H    0.077046   0.053127
    28  H   -0.203401   0.344973
    29  H    0.168201   0.056028
    30  H    0.161557   0.071765
    31  H    0.132215   0.079207
 Sum of Mulliken charges =  -1.00000   1.00000

 Dipole moment (field-independent basis, Debye):
    X=              3.3248    Y=             -0.1804    Z=              2.8882  Tot=              4.4077
 Quadrupole moment (field-independent basis, Debye-Ang):
   XX=           -146.0714   YY=           -124.1240   ZZ=           -106.8121
   XY=             -2.0465   XZ=             -2.9373   YZ=              0.1529

 Summary of Natural Population Analysis:

                                       Natural Population
                Natural  -----------------------------------------------
    Atom  No    Charge         Core      Valence    Rydberg      Total
 -----------------------------------------------------------------------
      C    1   -0.17388      0.99964     2.16666    0.00758     3.17388
      N    2    0.00267      0.99973     2.48180    0.01581     3.49733
      N    3   -0.16627      0.99973     2.65486    0.01167     3.66627
      C    4   -0.01383      0.99959     2.00024    0.01400     3.01383
      C    5    0.00993      0.99953     1.97485    0.01569     2.99007
      N    6   -0.07642      0.99970     2.56621    0.01050     3.57642
      C    7    0.31227      0.99959     1.66615    0.02198     2.68773
      O    8   -0.26486      0.99988     3.25966    0.00532     4.26486
      C    9   -0.15192      0.99954     2.13996    0.01241     3.15192
      C   10   -0.18504      0.99962     2.17679    0.00864     3.18504
      C   11   -0.18720      0.99963     2.18061    0.00696     3.18720
      C   12   -0.19219      0.99963     2.18278    0.00979     3.19219
      C   13   -0.19686      0.99961     2.18697    0.01028     3.19686
      C   14   -0.00572      0.99957     1.99379    0.01236     3.00572
      N   15   -0.41396      0.99977     2.90400    0.01018     3.91396
      H   16    0.09942      0.00000     0.39949    0.00109     0.40058
      H   17    0.10162      0.00000     0.39502    0.00336     0.39838
      H   18    0.10234      0.00000     0.39672    0.00095     0.39766
      H   19    0.10251      0.00000     0.39655    0.00095     0.39749
      H   20    0.10426      0.00000     0.39361    0.00213     0.39574
      H   21    0.09848      0.00000     0.40051    0.00101     0.40152
      H   22    0.10263      0.00000     0.39598    0.00139     0.39737
      H   23    0.09060      0.00000     0.40816    0.00125     0.40940
      H   24    0.09325      0.00000     0.40579    0.00096     0.40675
      H   25    0.09521      0.00000     0.40365    0.00113     0.40479
      H   26    0.09203      0.00000     0.40679    0.00118     0.40797
      H   27    0.09164      0.00000     0.40695    0.00141     0.40836
      H   28    0.09577      0.00000     0.40276    0.00147     0.40423
      H   29    0.09007      0.00000     0.40810    0.00183     0.40993
      H   30    0.16845      0.00000     0.33017    0.00138     0.33155
      H   31    0.17498      0.00000     0.32327    0.00175     0.32502
 =======================================================================
   * Total *   -0.00000     14.99476    40.80884    0.19640    56.00000

 Normal termination of Gaussian 16 at Thu Dec 10 16:09:09 2020.
