 Gaussian 16, Revision A.03,

 -----------------------------------------------------------
 # opt freq B3LYP/6-31G(d) empiricaldispersion=gd3bj scf=xqc
 -----------------------------------------------------------

 -------------------------------
 CID_105413192_JID_6213_neutraal
 -------------------------------
 Symbolic Z-matrix:
 Charge =  0 Multiplicity = 1

 SCF Done:  E(RB3LYP) =  -656.309733492     A.U. after   14 cycles
 SCF Done:  E(RB3LYP) =  -656.314194723     A.U. after   12 cycles
 SCF Done:  E(RB3LYP) =  -656.315214578     A.U. after   12 cycles
 SCF Done:  E(RB3LYP) =  -656.315654850     A.U. after   11 cycles
 SCF Done:  E(RB3LYP) =  -656.315709696     A.U. after   11 cycles
 SCF Done:  E(RB3LYP) =  -656.315828338     A.U. after   11 cycles
 SCF Done:  E(RB3LYP) =  -656.315839785     A.U. after    9 cycles
 SCF Done:  E(RB3LYP) =  -656.315841221     A.U. after    8 cycles
 SCF Done:  E(RB3LYP) =  -656.315841701     A.U. after    8 cycles
 SCF Done:  E(RB3LYP) =  -656.315841899     A.U. after    8 cycles
 SCF Done:  E(RB3LYP) =  -656.315841997     A.U. after    6 cycles
 SCF Done:  E(RB3LYP) =  -656.315842012     A.U. after    7 cycles
 SCF Done:  E(RB3LYP) =  -656.315842025     A.U. after    7 cycles
 SCF Done:  E(RB3LYP) =  -656.315842037     A.U. after    7 cycles
 SCF Done:  E(RB3LYP) =  -656.315842043     A.U. after    7 cycles
 Optimization completed.
    -- Stationary point found.
 Normal termination of Gaussian 16 at Thu Dec 10 21:24:05 2020.

 --------------------------------------------------------------------
 #N Geom=AllCheck Guess=TCheck SCRF=Check GenChk RB3LYP/6-31G(d) Freq
 --------------------------------------------------------------------

 Structure from the checkpoint file:  "JID_6213.chk"
 -------------------------------
 CID_105413192_JID_6213_neutraal
 -------------------------------
 Charge =  0 Multiplicity = 1

 SCF Done:  E(RB3LYP) =  -656.315842043     A.U. after    1 cycles

  Exact polarizability: 186.511  17.695 139.891  -5.636   4.923 142.039
 Approx polarizability: 249.676  30.666 209.302 -10.846   8.798 235.536

                      1                      2                      3
                      A                      A                      A
 Frequencies --     20.3938                32.8579                45.8606
 Red. masses --      3.5983                 3.8963                 3.6390
 Frc consts  --      0.0009                 0.0025                 0.0045
 IR Inten    --      0.0722                 0.1616                 0.2023

                      4                      5                      6
                      A                      A                      A
 Frequencies --     75.7920                94.2220               116.9449
 Red. masses --      3.1463                 4.1108                 2.8717
 Frc consts  --      0.0106                 0.0215                 0.0231
 IR Inten    --      0.3119                 0.6890                 0.3487

                      7                      8                      9
                      A                      A                      A
 Frequencies --    183.3586               208.3989               229.8619
 Red. masses --      4.0710                 3.3577                 1.1249
 Frc consts  --      0.0806                 0.0859                 0.0350
 IR Inten    --      0.7611                 4.4621                 0.2305

                     10                     11                     12
                      A                      A                      A
 Frequencies --    243.1695               259.7084               282.1192
 Red. masses --      1.1355                 1.8625                 1.1586
 Frc consts  --      0.0396                 0.0740                 0.0543
 IR Inten    --      0.2180                 0.9465                 1.2732

                     13                     14                     15
                      A                      A                      A
 Frequencies --    296.3208               298.5169               325.2010
 Red. masses --      1.7453                 2.9817                 1.8518
 Frc consts  --      0.0903                 0.1566                 0.1154
 IR Inten    --      2.4188                 2.7309                 2.1453

                     16                     17                     18
                      A                      A                      A
 Frequencies --    346.1831               357.6824               383.2570
 Red. masses --      2.5668                 2.7038                 1.9332
 Frc consts  --      0.1812                 0.2038                 0.1673
 IR Inten    --      0.3192                14.0908                 0.3332

                     19                     20                     21
                      A                      A                      A
 Frequencies --    398.0678               415.9008               423.6347
 Red. masses --      1.5439                 2.4177                 2.3041
 Frc consts  --      0.1441                 0.2464                 0.2436
 IR Inten    --     88.0284                27.7961                16.4736

                     22                     23                     24
                      A                      A                      A
 Frequencies --    431.5175               451.9368               466.4302
 Red. masses --      2.1645                 2.6316                 2.7370
 Frc consts  --      0.2375                 0.3167                 0.3508
 IR Inten    --     20.1934                 7.9093                 2.3497

                     25                     26                     27
                      A                      A                      A
 Frequencies --    534.3718               549.7032               586.1441
 Red. masses --      2.0122                 1.5691                 3.0495
 Frc consts  --      0.3385                 0.2793                 0.6173
 IR Inten    --     96.7636                82.9389                14.7703

                     28                     29                     30
                      A                      A                      A
 Frequencies --    630.5069               637.0580               709.2581
 Red. masses --      5.3432                 4.1755                 3.3014
 Frc consts  --      1.2515                 0.9984                 0.9785
 IR Inten    --      4.3644                16.5204                 3.1267

                     31                     32                     33
                      A                      A                      A
 Frequencies --    716.5893               720.4929               758.5204
 Red. masses --      1.8672                 3.5025                 4.1886
 Frc consts  --      0.5649                 1.0712                 1.4199
 IR Inten    --     15.3661                52.9739                 6.0705

                     34                     35                     36
                      A                      A                      A
 Frequencies --    790.9982               861.9780               863.6832
 Red. masses --      2.3082                 2.3746                 1.2670
 Frc consts  --      0.8509                 1.0395                 0.5568
 IR Inten    --     13.5860                 1.2501                 0.3593

                     37                     38                     39
                      A                      A                      A
 Frequencies --    927.7059               932.3424               933.4922
 Red. masses --      2.0187                 1.5014                 1.4670
 Frc consts  --      1.0236                 0.7690                 0.7532
 IR Inten    --      3.9090                 1.5855                 3.9435

                     40                     41                     42
                      A                      A                      A
 Frequencies --    948.4206               958.4257               968.8832
 Red. masses --      1.4218                 1.4297                 1.3531
 Frc consts  --      0.7535                 0.7738                 0.7484
 IR Inten    --      1.4383                 1.4913                 0.1301

                     43                     44                     45
                      A                      A                      A
 Frequencies --    980.4383               982.6236               998.0073
 Red. masses --      1.5568                 1.6716                 1.2486
 Frc consts  --      0.8817                 0.9509                 0.7328
 IR Inten    --      2.4279                 3.4869                 0.2208

                     46                     47                     48
                      A                      A                      A
 Frequencies --   1022.5152              1039.6071              1041.9037
 Red. masses --      6.1474                 1.8478                 1.4331
 Frc consts  --      3.7869                 1.1766                 0.9166
 IR Inten    --      1.9632                13.0617                 5.3676

                     49                     50                     51
                      A                      A                      A
 Frequencies --   1059.0512              1110.5716              1120.2283
 Red. masses --      2.2782                 1.5923                 1.5296
 Frc consts  --      1.5055                 1.1571                 1.1309
 IR Inten    --      1.5272                 3.4451                10.2006

                     52                     53                     54
                      A                      A                      A
 Frequencies --   1125.6357              1164.1553              1195.1308
 Red. masses --      2.3165                 2.6722                 1.1020
 Frc consts  --      1.7293                 2.1337                 0.9274
 IR Inten    --      1.2977                 4.4189                 0.0080

                     55                     56                     57
                      A                      A                      A
 Frequencies --   1200.9358              1206.9545              1214.0056
 Red. masses --      1.9720                 2.2639                 1.1371
 Frc consts  --      1.6757                 1.9431                 0.9874
 IR Inten    --      5.3396                 4.9109                 0.6661

                     58                     59                     60
                      A                      A                      A
 Frequencies --   1225.2944              1240.9705              1277.3891
 Red. masses --      2.4173                 2.0471                 2.6202
 Frc consts  --      2.1382                 1.8574                 2.5190
 IR Inten    --      3.2098                 3.6658                 2.4586

                     61                     62                     63
                      A                      A                      A
 Frequencies --   1337.2696              1340.5918              1366.1073
 Red. masses --      1.3867                 2.5703                 1.8379
 Frc consts  --      1.4610                 2.7216                 2.0208
 IR Inten    --      1.2073                 1.0796                 0.5228

                     64                     65                     66
                      A                      A                      A
 Frequencies --   1369.2196              1376.9506              1388.4679
 Red. masses --      1.4053                 1.6995                 2.1340
 Frc consts  --      1.5523                 1.8984                 2.4239
 IR Inten    --     11.3167                66.5292                64.7906

                     67                     68                     69
                      A                      A                      A
 Frequencies --   1416.7308              1421.0333              1427.3558
 Red. masses --      1.3628                 1.2883                 1.2292
 Frc consts  --      1.6116                 1.5327                 1.4755
 IR Inten    --      0.8793                 1.5857                 7.3848

                     70                     71                     72
                      A                      A                      A
 Frequencies --   1440.9731              1453.7017              1491.9631
 Red. masses --      1.2359                 1.2244                 2.1947
 Frc consts  --      1.5120                 1.5245                 2.8784
 IR Inten    --     20.0408                 7.3124                 4.6500

                     73                     74                     75
                      A                      A                      A
 Frequencies --   1515.5387              1516.4476              1522.4046
 Red. masses --      1.0562                 1.0449                 1.0580
 Frc consts  --      1.4294                 1.4158                 1.4448
 IR Inten    --      3.2671                 2.0839                 5.7812

                     76                     77                     78
                      A                      A                      A
 Frequencies --   1528.3791              1535.2696              1537.7118
 Red. masses --      1.0525                 1.0472                 1.0553
 Frc consts  --      1.4485                 1.4543                 1.4702
 IR Inten    --      1.0609                 7.5879                 0.7791

                     79                     80                     81
                      A                      A                      A
 Frequencies --   1543.3651              1545.8126              1550.7862
 Red. masses --      1.1364                 1.9861                 1.0569
 Frc consts  --      1.5948                 2.7961                 1.4976
 IR Inten    --     19.2048                 1.3079                 8.2212

                     82                     83                     84
                      A                      A                      A
 Frequencies --   1557.6759              1640.2092              1648.6397
 Red. masses --      1.0582                 5.4693                 1.2132
 Frc consts  --      1.5128                 8.6692                 1.9428
 IR Inten    --      1.3163                 2.4692                79.3058

                     85                     86                     87
                      A                      A                      A
 Frequencies --   1665.7416              1738.9190              2994.7472
 Red. masses --      5.5141                 7.9307                 1.0827
 Frc consts  --      9.0145                14.1293                 5.7210
 IR Inten    --      6.8025               369.1258                35.7260

                     88                     89                     90
                      A                      A                      A
 Frequencies --   3008.8428              3041.2301              3046.5172
 Red. masses --      1.0638                 1.0360                 1.0368
 Frc consts  --      5.6745                 5.6458                 5.6697
 IR Inten    --     36.3804                14.1757                40.7609

                     91                     92                     93
                      A                      A                      A
 Frequencies --   3047.7752              3053.6663              3060.0974
 Red. masses --      1.0389                 1.0425                 1.0920
 Frc consts  --      5.6859                 5.7276                 6.0246
 IR Inten    --     37.7094                20.8442                51.1897

                     94                     95                     96
                      A                      A                      A
 Frequencies --   3101.1487              3107.2377              3108.6222
 Red. masses --      1.1024                 1.1006                 1.1014
 Frc consts  --      6.2466                 6.2608                 6.2711
 IR Inten    --      4.0719                10.8800                86.6362

                     97                     98                     99
                      A                      A                      A
 Frequencies --   3111.1588              3117.3376              3125.8883
 Red. masses --      1.0985                 1.1007                 1.1017
 Frc consts  --      6.2647                 6.3023                 6.3426
 IR Inten    --     62.1542                36.6771                28.6685

                    100                    101                    102
                      A                      A                      A
 Frequencies --   3133.6879              3150.9871              3183.0501
 Red. masses --      1.0979                 1.1006                 1.0853
 Frc consts  --      6.3522                 6.4381                 6.4787
 IR Inten    --     34.4768                19.5581                 2.4646

                    103                    104                    105
                      A                      A                      A
 Frequencies --   3189.6099              3198.2736              3206.2579
 Red. masses --      1.0875                 1.0912                 1.0943
 Frc consts  --      6.5183                 6.5761                 6.6280
 IR Inten    --      0.8397                15.7491                28.0718

                    106                    107                    108
                      A                      A                      A
 Frequencies --   3214.2085              3560.9893              3684.4609
 Red. masses --      1.0981                 1.0467                 1.1004
 Frc consts  --      6.6839                 7.8202                 8.8012
 IR Inten    --     16.1640                18.4905                14.6273

 - Thermochemistry -
 -------------------
 Temperature   298.150 Kelvin.  Pressure   1.00000 Atm.
 Atom     1 has atomic number  6 and mass  12.00000

 Molecular mass:   218.17830 amu.
 Principal axes and moments of inertia in atomic units:
                           1         2         3
     Eigenvalues --  1952.074995756.738636309.74719
           X            1.00000   0.00105  -0.00148
           Y           -0.00101   0.99947   0.03246
           Z            0.00151  -0.03246   0.99947
 This molecule is an asymmetric top.
 Rotational symmetry number  1.
 Warning -- assumption of classical behavior for rotation
           may cause significant error
 Rotational temperatures (Kelvin)      0.04437     0.01505     0.01373
 Rotational constants (GHZ):           0.92452     0.31350     0.28602
 Zero-point vibrational energy     890885.3 (Joules/Mol)
                                  212.92669 (Kcal/Mol)
 Warning -- explicit consideration of  27 degrees of freedom as
           vibrations may cause significant error
 Vibrational temperatures:     29.34    47.28    65.98   109.05   135.56
          (Kelvin)            168.26   263.81   299.84   330.72   349.87
                              373.66   405.91   426.34   429.50   467.89
                              498.08   514.63   551.42   572.73   598.39
                              609.52   620.86   650.24   671.09   768.84
                              790.90   843.33   907.16   916.58  1020.46
                             1031.01  1036.63  1091.34  1138.07  1240.19
                             1242.65  1334.76  1341.43  1343.09  1364.57
                             1378.96  1394.01  1410.63  1413.78  1435.91
                             1471.17  1495.76  1499.07  1523.74  1597.86
                             1611.76  1619.54  1674.96  1719.53  1727.88
                             1736.54  1746.68  1762.93  1785.48  1837.88
                             1924.03  1928.81  1965.52  1970.00  1981.12
                             1997.70  2038.36  2044.55  2053.65  2073.24
                             2091.55  2146.60  2180.52  2181.83  2190.40
                             2199.00  2208.91  2212.42  2220.56  2224.08
                             2231.24  2241.15  2359.90  2372.02  2396.63
                             2501.92  4308.77  4329.05  4375.65  4383.26
                             4385.07  4393.54  4402.80  4461.86  4470.62
                             4472.61  4476.26  4485.15  4497.46  4508.68
                             4533.57  4579.70  4589.14  4601.60  4613.09
                             4624.53  5123.47  5301.12

 Zero-point correction=                           0.339320 (Hartree/Particle)
 Thermal correction to Energy=                    0.356337
 Thermal correction to Enthalpy=                  0.357281
 Thermal correction to Gibbs Free Energy=         0.294265
 Sum of electronic and zero-point Energies=           -655.976522
 Sum of electronic and thermal Energies=              -655.959505
 Sum of electronic and thermal Enthalpies=            -655.958561
 Sum of electronic and thermal Free Energies=         -656.021577

                     E (Thermal)             CV                S
                      KCal/Mol        Cal/Mol-Kelvin    Cal/Mol-Kelvin
 Total                  223.605             66.334            132.629
 Electronic               0.000              0.000              0.000
 Translational            0.889              2.981             42.043
 Rotational               0.889              2.981             32.628
 Vibrational            221.828             60.372             57.958
 Vibration     1          0.593              1.986              6.595
 Vibration     2          0.594              1.983              5.649
 Vibration     3          0.595              1.979              4.988
 Vibration     4          0.599              1.965              3.997
 Vibration     5          0.603              1.953              3.570
 Vibration     6          0.608              1.935              3.150
 Vibration     7          0.631              1.862              2.294
 Vibration     8          0.642              1.828              2.058
 Vibration     9          0.652              1.795              1.880
 Vibration    10          0.659              1.774              1.780
 Vibration    11          0.668              1.746              1.664
 Vibration    12          0.681              1.707              1.521
 Vibration    13          0.690              1.681              1.438
 Vibration    14          0.692              1.676              1.425
 Vibration    15          0.709              1.625              1.284
 Vibration    16          0.724              1.583              1.184
 Vibration    17          0.733              1.559              1.132
 Vibration    18          0.752              1.506              1.026
 Vibration    19          0.764              1.474              0.970
 Vibration    20          0.779              1.436              0.906
 Vibration    21          0.786              1.419              0.880
 Vibration    22          0.793              1.402              0.854
 Vibration    23          0.811              1.357              0.790
 Vibration    24          0.824              1.325              0.748
 Vibration    25          0.889              1.174              0.578
 Vibration    26          0.905              1.140              0.545
 Vibration    27          0.943              1.061              0.474

 Optimization completed.
    -- Stationary point found.
 Normal termination of Gaussian 16 at Thu Dec 10 21:39:47 2020.

 ----------------------------------------------------------------------
 # B3LYP/6-311++G(d,p) empiricaldispersion=gd3bj scf=xqc pop=npa geom=c
 heck
 ----------------------------------------------------------------------

 ---------------------------------------
 CID_105413192_JID_6213_Energie_neutraal
 ---------------------------------------
 Structure from the checkpoint file:  "JID_6213.chk"
 Charge =  0 Multiplicity = 1

 SCF Done:  E(RB3LYP) =  -656.498904165     A.U. after   15 cycles
 Normal termination of Gaussian 16 at Thu Dec 10 21:48:13 2020.

 ----------------------------------------------------------------------
 # B3LYP/6-311++G(d,p) empiricaldispersion=gd3bj scf=xqc pop=npa geom=c
 heck
 ----------------------------------------------------------------------

 -------------------------------------
 CID_105413192_JID_6213_Energie_kation
 -------------------------------------
 Structure from the checkpoint file:  "JID_6213.chk"
 Charge =  1 Multiplicity = 2

 SCF Done:  E(UB3LYP) =  -656.201392632     A.U. after   27 cycles
 Normal termination of Gaussian 16 at Thu Dec 10 22:08:52 2020.
 Gaussian 16:  ES64L-G16RevA.03 25-Dec-2016

 ----------------------------------------------------------------------
 # B3LYP/6-311++G(d,p) empiricaldispersion=gd3bj scf=xqc pop=npa geom=c
 heck
 ----------------------------------------------------------------------

 ------------------------------------
 CID_105413192_JID_6213_Energie_anion
 ------------------------------------
 Structure from the checkpoint file:  "JID_6213.chk"
 Charge = -1 Multiplicity = 2

                         Standard orientation:
 ---------------------------------------------------------------------
 Center     Atomic      Atomic             Coordinates (Angstroms)
 Number     Number       Type             X           Y           Z
 ---------------------------------------------------------------------
      1          6           0        3.777051    0.196119   -1.127045
      2          6           0        3.188845   -0.175265    0.243152
      3          6           0        3.162513    1.080116    1.130762
      4          6           0        1.826741   -0.940784    0.136252
      5          6           0        2.103524   -2.381474   -0.337529
      6          6           0        1.132391   -1.020151    1.505796
      7          6           0        0.846216   -0.314672   -0.890470
      8          7           0        0.541943    1.076238   -0.620404
      9          6           0       -0.637871    1.440351   -0.286225
     10          6           0       -1.850235    0.565022   -0.144753
     11          6           0       -2.490796    0.042778   -1.273897
     12          6           0       -3.608560   -0.778602   -1.131169
     13          6           0       -4.095044   -1.085674    0.140825
     14          6           0       -3.461028   -0.567157    1.270677
     15          6           0       -2.344934    0.257311    1.127907
     16          7           0       -0.897917    2.782648   -0.061867
     17          1           0        3.184751    0.987618   -1.598275
     18          1           0        3.817751   -0.656045   -1.813903
     19          1           0        4.800294    0.571228   -1.009347
     20          1           0        3.883446   -0.885264    0.718748
     21          1           0        2.456304    1.813547    0.734343
     22          1           0        2.881697    0.850409    2.163297
     23          1           0        4.160007    1.535833    1.156925
     24          1           0        2.738981   -2.910491    0.382119
     25          1           0        1.169149   -2.946747   -0.436395
     26          1           0        2.607897   -2.403973   -1.309516
     27          1           0        0.802128   -0.035877    1.848394
     28          1           0        0.248345   -1.666178    1.448883
     29          1           0        1.805710   -1.435397    2.265597
     30          1           0        1.304201   -0.369233   -1.885978
     31          1           0       -0.048833   -0.953954   -0.920919
     32          1           0       -2.108254    0.283978   -2.261211
     33          1           0       -4.099800   -1.179174   -2.013390
     34          1           0       -4.964130   -1.727968    0.250884
     35          1           0       -3.832792   -0.806404    2.263001
     36          1           0       -1.841925    0.650613    2.007278
     37          1           0       -0.074837    3.356195    0.078095
     38          1           0       -1.691151    3.007557    0.521573
 ---------------------------------------------------------------------

 SCF Done:  E(UB3LYP) =  -656.486434659     A.U. after   33 cycles
 SCF Done:  E(UB3LYP) =  -656.486434659     a.u. after    1 cycles

 The electronic state is 2-A.
 Alpha  occ. eigenvalues --  -14.22213 -14.18278 -10.14652 -10.09206 -10.08787
 Alpha  occ. eigenvalues --  -10.08580 -10.08392 -10.08275 -10.08252 -10.08057
 Alpha  occ. eigenvalues --  -10.07997 -10.07862 -10.06688 -10.06428 -10.05611
 Alpha  occ. eigenvalues --  -10.05342  -0.85468  -0.77528  -0.76330  -0.72695
 Alpha  occ. eigenvalues --   -0.66405  -0.66099  -0.65519  -0.60056  -0.58868
 Alpha  occ. eigenvalues --   -0.57429  -0.53292  -0.51528  -0.50967  -0.47062
 Alpha  occ. eigenvalues --   -0.44606  -0.41762  -0.41294  -0.39312  -0.36914
 Alpha  occ. eigenvalues --   -0.36646  -0.36163  -0.35641  -0.34160  -0.33628
 Alpha  occ. eigenvalues --   -0.32993  -0.32460  -0.30547  -0.30191  -0.28550
 Alpha  occ. eigenvalues --   -0.27842  -0.27538  -0.27407  -0.26979  -0.26325
 Alpha  occ. eigenvalues --   -0.25815  -0.25191  -0.24669  -0.22181  -0.21908
 Alpha  occ. eigenvalues --   -0.21483  -0.16610  -0.16238  -0.14712  -0.13490
 Alpha  occ. eigenvalues --    0.04208
 Alpha virt. eigenvalues --    0.06212   0.06448   0.07174   0.07263   0.07701
 Alpha virt. eigenvalues --    0.07881   0.08202   0.08804   0.09505   0.09949
 Alpha virt. eigenvalues --    0.10209   0.10521   0.10975   0.11769   0.12165

  Beta  occ. eigenvalues --  -14.22168 -14.18267 -10.14645 -10.09201 -10.08783
  Beta  occ. eigenvalues --  -10.08579 -10.08370 -10.08258 -10.08241 -10.08030
  Beta  occ. eigenvalues --  -10.07970 -10.07858 -10.06681 -10.06423 -10.05597
  Beta  occ. eigenvalues --  -10.05330  -0.85435  -0.77488  -0.76286  -0.72679
  Beta  occ. eigenvalues --   -0.66370  -0.66073  -0.65465  -0.60035  -0.58841
  Beta  occ. eigenvalues --   -0.57405  -0.53239  -0.51473  -0.50945  -0.47002
  Beta  occ. eigenvalues --   -0.44564  -0.41723  -0.41238  -0.39282  -0.36880
  Beta  occ. eigenvalues --   -0.36595  -0.36136  -0.35618  -0.34133  -0.33601
  Beta  occ. eigenvalues --   -0.32950  -0.32439  -0.30532  -0.30180  -0.28539
  Beta  occ. eigenvalues --   -0.27813  -0.27511  -0.27376  -0.26949  -0.26288
  Beta  occ. eigenvalues --   -0.25793  -0.25163  -0.24643  -0.22160  -0.21894
  Beta  occ. eigenvalues --   -0.21472  -0.16571  -0.16158  -0.14665  -0.13458
  Beta virt. eigenvalues --    0.06095   0.06899   0.07221   0.07328   0.07737
  Beta virt. eigenvalues --    0.07795   0.08204   0.08611   0.09353   0.09770
  Beta virt. eigenvalues --    0.10267   0.10392   0.10696   0.11255   0.12005

 Mulliken charges and spin densities:
               1          2
     1  C   -0.574361  -0.102414
     2  C    0.043758   0.219337
     3  C   -0.428074  -0.300156
     4  C   -0.090397   0.811345
     5  C   -0.435911  -0.031085
     6  C    0.083566  -0.727242
     7  C    0.084711  -0.829659
     8  N   -0.043132  -0.010855
     9  C    0.926153  -1.634452
    10  C    0.217811   0.343584
    11  C   -1.751704   1.663331
    12  C   -0.158372  -0.197575
    13  C    2.524528  -2.945018
    14  C   -0.048192  -0.129956
    15  C   -0.044111   0.161908
    16  N   -0.171372  -0.034800
    17  H    0.122541   0.049094
    18  H    0.063052   0.049765
    19  H    0.060712   0.066158
    20  H    0.163448  -0.013789
    21  H    0.172292   0.001767
    22  H   -0.041387   0.162336
    23  H   -0.041611   0.168531
    24  H    0.062492   0.078427
    25  H   -0.062023   0.199385
    26  H    0.075784   0.043690
    27  H    0.046449   0.108116
    28  H    0.276382  -0.139482
    29  H   -0.030090   0.198316
    30  H    0.181645   0.014536
    31  H    0.443419  -0.338694
    32  H   -0.112570   0.295280
    33  H   -0.635037   0.822637
    34  H   -0.361844   0.524720
    35  H   -0.929920   1.129379
    36  H   -0.463045   0.659210
    37  H   -0.013275   0.283782
    38  H   -0.112315   0.380542
 Sum of Mulliken charges =  -1.00000   1.00000

 Dipole moment (field-independent basis, Debye):
    X=              7.2228    Y=             -1.0156    Z=             -2.7189  Tot=              7.7841
 Quadrupole moment (field-independent basis, Debye-Ang):
   XX=           -182.6680   YY=           -143.8841   ZZ=           -143.2911
   XY=             -9.0986   XZ=              4.1441   YZ=             -1.9820

 Summary of Natural Population Analysis:

                                       Natural Population
                Natural  -----------------------------------------------
    Atom  No    Charge         Core      Valence    Rydberg      Total
 -----------------------------------------------------------------------
      C    1   -0.28826      0.99965     2.28365    0.00496     3.28826
      C    2   -0.10600      0.99958     2.09572    0.01070     3.10600
      C    3   -0.28983      0.99964     2.28378    0.00640     3.28983
      C    4   -0.03966      0.99956     2.02832    0.01179     3.03966
      C    5   -0.28334      0.99963     2.27777    0.00594     3.28334
      C    6   -0.28958      0.99963     2.28204    0.00791     3.28958
      C    7   -0.09726      0.99954     2.08505    0.01267     3.09726
      N    8   -0.28063      0.99963     2.76973    0.01127     3.78063
      C    9    0.22713      0.99952     1.75547    0.01788     2.77287
      C   10   -0.05548      0.99946     2.04335    0.01267     3.05548
      C   11   -0.09157      0.99951     2.08246    0.00960     3.09157
      C   12   -0.10007      0.99956     2.08977    0.01073     3.10007
      C   13   -0.09617      0.99956     2.08649    0.01012     3.09617
      C   14   -0.09462      0.99956     2.08412    0.01094     3.09462
      C   15   -0.09496      0.99951     2.08436    0.01109     3.09496
      N   16   -0.39388      0.99971     2.88486    0.00930     3.89388
      H   17    0.10467      0.00000     0.39431    0.00101     0.39533
      H   18    0.09536      0.00000     0.40381    0.00083     0.40464
      H   19    0.09551      0.00000     0.40369    0.00080     0.40449
      H   20    0.08850      0.00000     0.40984    0.00167     0.41150
      H   21    0.11090      0.00000     0.38754    0.00156     0.38910
      H   22    0.09863      0.00000     0.40053    0.00084     0.40137
      H   23    0.09242      0.00000     0.40681    0.00077     0.40758
      H   24    0.09751      0.00000     0.40162    0.00087     0.40249
      H   25    0.10069      0.00000     0.39847    0.00084     0.39931
      H   26    0.09732      0.00000     0.40186    0.00083     0.40268
      H   27    0.10495      0.00000     0.39342    0.00163     0.39505
      H   28    0.10226      0.00000     0.39667    0.00107     0.39774
      H   29    0.09695      0.00000     0.40228    0.00077     0.40305
      H   30    0.09361      0.00000     0.40513    0.00125     0.40639
      H   31    0.09031      0.00000     0.40759    0.00211     0.40969
      H   32    0.10335      0.00000     0.39518    0.00147     0.39665
      H   33    0.10260      0.00000     0.39602    0.00138     0.39740
      H   34    0.10351      0.00000     0.39456    0.00192     0.39649
      H   35    0.10491      0.00000     0.39276    0.00233     0.39509
      H   36    0.10586      0.00000     0.39104    0.00311     0.39414
      H   37    0.19151      0.00000     0.30616    0.00233     0.30849
      H   38    0.19283      0.00000     0.30450    0.00267     0.30717
 =======================================================================
   * Total *    0.00000     15.99322    43.81075    0.19603    60.00000

 Normal termination of Gaussian 16 at Thu Dec 10 22:34:49 2020.
