 Gaussian 16, Revision A.03,

 -----------------------------------------------------------
 # opt freq B3LYP/6-31G(d) empiricaldispersion=gd3bj scf=xqc
 -----------------------------------------------------------

 -------------------------------
 CID_150772446_JID_8885_neutraal
 -------------------------------
 Symbolic Z-matrix:
 Charge =  0 Multiplicity = 1

 SCF Done:  E(RB3LYP) =  -779.298723175     A.U. after   16 cycles
 SCF Done:  E(RB3LYP) =  -779.304789723     A.U. after   16 cycles
 SCF Done:  E(RB3LYP) =  -779.308627598     A.U. after   13 cycles
 SCF Done:  E(RB3LYP) =  -779.310426192     A.U. after   14 cycles
 SCF Done:  E(RB3LYP) =  -779.312222263     A.U. after   14 cycles
 SCF Done:  E(RB3LYP) =  -779.312944456     A.U. after   13 cycles
 SCF Done:  E(RB3LYP) =  -779.313405743     A.U. after   15 cycles
 SCF Done:  E(RB3LYP) =  -779.313783498     A.U. after   13 cycles
 SCF Done:  E(RB3LYP) =  -779.314188647     A.U. after   15 cycles
 SCF Done:  E(RB3LYP) =  -779.314328703     A.U. after   13 cycles
 SCF Done:  E(RB3LYP) =  -779.314417898     A.U. after   13 cycles
 SCF Done:  E(RB3LYP) =  -779.314426289     A.U. after   10 cycles
 SCF Done:  E(RB3LYP) =  -779.314427327     A.U. after    9 cycles
 SCF Done:  E(RB3LYP) =  -779.314427416     A.U. after    7 cycles
 SCF Done:  E(RB3LYP) =  -779.314427435     A.U. after    8 cycles
 Optimization completed.
    -- Stationary point found.
 Normal termination of Gaussian 16 at Fri Dec 11 22:58:56 2020.

 --------------------------------------------------------------------
 #N Geom=AllCheck Guess=TCheck SCRF=Check GenChk RB3LYP/6-31G(d) Freq
 --------------------------------------------------------------------

 Structure from the checkpoint file:  "JID_8885.chk"
 -------------------------------
 CID_150772446_JID_8885_neutraal
 -------------------------------
 Charge =  0 Multiplicity = 1

 SCF Done:  E(RB3LYP) =  -779.314427435     A.U. after    1 cycles

  Exact polarizability: 196.700 -12.727 151.724 -13.018  -1.642 136.508
 Approx polarizability: 278.393 -30.811 239.844 -25.781  -6.493 233.792

                      1                      2                      3
                      A                      A                      A
 Frequencies --     19.8548                29.4381                39.5426
 Red. masses --      8.6329                 3.7268                 6.2014
 Frc consts  --      0.0020                 0.0019                 0.0057
 IR Inten    --      0.0265                 0.2644                 0.2985

                      4                      5                      6
                      A                      A                      A
 Frequencies --     55.3393                64.5235               115.7449
 Red. masses --      4.9398                 3.7071                 4.9491
 Frc consts  --      0.0089                 0.0091                 0.0391
 IR Inten    --      0.0471                 0.5005                 0.2965

                      7                      8                      9
                      A                      A                      A
 Frequencies --    155.5543               204.1493               216.0702
 Red. masses --      4.5232                 5.1328                 4.8910
 Frc consts  --      0.0645                 0.1260                 0.1345
 IR Inten    --      0.4666                 2.7931                 0.9875

                     10                     11                     12
                      A                      A                      A
 Frequencies --    282.7237               310.5942               333.5865
 Red. masses --      3.1075                 2.9764                 2.5429
 Frc consts  --      0.1463                 0.1692                 0.1667
 IR Inten    --      0.8259                 0.8208                 0.6273

                     13                     14                     15
                      A                      A                      A
 Frequencies --    376.9140               404.5828               420.2550
 Red. masses --      2.8148                 2.3367                 2.9933
 Frc consts  --      0.2356                 0.2254                 0.3115
 IR Inten    --      1.6212                 2.1229                 0.0737

                     16                     17                     18
                      A                      A                      A
 Frequencies --    440.4495               465.6946               490.2177
 Red. masses --      3.1669                 2.0133                 3.4748
 Frc consts  --      0.3620                 0.2572                 0.4920
 IR Inten    --      3.1312                 1.1601                 2.8176

                     19                     20                     21
                      A                      A                      A
 Frequencies --    530.8798               561.7616               568.7390
 Red. masses --      3.1323                 9.7730                 3.8070
 Frc consts  --      0.5201                 1.8171                 0.7255
 IR Inten    --      3.6097                 8.5153                 5.5338

                     22                     23                     24
                      A                      A                      A
 Frequencies --    578.6696               608.8030               637.8604
 Red. masses --      4.6214                 3.7233                 6.3818
 Frc consts  --      0.9118                 0.8131                 1.5298
 IR Inten    --     22.5214                 0.8604                 0.0191

                     25                     26                     27
                      A                      A                      A
 Frequencies --    708.7210               716.9427               753.7198
 Red. masses --      3.6131                 2.1200                 1.6938
 Frc consts  --      1.0693                 0.6420                 0.5669
 IR Inten    --      7.5258                30.9526                22.0246

                     28                     29                     30
                      A                      A                      A
 Frequencies --    775.6102               805.8511               817.0955
 Red. masses --      3.2036                 4.8056                 3.8267
 Frc consts  --      1.1355                 1.8387                 1.5053
 IR Inten    --      6.1277                 2.9814                 3.0826

                     31                     32                     33
                      A                      A                      A
 Frequencies --    836.7578               861.1015               888.3633
 Red. masses --      4.4401                 1.2499                 1.9153
 Frc consts  --      1.8317                 0.5460                 0.8906
 IR Inten    --      3.3157                 0.1586                 0.4164

                     34                     35                     36
                      A                      A                      A
 Frequencies --    900.1821               916.4024               930.3284
 Red. masses --      2.2711                 1.8879                 2.0621
 Frc consts  --      1.0843                 0.9341                 1.0515
 IR Inten    --      2.8512                 3.2298                 4.4627

                     37                     38                     39
                      A                      A                      A
 Frequencies --    951.6992               956.0969               958.6931
 Red. masses --      2.6396                 2.2837                 2.2856
 Frc consts  --      1.4086                 1.2300                 1.2377
 IR Inten    --      3.7962                10.2996                12.3544

                     40                     41                     42
                      A                      A                      A
 Frequencies --    968.2739               979.6173               986.6649
 Red. masses --      1.3726                 2.2298                 2.5855
 Frc consts  --      0.7582                 1.2608                 1.4829
 IR Inten    --      0.1815                 2.0102                 9.3537

                     43                     44                     45
                      A                      A                      A
 Frequencies --    994.5474              1017.3126              1021.9251
 Red. masses --      1.2492                 2.1514                 4.6994
 Frc consts  --      0.7280                 1.3118                 2.8915
 IR Inten    --      0.3293                 2.3942                 0.9803

                     46                     47                     48
                      A                      A                      A
 Frequencies --   1038.4418              1059.0581              1062.7220
 Red. masses --      1.7978                 2.0667                 2.2057
 Frc consts  --      1.1422                 1.3657                 1.4677
 IR Inten    --      6.5281                11.4153                 2.6008

                     49                     50                     51
                      A                      A                      A
 Frequencies --   1105.5797              1113.8260              1142.5245
 Red. masses --      2.0335                 1.7623                 1.7249
 Frc consts  --      1.4644                 1.2881                 1.3266
 IR Inten    --     22.4841                22.9222                12.0195

                     52                     53                     54
                      A                      A                      A
 Frequencies --   1151.0747              1173.8272              1193.8858
 Red. masses --      1.4292                 2.0540                 1.0966
 Frc consts  --      1.1157                 1.6675                 0.9209
 IR Inten    --      6.9651                 8.9005                 0.0963

                     55                     56                     57
                      A                      A                      A
 Frequencies --   1207.0639              1216.7888              1221.1182
 Red. masses --      1.3645                 1.1421                 1.2193
 Frc consts  --      1.1713                 0.9963                 1.0712
 IR Inten    --     15.2845                 1.7640                12.3116

                     58                     59                     60
                      A                      A                      A
 Frequencies --   1231.2585              1241.9694              1248.8119
 Red. masses --      2.2029                 6.7546                 1.5024
 Frc consts  --      1.9676                 6.1386                 1.3805
 IR Inten    --      0.9077                96.9266                 7.2842

                     61                     62                     63
                      A                      A                      A
 Frequencies --   1271.2228              1286.2849              1299.2868
 Red. masses --      1.8737                 1.3881                 1.6938
 Frc consts  --      1.7840                 1.3532                 1.6847
 IR Inten    --     21.7879                 2.7657                 1.7237

                     64                     65                     66
                      A                      A                      A
 Frequencies --   1316.1900              1322.8213              1342.0455
 Red. masses --      1.4651                 1.4150                 1.9505
 Frc consts  --      1.4954                 1.4589                 2.0698
 IR Inten    --     10.1856                 3.9751                 7.2509

                     67                     68                     69
                      A                      A                      A
 Frequencies --   1363.9216              1366.9044              1374.9414
 Red. masses --      1.5017                 2.5412                 1.4418
 Frc consts  --      1.6459                 2.7974                 1.6059
 IR Inten    --     13.6792                 0.0255                 1.4515

                     70                     71                     72
                      A                      A                      A
 Frequencies --   1391.0722              1411.8305              1421.3246
 Red. masses --      1.7462                 1.3029                 1.2492
 Frc consts  --      1.9908                 1.5301                 1.4868
 IR Inten    --     40.5570                 9.9651                37.5740

                     73                     74                     75
                      A                      A                      A
 Frequencies --   1498.5072              1505.8793              1510.5402
 Red. masses --      1.6435                 1.1048                 1.2683
 Frc consts  --      2.1743                 1.4761                 1.7050
 IR Inten    --      3.7526                 6.6971                 2.1958

                     76                     77                     78
                      A                      A                      A
 Frequencies --   1513.4943              1527.7950              1543.5391
 Red. masses --      1.1237                 1.1043                 1.1095
 Frc consts  --      1.5166                 1.5187                 1.5574
 IR Inten    --      6.2275                 2.1524                 4.3404

                     79                     80                     81
                      A                      A                      A
 Frequencies --   1549.2780              1645.3135              1667.7859
 Red. masses --      2.1670                 5.4344                 5.5914
 Frc consts  --      3.0646                 8.6677                 9.1632
 IR Inten    --     11.8808                 1.1533                 6.9823

                     82                     83                     84
                      A                      A                      A
 Frequencies --   2226.4566              3005.6161              3023.6027
 Red. masses --     13.9745                 1.0680                 1.0669
 Frc consts  --     40.8146                 5.6844                 5.7466
 IR Inten    --    618.2405                40.9060                19.2281

                     85                     86                     87
                      A                      A                      A
 Frequencies --   3043.3571              3071.9984              3077.0761
 Red. masses --      1.0606                 1.0998                 1.0954
 Frc consts  --      5.7875                 6.1153                 6.1106
 IR Inten    --     66.3954                15.3845                53.0671

                     88                     89                     90
                      A                      A                      A
 Frequencies --   3078.8877              3086.0847              3102.7160
 Red. masses --      1.0603                 1.1001                 1.0632
 Frc consts  --      5.9219                 6.1732                 6.0306
 IR Inten    --     23.5306                41.5577                10.9424

                     91                     92                     93
                      A                      A                      A
 Frequencies --   3140.0328              3161.0600              3165.2945
 Red. masses --      1.1080                 1.0894                 1.0909
 Frc consts  --      6.4369                 6.4138                 6.4395
 IR Inten    --     18.1244                29.4036                 6.7440

                     94                     95                     96
                      A                      A                      A
 Frequencies --   3171.5870              3173.4487              3178.5470
 Red. masses --      1.1000                 1.0883                 1.0862
 Frc consts  --      6.5194                 6.4576                 6.4657
 IR Inten    --     19.9444                13.1112                 4.4017

                     97                     98                     99
                      A                      A                      A
 Frequencies --   3190.2044              3198.2552              3210.9984
 Red. masses --      1.0895                 1.0938                 1.0979
 Frc consts  --      6.5331                 6.5918                 6.6693
 IR Inten    --      7.6034                38.9260                20.7523

 - Thermochemistry -
 -------------------
 Temperature   298.150 Kelvin.  Pressure   1.00000 Atm.
 Atom     1 has atomic number  6 and mass  12.00000

 Molecular mass:   243.14840 amu.
 Principal axes and moments of inertia in atomic units:
                           1         2         3
     Eigenvalues --  1897.435058320.334529038.03327
           X            0.99997  -0.00704  -0.00138
           Y            0.00705   0.99993   0.00901
           Z            0.00132  -0.00902   0.99996
 This molecule is an asymmetric top.
 Rotational symmetry number  1.
 Warning -- assumption of classical behavior for rotation
           may cause significant error
 Rotational temperatures (Kelvin)      0.04565     0.01041     0.00958
 Rotational constants (GHZ):           0.95115     0.21691     0.19968
 Zero-point vibrational energy     774588.0 (Joules/Mol)
                                  185.13098 (Kcal/Mol)
 Warning -- explicit consideration of  23 degrees of freedom as
           vibrations may cause significant error
 Vibrational temperatures:     28.57    42.35    56.89    79.62    92.83
          (Kelvin)            166.53   223.81   293.73   310.88   406.78
                              446.88   479.96   542.30   582.10   604.65
                              633.71   670.03   705.31   763.82   808.25
                              818.29   832.58   875.93   917.74  1019.69
                             1031.52  1084.43  1115.93  1159.44  1175.62
                             1203.91  1238.93  1278.16  1295.16  1318.50
                             1338.54  1369.28  1375.61  1379.35  1393.13
                             1409.45  1419.59  1430.93  1463.69  1470.32
                             1494.09  1523.75  1529.02  1590.68  1602.55
                             1643.84  1656.14  1688.88  1717.74  1736.70
                             1750.69  1756.92  1771.51  1786.92  1796.76
                             1829.01  1850.68  1869.38  1893.70  1903.24
                             1930.90  1962.38  1966.67  1978.23  2001.44
                             2031.31  2044.97  2156.02  2166.62  2173.33
                             2177.58  2198.16  2220.81  2229.07  2367.24
                             2399.57  3203.37  4324.41  4350.29  4378.71
                             4419.92  4427.23  4429.83  4440.19  4464.12
                             4517.81  4548.06  4554.15  4563.21  4565.88
                             4573.22  4589.99  4601.58  4619.91

 Zero-point correction=                           0.295025 (Hartree/Particle)
 Thermal correction to Energy=                    0.310188
 Thermal correction to Enthalpy=                  0.311132
 Thermal correction to Gibbs Free Energy=         0.249917
 Sum of electronic and zero-point Energies=           -779.019402
 Sum of electronic and thermal Energies=              -779.004240
 Sum of electronic and thermal Enthalpies=            -779.003295
 Sum of electronic and thermal Free Energies=         -779.064510

                     E (Thermal)             CV                S
                      KCal/Mol        Cal/Mol-Kelvin    Cal/Mol-Kelvin
 Total                  194.646             59.785            128.837
 Electronic               0.000              0.000              0.000
 Translational            0.889              2.981             42.366
 Rotational               0.889              2.981             33.322
 Vibrational            192.868             53.823             53.148
 Vibration     1          0.593              1.986              6.649
 Vibration     2          0.593              1.984              5.867
 Vibration     3          0.594              1.981              5.282
 Vibration     4          0.596              1.975              4.617
 Vibration     5          0.597              1.971              4.314
 Vibration     6          0.608              1.936              3.170
 Vibration     7          0.620              1.896              2.603
 Vibration     8          0.640              1.834              2.095
 Vibration     9          0.645              1.817              1.992
 Vibration    10          0.682              1.706              1.517
 Vibration    11          0.699              1.654              1.359
 Vibration    12          0.715              1.608              1.243
 Vibration    13          0.747              1.519              1.052
 Vibration    14          0.770              1.460              0.946
 Vibration    15          0.783              1.426              0.891
 Vibration    16          0.800              1.382              0.825
 Vibration    17          0.823              1.326              0.750
 Vibration    18          0.846              1.272              0.683
 Vibration    19          0.886              1.182              0.585
 Vibration    20          0.917              1.114              0.520
 Vibration    21          0.925              1.099              0.507
 Vibration    22          0.935              1.077              0.488
 Vibration    23          0.968              1.013              0.435

 Optimization completed.
    -- Stationary point found.
 Normal termination of Gaussian 16 at Fri Dec 11 23:15:49 2020.

 ----------------------------------------------------------------------
 # B3LYP/6-311++G(d,p) empiricaldispersion=gd3bj scf=xqc pop=npa geom=c
 heck
 ----------------------------------------------------------------------

 ---------------------------------------
 CID_150772446_JID_8885_Energie_neutraal
 ---------------------------------------
 Structure from the checkpoint file:  "JID_8885.chk"
 Charge =  0 Multiplicity = 1

 SCF Done:  E(RB3LYP) =  -779.517765904     A.U. after   17 cycles
 Normal termination of Gaussian 16 at Fri Dec 11 23:24:00 2020.

 ----------------------------------------------------------------------
 # B3LYP/6-311++G(d,p) empiricaldispersion=gd3bj scf=xqc pop=npa geom=c
 heck
 ----------------------------------------------------------------------

 -------------------------------------
 CID_150772446_JID_8885_Energie_kation
 -------------------------------------
 Structure from the checkpoint file:  "JID_8885.chk"
 Charge =  1 Multiplicity = 2

 SCF Done:  E(UB3LYP) =  -779.242914136     A.U. after   31 cycles
 Normal termination of Gaussian 16 at Fri Dec 11 23:44:12 2020.
 Gaussian 16:  ES64L-G16RevA.03 25-Dec-2016

 ----------------------------------------------------------------------
 # B3LYP/6-311++G(d,p) empiricaldispersion=gd3bj scf=xqc pop=npa geom=c
 heck
 ----------------------------------------------------------------------

 ------------------------------------
 CID_150772446_JID_8885_Energie_anion
 ------------------------------------
 Structure from the checkpoint file:  "JID_8885.chk"
 Charge = -1 Multiplicity = 2

                         Standard orientation:
 ---------------------------------------------------------------------
 Center     Atomic      Atomic             Coordinates (Angstroms)
 Number     Number       Type             X           Y           Z
 ---------------------------------------------------------------------
      1          6           0       -0.608865   -0.627120    0.641432
      2          6           0       -1.823011    0.266958    0.934404
      3          6           0       -1.216597    1.669433    0.750671
      4          7           0       -0.345963    1.491036   -0.427257
      5          6           0       -0.393131    0.045140   -0.728943
      6          6           0       -1.771080   -0.197715   -1.375832
      7          7           0       -2.727080    0.053431   -0.238736
      8          7           0       -3.486458   -1.178441   -0.004524
      9          7           0       -4.709846   -0.938104    0.007121
     10          7           0       -5.848191   -0.878561    0.046775
     11          6           0        0.913724    2.206141   -0.455270
     12          6           0        2.028681    1.818851    0.551240
     13          6           0        2.723178    0.500431    0.286447
     14          6           0        2.852584   -0.459838    1.296513
     15          6           0        3.491422   -1.677568    1.059665
     16          6           0        4.019627   -1.955932   -0.200373
     17          6           0        3.912292   -1.002265   -1.214521
     18          6           0        3.274289    0.213021   -0.970529
     19          1           0       -0.866377   -1.688447    0.583699
     20          1           0        0.225760   -0.484551    1.328391
     21          1           0       -2.369995    0.125072    1.865716
     22          1           0       -0.655726    1.949393    1.655798
     23          1           0       -1.988232    2.426912    0.572102
     24          1           0        0.455589   -0.282453   -1.328151
     25          1           0       -1.974505    0.503542   -2.187900
     26          1           0       -1.885193   -1.226135   -1.732174
     27          1           0        1.315812    2.136356   -1.473332
     28          1           0        0.678107    3.266198   -0.297069
     29          1           0        2.774244    2.626734    0.522702
     30          1           0        1.623359    1.821060    1.570227
     31          1           0        2.446597   -0.249066    2.283273
     32          1           0        3.574210   -2.407765    1.859984
     33          1           0        4.514799   -2.903846   -0.390369
     34          1           0        4.329166   -1.203920   -2.197547
     35          1           0        3.206471    0.948178   -1.768436
 ---------------------------------------------------------------------

 SCF Done:  E(UB3LYP) =  -779.515161442     A.U. after   33 cycles
 SCF Done:  E(UB3LYP) =  -779.515161442     a.u. after    1 cycles

 The electronic state is 2-A.
 Alpha  occ. eigenvalues --  -14.32464 -14.24163 -14.23768 -14.22766 -14.20050
 Alpha  occ. eigenvalues --  -10.10379 -10.10124 -10.09974 -10.09357 -10.09162
 Alpha  occ. eigenvalues --  -10.08688 -10.08562 -10.08469 -10.08380 -10.08259
 Alpha  occ. eigenvalues --  -10.08246 -10.07952 -10.06241  -1.00238  -0.88366
 Alpha  occ. eigenvalues --   -0.84126  -0.77294  -0.76474  -0.69383  -0.65989
 Alpha  occ. eigenvalues --   -0.65668  -0.64992  -0.61628  -0.56837  -0.52954
 Alpha  occ. eigenvalues --   -0.51833  -0.49451  -0.48935  -0.45703  -0.43309
 Alpha  occ. eigenvalues --   -0.42353  -0.39732  -0.39055  -0.37975  -0.37631
 Alpha  occ. eigenvalues --   -0.36616  -0.36369  -0.35787  -0.34253  -0.33236
 Alpha  occ. eigenvalues --   -0.32571  -0.32067  -0.31291  -0.30359  -0.29048
 Alpha  occ. eigenvalues --   -0.27886  -0.27287  -0.26583  -0.26305  -0.25659
 Alpha  occ. eigenvalues --   -0.25286  -0.24587  -0.24166  -0.23283  -0.22067
 Alpha  occ. eigenvalues --   -0.16679  -0.16000  -0.13036  -0.11952  -0.10722
 Alpha  occ. eigenvalues --    0.03933
 Alpha virt. eigenvalues --    0.05421   0.06178   0.06566   0.07149   0.07463
 Alpha virt. eigenvalues --    0.08346   0.08430   0.08826   0.09754   0.10168
 Alpha virt. eigenvalues --    0.10750   0.11065   0.11333   0.12386   0.12625

  Beta  occ. eigenvalues --  -14.32141 -14.24213 -14.23310 -14.22642 -14.20050
  Beta  occ. eigenvalues --  -10.10368 -10.10122 -10.09972 -10.09345 -10.09142
  Beta  occ. eigenvalues --  -10.08683 -10.08547 -10.08466 -10.08354 -10.08239
  Beta  occ. eigenvalues --  -10.08237 -10.07936 -10.06231  -0.99606  -0.88150
  Beta  occ. eigenvalues --   -0.84005  -0.77201  -0.76336  -0.69309  -0.65918
  Beta  occ. eigenvalues --   -0.65602  -0.64962  -0.61586  -0.56770  -0.52868
  Beta  occ. eigenvalues --   -0.51797  -0.49365  -0.48854  -0.45570  -0.43268
  Beta  occ. eigenvalues --   -0.42298  -0.39575  -0.38864  -0.37679  -0.37310
  Beta  occ. eigenvalues --   -0.36202  -0.36077  -0.35578  -0.34061  -0.33191
  Beta  occ. eigenvalues --   -0.32345  -0.31475  -0.31109  -0.30242  -0.29000
  Beta  occ. eigenvalues --   -0.27795  -0.27244  -0.26553  -0.26265  -0.25601
  Beta  occ. eigenvalues --   -0.25251  -0.24508  -0.24103  -0.23246  -0.21264
  Beta  occ. eigenvalues --   -0.16629  -0.15894  -0.12895  -0.11803  -0.10707
  Beta virt. eigenvalues --    0.05928   0.06614   0.07011   0.07302   0.07540
  Beta virt. eigenvalues --    0.08648   0.08726   0.08780   0.09321   0.09941
  Beta virt. eigenvalues --    0.10513   0.10880   0.11170   0.11511   0.12477

 Mulliken charges and spin densities:
               1          2
     1  C   -0.453840  -0.461501
     2  C   -0.764753   0.695276
     3  C    0.211955  -0.683002
     4  N    0.041438   0.027329
     5  C    0.046404   0.358868
     6  C   -0.090706  -0.503774
     7  N    0.192753  -0.032241
     8  N    0.265120  -0.008691
     9  N    0.120750   0.086932
    10  N   -0.699232   0.278929
    11  C   -0.195292  -0.182153
    12  C    1.618381  -2.200349
    13  C   -0.362416   1.045504
    14  C   -0.719226   0.652408
    15  C    0.012214  -0.251670
    16  C    1.105463  -1.491447
    17  C   -0.261025   0.044818
    18  C   -0.616924   0.376870
    19  H    0.055407   0.127324
    20  H    0.252821  -0.196864
    21  H   -0.029165   0.275879
    22  H   -0.099393   0.201627
    23  H    0.195867  -0.019426
    24  H    0.353366  -0.069292
    25  H    0.150547   0.017289
    26  H    0.050465   0.112564
    27  H    0.076735   0.073111
    28  H   -0.024448   0.172364
    29  H   -0.260209   0.443449
    30  H   -0.016007   0.150320
    31  H   -0.324192   0.491323
    32  H   -0.273031   0.448816
    33  H   -0.086600   0.231799
    34  H   -0.381044   0.558642
    35  H   -0.092184   0.228969
 Sum of Mulliken charges =  -1.00000   1.00000

 Dipole moment (field-independent basis, Debye):
    X=              2.6466    Y=              1.4684    Z=             -0.7743  Tot=              3.1241
 Quadrupole moment (field-independent basis, Debye-Ang):
   XX=           -217.1755   YY=           -142.6661   ZZ=           -131.7663
   XY=             -5.7011   XZ=             -0.6739   YZ=             -0.5173

 Summary of Natural Population Analysis:

                                       Natural Population
                Natural  -----------------------------------------------
    Atom  No    Charge         Core      Valence    Rydberg      Total
 -----------------------------------------------------------------------
      C    1   -0.20886      0.99961     2.20130    0.00795     3.20886
      C    2   -0.01551      0.99958     2.00021    0.01572     3.01551
      C    3   -0.08739      0.99960     2.07635    0.01144     3.08739
      N    4   -0.28978      0.99972     2.77789    0.01218     3.78978
      C    5   -0.01743      0.99959     2.00464    0.01320     3.01743
      C    6   -0.08955      0.99960     2.07898    0.01097     3.08955
      N    7   -0.18926      0.99972     2.67667    0.01286     3.68926
      N    8   -0.15353      0.99972     2.63881    0.01500     3.65353
      N    9    0.14010      0.99971     2.34482    0.01537     3.35990
      N   10    0.00632      0.99982     2.47988    0.01397     3.49368
      C   11   -0.07287      0.99961     2.06109    0.01218     3.07287
      C   12   -0.21072      0.99959     2.20184    0.00930     3.21072
      C   13   -0.01244      0.99951     2.00189    0.01105     3.01244
      C   14   -0.10254      0.99951     2.09342    0.00962     3.10254
      C   15   -0.09805      0.99956     2.08812    0.01037     3.09805
      C   16   -0.10378      0.99956     2.09481    0.00941     3.10378
      C   17   -0.10027      0.99956     2.09039    0.01031     3.10027
      C   18   -0.10306      0.99950     2.09445    0.00911     3.10306
      H   19    0.10824      0.00000     0.39025    0.00151     0.39176
      H   20    0.10480      0.00000     0.39371    0.00148     0.39520
      H   21    0.10711      0.00000     0.39166    0.00122     0.39289
      H   22    0.08870      0.00000     0.40991    0.00139     0.41130
      H   23    0.09756      0.00000     0.40090    0.00154     0.40244
      H   24    0.10890      0.00000     0.38968    0.00143     0.39110
      H   25    0.09787      0.00000     0.40071    0.00142     0.40213
      H   26    0.09922      0.00000     0.39930    0.00148     0.40078
      H   27    0.09226      0.00000     0.40641    0.00133     0.40774
      H   28    0.09546      0.00000     0.40361    0.00093     0.40454
      H   29    0.10617      0.00000     0.39219    0.00164     0.39383
      H   30    0.10052      0.00000     0.39806    0.00141     0.39948
      H   31    0.10116      0.00000     0.39760    0.00124     0.39884
      H   32    0.10073      0.00000     0.39833    0.00094     0.39927
      H   33    0.10030      0.00000     0.39877    0.00094     0.39970
      H   34    0.10018      0.00000     0.39887    0.00095     0.39982
      H   35    0.09945      0.00000     0.39897    0.00158     0.40055
 =======================================================================
   * Total *    0.00000     17.99307    46.77449    0.23245    65.00000

 Normal termination of Gaussian 16 at Sat Dec 12 00:06:26 2020.
