 Gaussian 16, Revision A.03,

 -----------------------------------------------------------
 # opt freq B3LYP/6-31G(d) empiricaldispersion=gd3bj scf=xqc
 -----------------------------------------------------------

 -------------------------------
 CID_103949075_JID_6731_neutraal
 -------------------------------
 Symbolic Z-matrix:
 Charge =  0 Multiplicity = 1

 SCF Done:  E(RB3LYP) =  -773.822755414     A.U. after   15 cycles
 SCF Done:  E(RB3LYP) =  -773.828538354     A.U. after   13 cycles
 SCF Done:  E(RB3LYP) =  -773.829621806     A.U. after   12 cycles
 SCF Done:  E(RB3LYP) =  -773.829871584     A.U. after   12 cycles
 SCF Done:  E(RB3LYP) =  -773.829968686     A.U. after   12 cycles
 SCF Done:  E(RB3LYP) =  -773.830029310     A.U. after   11 cycles
 SCF Done:  E(RB3LYP) =  -773.830067232     A.U. after   12 cycles
 SCF Done:  E(RB3LYP) =  -773.830083871     A.U. after   10 cycles
 SCF Done:  E(RB3LYP) =  -773.830096090     A.U. after   11 cycles
 SCF Done:  E(RB3LYP) =  -773.830108732     A.U. after   11 cycles
 SCF Done:  E(RB3LYP) =  -773.830885274     A.U. after    9 cycles
 SCF Done:  E(RB3LYP) =  -773.830885415     A.U. after    8 cycles
 SCF Done:  E(RB3LYP) =  -773.830885788     A.U. after    8 cycles
 SCF Done:  E(RB3LYP) =  -773.830885813     A.U. after    7 cycles
 SCF Done:  E(RB3LYP) =  -773.830885827     A.U. after    7 cycles
 Optimization completed.
    -- Stationary point found.
 Normal termination of Gaussian 16 at Thu Dec 10 23:37:21 2020.

 --------------------------------------------------------------------
 #N Geom=AllCheck Guess=TCheck SCRF=Check GenChk RB3LYP/6-31G(d) Freq
 --------------------------------------------------------------------

 Structure from the checkpoint file:  "JID_6731.chk"
 -------------------------------
 CID_103949075_JID_6731_neutraal
 -------------------------------
 Charge =  0 Multiplicity = 1

 SCF Done:  E(RB3LYP) =  -773.830885826     A.U. after    1 cycles

  Exact polarizability: 175.324  -7.539 123.173  -1.129   4.171  79.847
 Approx polarizability: 228.289  -4.315 216.300  -5.391  13.018 123.845

                      1                      2                      3
                      A                      A                      A
 Frequencies --     27.7319                28.0571                45.8425
 Red. masses --      5.5348                 4.8390                 4.9295
 Frc consts  --      0.0025                 0.0022                 0.0061
 IR Inten    --      0.2793                 0.5075                 0.7289

                      4                      5                      6
                      A                      A                      A
 Frequencies --     76.2360               111.2453               125.8226
 Red. masses --      5.5835                 5.0443                 3.9026
 Frc consts  --      0.0191                 0.0368                 0.0364
 IR Inten    --      1.8708                 0.6352                 2.5549

                      7                      8                      9
                      A                      A                      A
 Frequencies --    145.8722               154.0198               199.4504
 Red. masses --      1.2346                 3.1020                 6.2637
 Frc consts  --      0.0155                 0.0434                 0.1468
 IR Inten    --      0.2842                 1.4535                 0.1281

                     10                     11                     12
                      A                      A                      A
 Frequencies --    226.1323               238.0629               255.9565
 Red. masses --      4.0731                 1.8867                 1.5836
 Frc consts  --      0.1227                 0.0630                 0.0611
 IR Inten    --      3.4279                 8.5854                 4.1007

                     13                     14                     15
                      A                      A                      A
 Frequencies --    309.8227               358.2811               387.0108
 Red. masses --      3.7484                 4.0279                 5.0404
 Frc consts  --      0.2120                 0.3046                 0.4448
 IR Inten    --      1.8816                 0.9690                 2.2636

                     16                     17                     18
                      A                      A                      A
 Frequencies --    435.6206               495.1630               555.3164
 Red. masses --      6.0177                 4.0357                 4.3944
 Frc consts  --      0.6728                 0.5830                 0.7984
 IR Inten    --      5.9191                 5.8295                 7.6356

                     19                     20                     21
                      A                      A                      A
 Frequencies --    581.8145               639.0515               640.7592
 Red. masses --      1.9356                 2.3344                 3.5799
 Frc consts  --      0.3860                 0.5617                 0.8660
 IR Inten    --     22.2744                59.4270                17.6307

                     22                     23                     24
                      A                      A                      A
 Frequencies --    659.1287               682.0019               687.4334
 Red. masses --      4.1803                 4.1891                 2.5720
 Frc consts  --      1.0700                 1.1480                 0.7161
 IR Inten    --      3.1525                49.1314                23.5644

                     25                     26                     27
                      A                      A                      A
 Frequencies --    724.9363               757.8755               767.1065
 Red. masses --      1.7381                 4.9293                 4.2377
 Frc consts  --      0.5382                 1.6681                 1.4692
 IR Inten    --     82.3049                 8.7462                 4.3405

                     28                     29                     30
                      A                      A                      A
 Frequencies --    778.7672               844.7545               892.6369
 Red. masses --      7.1162                 1.3118                 1.3585
 Frc consts  --      2.5428                 0.5515                 0.6378
 IR Inten    --     15.3504                13.8459                10.5940

                     31                     32                     33
                      A                      A                      A
 Frequencies --    931.7604               963.4247               987.6150
 Red. masses --      2.0954                 3.4582                 4.7759
 Frc consts  --      1.0719                 1.8912                 2.7446
 IR Inten    --      5.4174                 4.4534                17.4124

                     34                     35                     36
                      A                      A                      A
 Frequencies --    989.1579              1040.2634              1047.1158
 Red. masses --      5.4570                 2.6789                 3.6362
 Frc consts  --      3.1458                 1.7080                 2.3490
 IR Inten    --     21.6179                46.9127                41.5846

                     37                     38                     39
                      A                      A                      A
 Frequencies --   1066.7780              1083.0491              1099.5718
 Red. masses --      1.7244                 1.4636                 2.7623
 Frc consts  --      1.1562                 1.0115                 1.9677
 IR Inten    --     63.2890                 3.0367                10.6221

                     40                     41                     42
                      A                      A                      A
 Frequencies --   1135.7741              1143.3176              1174.0167
 Red. masses --      2.3463                 2.6064                 2.8095
 Frc consts  --      1.7833                 2.0074                 2.2815
 IR Inten    --     58.8641                29.8376                14.2409

                     43                     44                     45
                      A                      A                      A
 Frequencies --   1211.6771              1237.7474              1255.0549
 Red. masses --      2.6030                 3.9337                 2.1249
 Frc consts  --      2.2517                 3.5508                 1.9720
 IR Inten    --      0.8862                 9.2106                13.9754

                     46                     47                     48
                      A                      A                      A
 Frequencies --   1269.8157              1316.1558              1326.4393
 Red. masses --      2.4521                 4.5710                 1.5010
 Frc consts  --      2.3296                 4.6653                 1.5560
 IR Inten    --     13.3949                48.1277                 3.0503

                     49                     50                     51
                      A                      A                      A
 Frequencies --   1366.0802              1373.0425              1384.8232
 Red. masses --      3.5350                 1.3895                 2.7879
 Frc consts  --      3.8868                 1.5433                 3.1501
 IR Inten    --     36.1120                 8.8435                52.8886

                     52                     53                     54
                      A                      A                      A
 Frequencies --   1429.5170              1445.2837              1448.5762
 Red. masses --      1.2562                 2.3686                 1.5019
 Frc consts  --      1.5125                 2.9150                 1.8568
 IR Inten    --      3.3650               128.4985                43.9614

                     55                     56                     57
                      A                      A                      A
 Frequencies --   1491.8183              1497.5781              1502.4430
 Red. masses --      2.0535                 2.4359                 1.0423
 Frc consts  --      2.6926                 3.2187                 1.3862
 IR Inten    --     28.7989                97.8100                 7.7750

                     58                     59                     60
                      A                      A                      A
 Frequencies --   1518.2886              1521.5111              1527.8822
 Red. masses --      1.1044                 1.0974                 1.1284
 Frc consts  --      1.5000                 1.4968                 1.5520
 IR Inten    --     16.4113                16.2112                 4.8773

                     61                     62                     63
                      A                      A                      A
 Frequencies --   1584.0776              1634.3749              1667.1182
 Red. masses --      4.8975                 7.7017                 6.8568
 Frc consts  --      7.2407                12.1210                11.2281
 IR Inten    --     56.1330                23.1939                23.2686

                     64                     65                     66
                      A                      A                      A
 Frequencies --   1756.5749              3049.9679              3063.4575
 Red. masses --      8.0900                 1.0377                 1.0343
 Frc consts  --     14.7073                 5.6875                 5.7190
 IR Inten    --    406.3506                24.7617                14.4312

                     67                     68                     69
                      A                      A                      A
 Frequencies --   3102.4390              3135.2378              3144.8969
 Red. masses --      1.1019                 1.1024                 1.0998
 Frc consts  --      6.2486                 6.3847                 6.4090
 IR Inten    --     13.0488                14.7886                 9.1392

                     70                     71                     72
                      A                      A                      A
 Frequencies --   3151.8309              3167.5938              3279.1218
 Red. masses --      1.1027                 1.0876                 1.0982
 Frc consts  --      6.4542                 6.4297                 6.9574
 IR Inten    --     23.5330                 5.0860                 7.3264

                     73                     74                     75
                      A                      A                      A
 Frequencies --   3286.1642              3590.2803              3646.9353
 Red. masses --      1.0975                 1.0757                 1.0821
 Frc consts  --      6.9831                 8.1697                 8.4793
 IR Inten    --      5.7883                49.0912               108.7097

 - Thermochemistry -
 -------------------
 Temperature   298.150 Kelvin.  Pressure   1.00000 Atm.
 Atom     1 has atomic number  6 and mass  12.00000

 Molecular mass:   221.09127 amu.
 Principal axes and moments of inertia in atomic units:
                           1         2         3
     Eigenvalues --  1321.186147185.474077796.60673
           X            0.99995  -0.00949   0.00071
           Y            0.00950   0.99972  -0.02151
           Z           -0.00051   0.02152   0.99977
 This molecule is an asymmetric top.
 Rotational symmetry number  1.
 Warning -- assumption of classical behavior for rotation
           may cause significant error
 Rotational temperatures (Kelvin)      0.06556     0.01205     0.01111
 Rotational constants (GHZ):           1.36600     0.25117     0.23148
 Zero-point vibrational energy     555531.2 (Joules/Mol)
                                  132.77514 (Kcal/Mol)
 Warning -- explicit consideration of  19 degrees of freedom as
           vibrations may cause significant error
 Vibrational temperatures:     39.90    40.37    65.96   109.69   160.06
          (Kelvin)            181.03   209.88   221.60   286.96   325.35
                              342.52   368.26   445.77   515.49   556.82
                              626.76   712.43   798.98   837.10   919.45
                              921.91   948.34   981.25   989.06  1043.02
                             1090.41  1103.70  1120.47  1215.41  1284.31
                             1340.60  1386.15  1420.96  1423.18  1496.71
                             1506.57  1534.86  1558.27  1582.04  1634.13
                             1644.98  1689.15  1743.33  1780.84  1805.74
                             1826.98  1893.65  1908.45  1965.48  1975.50
                             1992.45  2056.76  2079.44  2084.18  2146.39
                             2154.68  2161.68  2184.48  2189.12  2198.28
                             2279.13  2351.50  2398.61  2527.32  4388.22
                             4407.63  4463.72  4510.91  4524.81  4534.78
                             4557.46  4717.92  4728.06  5165.61  5247.13

 Zero-point correction=                           0.211591 (Hartree/Particle)
 Thermal correction to Energy=                    0.226172
 Thermal correction to Enthalpy=                  0.227116
 Thermal correction to Gibbs Free Energy=         0.167598
 Sum of electronic and zero-point Energies=           -773.619295
 Sum of electronic and thermal Energies=              -773.604714
 Sum of electronic and thermal Enthalpies=            -773.603769
 Sum of electronic and thermal Free Energies=         -773.663288

                     E (Thermal)             CV                S
                      KCal/Mol        Cal/Mol-Kelvin    Cal/Mol-Kelvin
 Total                  141.925             52.943            125.268
 Electronic               0.000              0.000              0.000
 Translational            0.889              2.981             42.083
 Rotational               0.889              2.981             32.670
 Vibrational            140.148             46.981             50.514
 Vibration     1          0.593              1.984              5.985
 Vibration     2          0.593              1.984              5.962
 Vibration     3          0.595              1.979              4.989
 Vibration     4          0.599              1.965              3.986
 Vibration     5          0.607              1.940              3.247
 Vibration     6          0.611              1.927              3.009
 Vibration     7          0.617              1.907              2.725
 Vibration     8          0.620              1.898              2.622
 Vibration     9          0.638              1.841              2.138
 Vibration    10          0.650              1.801              1.909
 Vibration    11          0.656              1.782              1.817
 Vibration    12          0.666              1.753              1.689
 Vibration    13          0.699              1.655              1.363
 Vibration    14          0.733              1.558              1.130
 Vibration    15          0.755              1.498              1.012
 Vibration    16          0.796              1.393              0.840
 Vibration    17          0.851              1.261              0.670
 Vibration    18          0.911              1.128              0.533
 Vibration    19          0.939              1.071              0.482

                           ! Non-Optimized Parameters !
 Normal termination of Gaussian 16 at Thu Dec 10 23:45:07 2020.

 ----------------------------------------------------------------------
 # B3LYP/6-311++G(d,p) empiricaldispersion=gd3bj scf=xqc pop=npa geom=c
 heck
 ----------------------------------------------------------------------

 ---------------------------------------
 CID_103949075_JID_6731_Energie_neutraal
 ---------------------------------------
 Structure from the checkpoint file:  "JID_6731.chk"
 Charge =  0 Multiplicity = 1

 SCF Done:  E(RB3LYP) =  -774.048509212     A.U. after   16 cycles
 Normal termination of Gaussian 16 at Thu Dec 10 23:48:21 2020.

 ----------------------------------------------------------------------
 # B3LYP/6-311++G(d,p) empiricaldispersion=gd3bj scf=xqc pop=npa geom=c
 heck
 ----------------------------------------------------------------------

 -------------------------------------
 CID_103949075_JID_6731_Energie_kation
 -------------------------------------
 Structure from the checkpoint file:  "JID_6731.chk"
 Charge =  1 Multiplicity = 2

 SCF Done:  E(UB3LYP) =  -773.725313055     A.U. after   32 cycles
 Normal termination of Gaussian 16 at Thu Dec 10 23:57:00 2020.
 Gaussian 16:  ES64L-G16RevA.03 25-Dec-2016

 ----------------------------------------------------------------------
 # B3LYP/6-311++G(d,p) empiricaldispersion=gd3bj scf=xqc pop=npa geom=c
 heck
 ----------------------------------------------------------------------

 ------------------------------------
 CID_103949075_JID_6731_Energie_anion
 ------------------------------------
 Structure from the checkpoint file:  "JID_6731.chk"
 Charge = -1 Multiplicity = 2

                         Standard orientation:
 ---------------------------------------------------------------------
 Center     Atomic      Atomic             Coordinates (Angstroms)
 Number     Number       Type             X           Y           Z
 ---------------------------------------------------------------------
      1          6           0        4.978110   -0.990027    0.007112
      2          6           0        3.824875   -0.093198    0.267831
      3          6           0        3.618453    1.031908    0.999393
      4          7           0        2.291518    1.441732    0.878088
      5          6           0        1.753339    0.569700    0.087485
      6          8           0        2.621134   -0.401692   -0.336073
      7          6           0        0.355286    0.512041   -0.439721
      8          6           0        0.285638    0.894421   -1.926405
      9          7           0       -0.171406   -0.839973   -0.203936
     10          6           0       -1.447309   -1.243468    0.013486
     11          8           0       -1.759835   -2.429076    0.137124
     12          6           0       -2.526246   -0.224151    0.122117
     13          7           0       -2.535923    1.098918   -0.022151
     14          6           0       -3.841303    1.419062    0.190852
     15          7           0       -4.638367    0.385830    0.453234
     16          7           0       -3.777910   -0.648113    0.402854
     17          1           0        4.775279   -2.013423    0.344818
     18          1           0        5.218661   -1.034335   -1.061761
     19          1           0        5.857662   -0.621423    0.541604
     20          1           0        4.325183    1.575531    1.609763
     21          1           0       -0.236122    1.220184    0.138715
     22          1           0        0.855489    0.186263   -2.536469
     23          1           0       -0.757698    0.894128   -2.252289
     24          1           0        0.696985    1.897849   -2.075444
     25          1           0        0.477356   -1.611215   -0.313232
     26          1           0       -4.216760    2.431790    0.152013
     27          1           0       -4.066865   -1.605682    0.554349
 ---------------------------------------------------------------------

 SCF Done:  E(UB3LYP) =  -774.052379054     A.U. after   33 cycles
 SCF Done:  E(UB3LYP) =  -774.052379054     a.u. after    1 cycles

 The electronic state is 2-A.
 Alpha  occ. eigenvalues --  -19.10246 -18.95526 -14.25914 -14.21750 -14.21650
 Alpha  occ. eigenvalues --  -14.21494 -14.18242 -10.16288 -10.14201 -10.13973
 Alpha  occ. eigenvalues --  -10.12205 -10.10641 -10.10198 -10.10128 -10.09096
 Alpha  occ. eigenvalues --  -10.06707  -1.03680  -0.95790  -0.90959  -0.82804
 Alpha  occ. eigenvalues --   -0.81412  -0.77427  -0.71101  -0.70787  -0.66492
 Alpha  occ. eigenvalues --   -0.60874  -0.56047  -0.53944  -0.52315  -0.50640
 Alpha  occ. eigenvalues --   -0.48713  -0.47816  -0.43092  -0.41241  -0.38953
 Alpha  occ. eigenvalues --   -0.37473  -0.36239  -0.35274  -0.34294  -0.33839
 Alpha  occ. eigenvalues --   -0.32997  -0.32654  -0.32041  -0.31597  -0.30037
 Alpha  occ. eigenvalues --   -0.29522  -0.27627  -0.27352  -0.26427  -0.22908
 Alpha  occ. eigenvalues --   -0.21393  -0.19939  -0.18775  -0.16795  -0.15245
 Alpha  occ. eigenvalues --   -0.14940  -0.14359  -0.13892   0.03975
 Alpha virt. eigenvalues --    0.05241   0.07900   0.08301   0.08425   0.09256
 Alpha virt. eigenvalues --    0.09858   0.10498   0.10586   0.11677   0.12432
 Alpha virt. eigenvalues --    0.12996   0.13078   0.13400   0.14073   0.14623

  Beta  occ. eigenvalues --  -19.10227 -18.95281 -14.25637 -14.21678 -14.21485
  Beta  occ. eigenvalues --  -14.21451 -14.18087 -10.16276 -10.14191 -10.13722
  Beta  occ. eigenvalues --  -10.12212 -10.10488 -10.10269 -10.10121 -10.09048
  Beta  occ. eigenvalues --  -10.06694  -1.03649  -0.95429  -0.90509  -0.82771
  Beta  occ. eigenvalues --   -0.81207  -0.77055  -0.70975  -0.70447  -0.66416
  Beta  occ. eigenvalues --   -0.60824  -0.55783  -0.53494  -0.52270  -0.50584
  Beta  occ. eigenvalues --   -0.48492  -0.47758  -0.43009  -0.41067  -0.38876
  Beta  occ. eigenvalues --   -0.37328  -0.36069  -0.34345  -0.34152  -0.33773
  Beta  occ. eigenvalues --   -0.32839  -0.32549  -0.31921  -0.31465  -0.30007
  Beta  occ. eigenvalues --   -0.29312  -0.27473  -0.26746  -0.25888  -0.22842
  Beta  occ. eigenvalues --   -0.21093  -0.19911  -0.17601  -0.16563  -0.14805
  Beta  occ. eigenvalues --   -0.14254  -0.13658  -0.13369
  Beta virt. eigenvalues --    0.06271   0.08188   0.08381   0.08481   0.09155
  Beta virt. eigenvalues --    0.09481   0.10147   0.10621   0.10950   0.11579
  Beta virt. eigenvalues --    0.12635   0.12952   0.13181   0.13541   0.14103

 Mulliken charges and spin densities:
               1          2
     1  C    1.678439  -2.156867
     2  C   -0.920565   1.299876
     3  C   -0.318675   0.092447
     4  N   -0.048710   0.054416
     5  C   -0.576707   0.201553
     6  O   -0.017937   0.023884
     7  C    0.565657  -0.931920
     8  C   -0.489792  -0.007341
     9  N   -0.121915   0.020272
    10  C   -0.219233   0.134258
    11  O   -0.426708   0.090014
    12  C    0.115653   0.096592
    13  N   -0.248747   0.080053
    14  C    0.063324  -0.038829
    15  N   -0.192629   0.101413
    16  N   -0.147893   0.098148
    17  H   -0.112012   0.266696
    18  H   -0.235170   0.396755
    19  H   -0.572588   0.749903
    20  H   -0.269510   0.435191
    21  H    0.252825   0.000399
    22  H    0.140406  -0.001022
    23  H    0.171450   0.003654
    24  H    0.129501  -0.000181
    25  H    0.337112  -0.005582
    26  H    0.144681   0.002990
    27  H    0.319741  -0.006774
 Sum of Mulliken charges =  -1.00000   1.00000

 Dipole moment (field-independent basis, Debye):
    X=             -1.5133    Y=              1.7881    Z=             -2.0688  Tot=              3.1253
 Quadrupole moment (field-independent basis, Debye-Ang):
   XX=           -190.8991   YY=           -119.7462   ZZ=           -108.2271
   XY=              1.4067   XZ=             -1.8902   YZ=             -2.1223

 Summary of Natural Population Analysis:

                                       Natural Population
                Natural  -----------------------------------------------
    Atom  No    Charge         Core      Valence    Rydberg      Total
 -----------------------------------------------------------------------
      C    1   -0.30735      0.99963     2.30192    0.00580     3.30735
      C    2    0.13563      0.99948     1.85124    0.01365     2.86437
      C    3   -0.05163      0.99949     2.03831    0.01384     3.05163
      N    4   -0.24801      0.99968     2.73976    0.00857     3.74801
      C    5    0.27460      0.99957     1.70386    0.02198     2.72540
      O    6   -0.24837      0.99985     3.24146    0.00706     4.24837
      C    7   -0.05054      0.99954     2.03621    0.01479     3.05054
      C    8   -0.28149      0.99964     2.27782    0.00403     3.28149
      N    9   -0.30449      0.99966     2.79495    0.00988     3.80449
      C   10    0.35084      0.99963     1.62944    0.02009     2.64916
      O   11   -0.31761      0.99989     3.31196    0.00577     4.31761
      C   12    0.16704      0.99960     1.81810    0.01526     2.83296
      N   13   -0.25505      0.99970     2.74663    0.00872     3.75505
      C   14    0.05797      0.99973     1.92183    0.02048     2.94203
      N   15   -0.13997      0.99974     2.62678    0.01345     3.63997
      N   16   -0.13253      0.99965     2.62034    0.01254     3.63253
      H   17    0.10828      0.00000     0.39048    0.00124     0.39172
      H   18    0.10898      0.00000     0.38943    0.00159     0.39102
      H   19    0.11288      0.00000     0.38504    0.00208     0.38712
      H   20    0.10149      0.00000     0.39736    0.00116     0.39851
      H   21    0.13175      0.00000     0.36681    0.00144     0.36825
      H   22    0.09672      0.00000     0.40246    0.00083     0.40328
      H   23    0.10929      0.00000     0.38988    0.00082     0.39071
      H   24    0.09799      0.00000     0.40131    0.00071     0.40201
      H   25    0.19333      0.00000     0.30379    0.00288     0.30667
      H   26    0.08562      0.00000     0.41336    0.00103     0.41438
      H   27    0.20462      0.00000     0.29377    0.00161     0.29538
 =======================================================================
   * Total *   -0.00000     15.99448    41.79425    0.21127    58.00000

 Normal termination of Gaussian 16 at Fri Dec 11 00:06:11 2020.
