 Gaussian 16, Revision A.03,

 ----------------------------------------------------------------------
 # opt=(cartesian,calcfc,maxcycle=500) freq B3LYP/6-31G(d) empiricaldis
 persion=gd3bj scf=xqc
 ----------------------------------------------------------------------

 ------------------------------
 CID_21117755_JID_2331_neutraal
 ------------------------------
 Symbolic Z-matrix:
 Charge =  0 Multiplicity = 1

 SCF Done:  E(RB3LYP) =  -663.793175670     A.U. after   15 cycles
 SCF Done:  E(RB3LYP) =  -663.793687312     A.U. after   13 cycles
 SCF Done:  E(RB3LYP) =  -663.794227055     A.U. after   12 cycles
 SCF Done:  E(RB3LYP) =  -663.794639654     A.U. after   13 cycles
 SCF Done:  E(RB3LYP) =  -663.794764041     A.U. after   14 cycles
 SCF Done:  E(RB3LYP) =  -663.795257643     A.U. after   13 cycles
 SCF Done:  E(RB3LYP) =  -663.795503387     A.U. after   13 cycles
 SCF Done:  E(RB3LYP) =  -663.792514522     A.U. after   15 cycles
 SCF Done:  E(RB3LYP) =  -663.795443507     A.U. after   13 cycles
 SCF Done:  E(RB3LYP) =  -663.795527771     A.U. after    8 cycles
 SCF Done:  E(RB3LYP) =  -663.797830114     A.U. after    7 cycles
 SCF Done:  E(RB3LYP) =  -663.797825945     A.U. after   10 cycles
 SCF Done:  E(RB3LYP) =  -663.797828922     A.U. after   10 cycles
 SCF Done:  E(RB3LYP) =  -663.797830118     A.U. after    3 cycles
 SCF Done:  E(RB3LYP) =  -663.797830160     A.U. after    8 cycles
 SCF Done:  E(RB3LYP) =  -663.797830174     A.U. after    8 cycles
 Optimization completed.
    -- Stationary point found.
 Normal termination of Gaussian 16 at Wed Feb 24 13:55:27 2021.

 --------------------------------------------------------------------
 #N Geom=AllCheck Guess=TCheck SCRF=Check GenChk RB3LYP/6-31G(d) Freq
 --------------------------------------------------------------------

 Structure from the checkpoint file:  "JID_2331.chk"
 ------------------------------
 CID_21117755_JID_2331_neutraal
 ------------------------------
 Charge =  0 Multiplicity = 1

 SCF Done:  E(RB3LYP) =  -663.797830174     A.U. after    1 cycles

  Exact polarizability:  85.327  -9.883  72.666   1.682  -3.683  69.846
 Approx polarizability: 116.057 -12.664 104.957   1.788  -9.912 123.819

                      1                      2                      3
                      A                      A                      A
 Frequencies --     21.3209                32.0063                47.1028
 Red. masses --      8.8663                 8.5010                 8.9430
 Frc consts  --      0.0024                 0.0051                 0.0117
 IR Inten    --      1.7459                 1.6566                 1.4574

                      4                      5                      6
                      A                      A                      A
 Frequencies --     57.2418                79.1766                93.6682
 Red. masses --      9.4356                10.0140                11.6159
 Frc consts  --      0.0182                 0.0370                 0.0600
 IR Inten    --      1.9403                 0.0725                 0.3712

                      7                      8                      9
                      A                      A                      A
 Frequencies --    104.1946               143.3334               174.1215
 Red. masses --      3.8112                 4.2883                 1.9657
 Frc consts  --      0.0244                 0.0519                 0.0351
 IR Inten    --      2.3903                 1.4210                 0.5964

                     10                     11                     12
                      A                      A                      A
 Frequencies --    247.7087               382.8795               433.9347
 Red. masses --      3.4881                 3.9507                 6.5734
 Frc consts  --      0.1261                 0.3412                 0.7293
 IR Inten    --      8.5515                 0.1157                 3.8483

                     13                     14                     15
                      A                      A                      A
 Frequencies --    508.7577               546.6415               605.3551
 Red. masses --      4.0808                 2.4756                 3.7119
 Frc consts  --      0.6223                 0.4359                 0.8014
 IR Inten    --      7.0268                 6.2941                38.5436

                     16                     17                     18
                      A                      A                      A
 Frequencies --    619.8393               641.9827               643.5843
 Red. masses --      3.4013                12.4245                 1.9752
 Frc consts  --      0.7699                 3.0170                 0.4820
 IR Inten    --    168.9805                29.9287                20.6345

                     19                     20                     21
                      A                      A                      A
 Frequencies --    668.1436               760.0052               810.2756
 Red. masses --      5.9238                 4.4441                 2.4402
 Frc consts  --      1.5581                 1.5124                 0.9439
 IR Inten    --     27.8435                 6.4712                 5.8966

                     22                     23                     24
                      A                      A                      A
 Frequencies --    884.8985               950.3184               994.7767
 Red. masses --      2.9689                 2.8341                 3.1189
 Frc consts  --      1.3697                 1.5080                 1.8185
 IR Inten    --     37.6233                32.3439               148.7965

                     25                     26                     27
                      A                      A                      A
 Frequencies --   1022.6052              1038.9021              1065.2407
 Red. masses --      1.8938                 1.6144                 2.8889
 Frc consts  --      1.1668                 1.0266                 1.9314
 IR Inten    --      8.0201                 0.0124               108.2576

                     28                     29                     30
                      A                      A                      A
 Frequencies --   1124.8269              1165.1461              1213.2745
 Red. masses --      1.8399                 2.7209                 1.8380
 Frc consts  --      1.3716                 2.1764                 1.5941
 IR Inten    --     29.7421               282.7624                26.3808

                     31                     32                     33
                      A                      A                      A
 Frequencies --   1254.1813              1267.4959              1317.5062
 Red. masses --      1.9926                 2.2764                 1.3741
 Frc consts  --      1.8467                 2.1547                 1.4053
 IR Inten    --    119.1529                15.5716                22.3907

                     34                     35                     36
                      A                      A                      A
 Frequencies --   1337.8245              1361.8257              1370.5655
 Red. masses --      1.4688                 1.3602                15.8105
 Frc consts  --      1.5488                 1.4862                17.4982
 IR Inten    --      7.8515                 0.2641                 0.0409

                     37                     38                     39
                      A                      A                      A
 Frequencies --   1390.7991              1447.9402              1499.4628
 Red. masses --      1.3803                 1.1880                 1.0816
 Frc consts  --      1.5731                 1.4675                 1.4328
 IR Inten    --     25.1705                 9.8413                 9.3682

                     40                     41                     42
                      A                      A                      A
 Frequencies --   1510.9736              1530.0654              1837.2375
 Red. masses --      1.5759                 1.0995                 7.4579
 Frc consts  --      2.1198                 1.5165                14.8319
 IR Inten    --     81.4716                 6.3583               431.3146

                     43                     44                     45
                      A                      A                      A
 Frequencies --   1900.5376              2431.1822              2996.8032
 Red. masses --     12.7479                12.8478                 1.0874
 Frc consts  --     27.1295                44.7419                 5.7541
 IR Inten    --    353.6606               431.7805                54.6381

                     46                     47                     48
                      A                      A                      A
 Frequencies --   3072.6632              3095.8516              3138.9377
 Red. masses --      1.0705                 1.0640                 1.0882
 Frc consts  --      5.9547                 6.0081                 6.3170
 IR Inten    --      5.3199                11.3849                14.2143

                     49                     50                     51
                      A                      A                      A
 Frequencies --   3147.1988              3155.1201              3568.1672
 Red. masses --      1.0965                 1.1025                 1.0762
 Frc consts  --      6.3991                 6.4663                 8.0727
 IR Inten    --      2.3210                11.1214                16.5547

 - Thermochemistry -
 -------------------
 Temperature   298.150 Kelvin.  Pressure   1.00000 Atm.
 Atom     1 has atomic number  6 and mass  12.00000

 Molecular mass:   173.03242 amu.
 Principal axes and moments of inertia in atomic units:
                           1         2         3
     Eigenvalues --  1247.837363339.084804053.74493
           X            0.99977  -0.02063   0.00624
           Y            0.02074   0.99964  -0.01696
           Z           -0.00589   0.01709   0.99984
 This molecule is an asymmetric top.
 Rotational symmetry number  1.
 Warning -- assumption of classical behavior for rotation
           may cause significant error
 Rotational temperatures (Kelvin)      0.06941     0.02594     0.02137
 Rotational constants (GHZ):           1.44630     0.54049     0.44520
 Zero-point vibrational energy     363148.0 (Joules/Mol)
                                   86.79445 (Kcal/Mol)
 Warning -- explicit consideration of  16 degrees of freedom as
           vibrations may cause significant error
 Vibrational temperatures:     30.68    46.05    67.77    82.36   113.92
          (Kelvin)            134.77   149.91   206.22   250.52   356.40
                              550.88   624.34   731.99   786.50   870.97
                              891.81   923.67   925.97   961.31  1093.48
                             1165.81  1273.17  1367.30  1431.26  1471.30
                             1494.75  1532.64  1618.38  1676.39  1745.63
                             1804.49  1823.64  1895.60  1924.83  1959.36
                             1971.94  2001.05  2083.26  2157.39  2173.95
                             2201.42  2643.38  2734.45  3497.93  4311.73
                             4420.88  4454.24  4516.23  4528.12  4539.51
                             5133.80

 Zero-point correction=                           0.138316 (Hartree/Particle)
 Thermal correction to Energy=                    0.150847
 Thermal correction to Enthalpy=                  0.151791
 Thermal correction to Gibbs Free Energy=         0.095514
 Sum of electronic and zero-point Energies=           -663.659514
 Sum of electronic and thermal Energies=              -663.646983
 Sum of electronic and thermal Enthalpies=            -663.646039
 Sum of electronic and thermal Free Energies=         -663.702317

                     E (Thermal)             CV                S
                      KCal/Mol        Cal/Mol-Kelvin    Cal/Mol-Kelvin
 Total                   94.658             41.042            118.446
 Electronic               0.000              0.000              0.000
 Translational            0.889              2.981             41.352
 Rotational               0.889              2.981             31.202
 Vibrational             92.881             35.080             45.892
 Vibration     1          0.593              1.985              6.507
 Vibration     2          0.594              1.983              5.701
 Vibration     3          0.595              1.979              4.935
 Vibration     4          0.596              1.975              4.550
 Vibration     5          0.600              1.963              3.911
 Vibration     6          0.603              1.954              3.582
 Vibration     7          0.605              1.946              3.374
 Vibration     8          0.616              1.910              2.759
 Vibration     9          0.627              1.874              2.391
 Vibration    10          0.661              1.767              1.747
 Vibration    11          0.752              1.507              1.028
 Vibration    12          0.795              1.396              0.846
 Vibration    13          0.864              1.231              0.637
 Vibration    14          0.902              1.147              0.551
 Vibration    15          0.964              1.020              0.441
 Vibration    16          0.980              0.990              0.417

 Normal termination of Gaussian 16 at Wed Feb 24 13:59:12 2021.

 ----------------------------------------------------------------------
 # B3LYP/6-311++G(d,p) empiricaldispersion=gd3bj scf=xqc pop=npa geom=c
 heck
 ----------------------------------------------------------------------

 --------------------------------------
 CID_21117755_JID_2331_Energie_neutraal
 --------------------------------------
 Structure from the checkpoint file:  "JID_2331.chk"
 Charge =  0 Multiplicity = 1

 SCF Done:  E(RB3LYP) =  -664.008505995     A.U. after   15 cycles
 Normal termination of Gaussian 16 at Wed Feb 24 14:00:27 2021.

 ----------------------------------------------------------------------
 # B3LYP/6-311++G(d,p) empiricaldispersion=gd3bj scf=xqc pop=npa geom=c
 heck
 ----------------------------------------------------------------------

 ------------------------------------
 CID_21117755_JID_2331_Energie_kation
 ------------------------------------
 Structure from the checkpoint file:  "JID_2331.chk"
 Charge =  1 Multiplicity = 2

 SCF Done:  E(UB3LYP) =  -663.643865929     A.U. after   27 cycles
 Normal termination of Gaussian 16 at Wed Feb 24 14:03:23 2021.
 Gaussian 16:  ES64L-G16RevA.03 25-Dec-2016

 ----------------------------------------------------------------------
 # B3LYP/6-311++G(d,p) empiricaldispersion=gd3bj scf=xqc pop=npa geom=c
 heck
 ----------------------------------------------------------------------

 -----------------------------------
 CID_21117755_JID_2331_Energie_anion
 -----------------------------------
 Structure from the checkpoint file:  "JID_2331.chk"
 Charge = -1 Multiplicity = 2

                         Standard orientation:
 ---------------------------------------------------------------------
 Center     Atomic      Atomic             Coordinates (Angstroms)
 Number     Number       Type             X           Y           Z
 ---------------------------------------------------------------------
      1          6           0        0.768426   -1.447763   -0.130033
      2          6           0        2.089909   -1.277859    0.622460
      3          6           0        2.706833   -0.032306   -0.006112
      4          8           0        1.744030    0.632608   -0.720468
      5          8           0        3.836259    0.364288    0.074604
      6          6           0        0.454395   -0.013911   -0.601189
      7          6           0       -2.821965   -1.032239   -0.095009
      8          8           0       -2.705597   -1.496385    0.971711
      9          8           0       -2.935045   -0.585489   -1.169621
     10          7           0       -0.407803    0.687434    0.305067
     11          6           0       -1.100783    1.825570   -0.049758
     12          8           0       -1.681804    2.539790    0.738638
     13          1           0       -0.042424   -1.861142    0.472824
     14          1           0        0.906939   -2.090488   -1.003991
     15          1           0        1.945453   -1.085961    1.692712
     16          1           0        2.776863   -2.121446    0.534263
     17          1           0        0.002856    0.028063   -1.593253
     18          1           0       -0.278476    0.559476    1.303927
     19          1           0       -1.100219    1.992008   -1.143018
 ---------------------------------------------------------------------

 SCF Done:  E(UB3LYP) =  -664.004046919     A.U. after   30 cycles

 The electronic state is 2-A.
 Alpha  occ. eigenvalues --  -19.10070 -19.10005 -19.07050 -19.01564 -19.01365
 Alpha  occ. eigenvalues --  -14.25447 -10.25791 -10.20511 -10.18787 -10.18226
 Alpha  occ. eigenvalues --  -10.09017 -10.08595  -1.05716  -1.01816  -1.01301
 Alpha  occ. eigenvalues --   -0.96073  -0.93779  -0.84220  -0.70779  -0.63527
 Alpha  occ. eigenvalues --   -0.54865  -0.53571  -0.48402  -0.46354  -0.44203
 Alpha  occ. eigenvalues --   -0.42591  -0.41985  -0.41333  -0.41166  -0.38757
 Alpha  occ. eigenvalues --   -0.37236  -0.36838  -0.34026  -0.32833  -0.32165
 Alpha  occ. eigenvalues --   -0.31032  -0.28453  -0.27183  -0.27090  -0.26746
 Alpha  occ. eigenvalues --   -0.26000  -0.22674  -0.19167  -0.18135  -0.17780
 Alpha  occ. eigenvalues --    0.04356
 Alpha virt. eigenvalues --    0.07233   0.07885   0.08507   0.09068   0.09649
 Alpha virt. eigenvalues --    0.10801   0.11476   0.11856   0.12347   0.12608
 Alpha virt. eigenvalues --    0.13616   0.13849   0.15001   0.15788   0.16224

  Beta  occ. eigenvalues --  -19.10015 -19.09949 -19.07040 -19.01545 -19.01339
  Beta  occ. eigenvalues --  -14.25414 -10.25776 -10.20497 -10.18772 -10.18208
  Beta  occ. eigenvalues --  -10.08967 -10.08529  -1.05570  -1.01676  -1.01265
  Beta  occ. eigenvalues --   -0.96030  -0.93744  -0.84168  -0.70696  -0.63460
  Beta  occ. eigenvalues --   -0.54778  -0.53447  -0.48354  -0.46301  -0.44130
  Beta  occ. eigenvalues --   -0.42502  -0.41953  -0.41210  -0.41038  -0.38677
  Beta  occ. eigenvalues --   -0.37153  -0.36771  -0.33981  -0.32755  -0.32090
  Beta  occ. eigenvalues --   -0.30955  -0.28380  -0.27121  -0.27038  -0.26690
  Beta  occ. eigenvalues --   -0.25915  -0.22605  -0.19093  -0.18087  -0.17748
  Beta virt. eigenvalues --    0.07343   0.08254   0.08494   0.08955   0.09458
  Beta virt. eigenvalues --    0.10131   0.11445   0.12178   0.12288   0.12588
  Beta virt. eigenvalues --    0.12822   0.13787   0.14149   0.15395   0.15968

 Mulliken charges and spin densities:
               1          2
     1  C    1.909233  -2.369165
     2  C    0.041859  -0.269650
     3  C    0.693830  -0.541020
     4  O   -0.050383   0.003909
     5  O   -0.363517   0.034258
     6  C   -1.215894   0.888237
     7  C    0.224574   0.206127
     8  O   -0.123072  -0.073837
     9  O   -0.147962  -0.049801
    10  N    0.167486  -0.247281
    11  C    0.272288  -0.150387
    12  O   -0.333926   0.008617
    13  H   -0.603265   0.778889
    14  H   -0.649799   0.852581
    15  H   -0.467931   0.672355
    16  H   -0.167928   0.372523
    17  H   -0.385508   0.645523
    18  H    0.249680   0.072621
    19  H   -0.049765   0.165500
 Sum of Mulliken charges =  -1.00000   1.00000

 Dipole moment (field-independent basis, Debye):
    X=             -1.7881    Y=              2.7670    Z=             -0.3853  Tot=              3.3169
 Quadrupole moment (field-independent basis, Debye-Ang):
   XX=           -123.8971   YY=           -111.8858   ZZ=            -97.5427
   XY=              2.4925   XZ=              2.0246   YZ=             -4.6129

 Summary of Natural Population Analysis:

                                       Natural Population
                Natural  -----------------------------------------------
    Atom  No    Charge         Core      Valence    Rydberg      Total
 -----------------------------------------------------------------------
      C    1   -0.20876      0.99963     2.19843    0.01071     3.20876
      C    2   -0.24702      0.99960     2.23851    0.00891     3.24702
      C    3    0.41218      0.99970     1.56174    0.02638     2.58782
      O    4   -0.28358      0.99986     3.27656    0.00715     4.28358
      O    5   -0.29086      0.99986     3.28426    0.00674     4.29086
      C    6    0.14407      0.99957     1.83738    0.01897     2.85593
      C    7    0.51234      0.99983     1.46258    0.02525     2.48766
      O    8   -0.25245      0.99986     3.24528    0.00731     4.25245
      O    9   -0.25873      0.99986     3.25139    0.00748     4.25873
      N   10   -0.33124      0.99968     2.82082    0.01073     3.83124
      C   11    0.28270      0.99974     1.69632    0.02124     2.71730
      O   12   -0.30185      0.99988     3.29554    0.00642     4.30185
      H   13    0.11689      0.00000     0.37609    0.00702     0.38311
      H   14    0.11406      0.00000     0.37950    0.00644     0.38594
      H   15    0.11775      0.00000     0.38002    0.00222     0.38225
      H   16    0.12031      0.00000     0.37825    0.00144     0.37969
      H   17    0.10109      0.00000     0.39657    0.00234     0.39891
      H   18    0.19764      0.00000     0.29913    0.00324     0.30236
      H   19    0.05545      0.00000     0.44286    0.00169     0.44455
 =======================================================================
   * Total *   -0.00000     11.99707    32.82124    0.18169    45.00000

 Normal termination of Gaussian 16 at Wed Feb 24 14:06:38 2021.
