 Gaussian 16, Revision A.03,

 -----------------------------------------------------------
 # opt freq B3LYP/6-31G(d) empiricaldispersion=gd3bj scf=xqc
 -----------------------------------------------------------

 -------------------------------
 CID_107354831_JID_9402_neutraal
 -------------------------------
 Symbolic Z-matrix:
 Charge =  0 Multiplicity = 1

 SCF Done:  E(RB3LYP) =  -1163.00084292     A.U. after   15 cycles
 SCF Done:  E(RB3LYP) =  -1163.00713927     A.U. after   13 cycles
 SCF Done:  E(RB3LYP) =  -1163.00916362     A.U. after   14 cycles
 SCF Done:  E(RB3LYP) =  -1163.01011739     A.U. after   13 cycles
 SCF Done:  E(RB3LYP) =  -1163.01166768     A.U. after   14 cycles
 SCF Done:  E(RB3LYP) =  -1163.01301064     A.U. after   13 cycles
 SCF Done:  E(RB3LYP) =  -1163.01358274     A.U. after   14 cycles
 SCF Done:  E(RB3LYP) =  -1163.01370855     A.U. after   13 cycles
 SCF Done:  E(RB3LYP) =  -1163.01404917     A.U. after   13 cycles
 SCF Done:  E(RB3LYP) =  -1163.01414204     A.U. after   11 cycles
 SCF Done:  E(RB3LYP) =  -1163.01415419     A.U. after   11 cycles
 SCF Done:  E(RB3LYP) =  -1163.01415693     A.U. after   11 cycles
 SCF Done:  E(RB3LYP) =  -1163.01415788     A.U. after   10 cycles
 SCF Done:  E(RB3LYP) =  -1163.01415801     A.U. after    8 cycles
 Optimization completed.
    -- Stationary point found.
 Normal termination of Gaussian 16 at Mon Dec 14 13:27:18 2020.

 --------------------------------------------------------------------
 #N Geom=AllCheck Guess=TCheck SCRF=Check GenChk RB3LYP/6-31G(d) Freq
 --------------------------------------------------------------------

 Structure from the checkpoint file:  "JID_9402.chk"
 -------------------------------
 CID_107354831_JID_9402_neutraal
 -------------------------------
 Charge =  0 Multiplicity = 1

 SCF Done:  E(RB3LYP) =  -1163.01415801     A.U. after    1 cycles

  Exact polarizability: 253.635   4.661 236.468   0.004   0.003  85.190
 Approx polarizability: 395.596  31.043 412.790   0.010   0.009 131.081

                      1                      2                      3
                      A                      A                      A
 Frequencies --     22.3337                38.4344                63.7877
 Red. masses --      4.3862                 3.6938                 4.2953
 Frc consts  --      0.0013                 0.0032                 0.0103
 IR Inten    --      0.0003                 0.1330                 2.0446

                      4                      5                      6
                      A                      A                      A
 Frequencies --     81.0553                96.6688               139.3855
 Red. masses --      4.6831                 4.5463                 5.5096
 Frc consts  --      0.0181                 0.0250                 0.0631
 IR Inten    --      0.1948                 5.4715                 3.8257

                      7                      8                      9
                      A                      A                      A
 Frequencies --    187.1427               198.0762               199.0060
 Red. masses --      3.9603                 9.8498                 4.6722
 Frc consts  --      0.0817                 0.2277                 0.1090
 IR Inten    --      2.4465                 9.5764                 0.9588

                     10                     11                     12
                      A                      A                      A
 Frequencies --    215.9587               226.0191               258.4682
 Red. masses --      4.1162                 1.0696                 1.1283
 Frc consts  --      0.1131                 0.0322                 0.0444
 IR Inten    --      0.4295                 0.0549                 0.2680

                     13                     14                     15
                      A                      A                      A
 Frequencies --    288.2560               300.0300               313.5073
 Red. masses --      2.9408                 3.6568                 4.8357
 Frc consts  --      0.1440                 0.1939                 0.2800
 IR Inten    --      1.5612                 0.1220                 1.0888

                     16                     17                     18
                      A                      A                      A
 Frequencies --    316.0950               353.6713               434.4716
 Red. masses --      4.1637                 5.6922                 3.9854
 Frc consts  --      0.2451                 0.4195                 0.4432
 IR Inten    --      0.5877                 2.3301                 1.8530

                     19                     20                     21
                      A                      A                      A
 Frequencies --    438.9584               473.4723               473.8524
 Red. masses --      3.3026                 4.9021                 5.2623
 Frc consts  --      0.3749                 0.6475                 0.6962
 IR Inten    --      4.6696                 0.9324                 3.8683

                     22                     23                     24
                      A                      A                      A
 Frequencies --    529.9848               531.4831               561.2203
 Red. masses --      4.0881                 6.7996                 5.8592
 Frc consts  --      0.6765                 1.1317                 1.0873
 IR Inten    --      0.1364                 1.6528                 3.9151

                     25                     26                     27
                      A                      A                      A
 Frequencies --    587.4115               602.6677               654.8652
 Red. masses --      3.7962                 4.1002                 4.7367
 Frc consts  --      0.7718                 0.8774                 1.1968
 IR Inten    --      7.2831                 5.9917                 1.9830

                     28                     29                     30
                      A                      A                      A
 Frequencies --    678.7014               694.3896               699.8551
 Red. masses --      4.6651                 5.1000                 1.7968
 Frc consts  --      1.2661                 1.4489                 0.5185
 IR Inten    --      1.0687                 3.3584                22.7889

                     31                     32                     33
                      A                      A                      A
 Frequencies --    750.3561               757.8124               763.6348
 Red. masses --      3.1665                 6.7200                 1.9184
 Frc consts  --      1.0504                 2.2737                 0.6591
 IR Inten    --     19.9059                 6.7989                 7.7437

                     34                     35                     36
                      A                      A                      A
 Frequencies --    797.7442               817.6012               823.5910
 Red. masses --      6.2013                 1.4094                 5.0682
 Frc consts  --      2.3252                 0.5551                 2.0255
 IR Inten    --     87.3388                 1.6107                11.5745

                     37                     38                     39
                      A                      A                      A
 Frequencies --    830.0599               896.9454               900.6113
 Red. masses --      1.8874                 2.5673                 1.2869
 Frc consts  --      0.7662                 1.2169                 0.6150
 IR Inten    --     41.1553                 2.6085                 2.1915

                     40                     41                     42
                      A                      A                      A
 Frequencies --    927.9278               943.8544               951.4139
 Red. masses --      4.7437                 1.3471                 1.1600
 Frc consts  --      2.4066                 0.7071                 0.6186
 IR Inten    --      2.8851                 0.0218                 1.2831

                     43                     44                     45
                      A                      A                      A
 Frequencies --    966.1910               998.6084              1020.8833
 Red. masses --      1.5175                 1.2967                 1.7121
 Frc consts  --      0.8347                 0.7619                 1.0513
 IR Inten    --      0.0008                 1.9215                 0.0845

                     46                     47                     48
                      A                      A                      A
 Frequencies --   1040.7631              1068.1196              1100.7817
 Red. masses --      4.9295                 4.7593                 1.8376
 Frc consts  --      3.1460                 3.1992                 1.3119
 IR Inten    --     11.1936                14.7269                 3.4645

                     49                     50                     51
                      A                      A                      A
 Frequencies --   1112.4918              1133.7091              1156.0758
 Red. masses --      1.4095                 1.8858                 1.6679
 Frc consts  --      1.0278                 1.4280                 1.3134
 IR Inten    --      4.8071                19.2162                10.1623

                     52                     53                     54
                      A                      A                      A
 Frequencies --   1159.5884              1169.3756              1215.9824
 Red. masses --      2.0783                 1.4996                 1.8736
 Frc consts  --      1.6465                 1.2082                 1.6323
 IR Inten    --      4.8022                53.6986                10.5528

                     55                     56                     57
                      A                      A                      A
 Frequencies --   1233.7943              1261.7459              1296.3892
 Red. masses --      1.6170                 1.7972                 3.9471
 Frc consts  --      1.4503                 1.6857                 3.9084
 IR Inten    --      2.7710                 8.3083                27.4011

                     58                     59                     60
                      A                      A                      A
 Frequencies --   1320.9813              1362.5382              1363.5175
 Red. masses --      3.0798                 1.3967                 7.2650
 Frc consts  --      3.1664                 1.5277                 7.9580
 IR Inten    --      7.7484                 2.7619                23.5227

                     61                     62                     63
                      A                      A                      A
 Frequencies --   1370.3758              1388.8786              1403.4067
 Red. masses --      3.7673                 2.3392                 2.1554
 Frc consts  --      4.1683                 2.6585                 2.5012
 IR Inten    --      4.0551                 6.5659                16.5471

                     64                     65                     66
                      A                      A                      A
 Frequencies --   1428.9562              1437.3321              1448.4673
 Red. masses --      1.2629                 2.2964                 1.3318
 Frc consts  --      1.5193                 2.7952                 1.6463
 IR Inten    --      8.9465                21.5231                23.5082

                     67                     68                     69
                      A                      A                      A
 Frequencies --   1467.9765              1488.9071              1501.9297
 Red. masses --      1.4145                 4.2337                 3.4434
 Frc consts  --      1.7959                 5.5298                 4.5766
 IR Inten    --      7.6051               108.6964                32.2461

                     70                     71                     72
                      A                      A                      A
 Frequencies --   1510.5787              1520.9790              1525.7142
 Red. masses --      1.0417                 1.0480                 1.5792
 Frc consts  --      1.4005                 1.4284                 2.1659
 IR Inten    --      0.6766                 0.4491                 8.4589

                     73                     74                     75
                      A                      A                      A
 Frequencies --   1526.9994              1543.3699              1572.2939
 Red. masses --      1.6431                 1.0905                 5.3383
 Frc consts  --      2.2573                 1.5305                 7.7753
 IR Inten    --     23.8857                 2.6367                80.1044

                     76                     77                     78
                      A                      A                      A
 Frequencies --   1574.9140              1624.9262              1647.4236
 Red. masses --      4.9730                 6.2260                 5.2021
 Frc consts  --      7.2675                 9.6855                 8.3184
 IR Inten    --     36.7841                 4.6671                 1.0584

                     79                     80                     81
                      A                      A                      A
 Frequencies --   1783.9355              2898.3216              3063.2680
 Red. masses --      9.5721                 1.0820                 1.0347
 Frc consts  --     17.9480                 5.3552                 5.7205
 IR Inten    --    256.3216               177.1666                18.6033

                     82                     83                     84
                      A                      A                      A
 Frequencies --   3066.9811              3075.4992              3134.4267
 Red. masses --      1.0364                 1.0845                 1.1035
 Frc consts  --      5.7438                 6.0437                 6.3878
 IR Inten    --     14.1429                20.7223                11.5363

                     85                     86                     87
                      A                      A                      A
 Frequencies --   3137.5951              3148.7336              3154.0172
 Red. masses --      1.1033                 1.1037                 1.1026
 Frc consts  --      6.3995                 6.4470                 6.4624
 IR Inten    --     36.2524                 4.2607                27.0778

                     88                     89                     90
                      A                      A                      A
 Frequencies --   3187.3112              3206.1241              3217.8680
 Red. masses --      1.0871                 1.0945                 1.0901
 Frc consts  --      6.5071                 6.6285                 6.6505
 IR Inten    --      7.3503                29.0555                10.0973

                     91                     92                     93
                      A                      A                      A
 Frequencies --   3234.6349              3257.2719              3269.5238
 Red. masses --      1.0928                 1.0979                 1.0975
 Frc consts  --      6.7365                 6.8632                 6.9121
 IR Inten    --     52.7086                 5.2292                 0.0956

 - Thermochemistry -
 -------------------
 Temperature   298.150 Kelvin.  Pressure   1.00000 Atm.
 Atom     1 has atomic number  6 and mass  12.00000

 Molecular mass:   270.08268 amu.
 Principal axes and moments of inertia in atomic units:
                           1         2         3
     Eigenvalues --  3951.047875844.155099401.38690
           X            0.99856   0.05359  -0.00000
           Y           -0.05359   0.99856  -0.00000
           Z            0.00000   0.00000   1.00000
 This molecule is an asymmetric top.
 Rotational symmetry number  1.
 Warning -- assumption of classical behavior for rotation
           may cause significant error
 Rotational temperatures (Kelvin)      0.02192     0.01482     0.00921
 Rotational constants (GHZ):           0.45678     0.30881     0.19197
 Zero-point vibrational energy     685587.4 (Joules/Mol)
                                  163.85932 (Kcal/Mol)
 Warning -- explicit consideration of  26 degrees of freedom as
           vibrations may cause significant error
 Vibrational temperatures:     32.13    55.30    91.78   116.62   139.08
          (Kelvin)            200.54   269.26   284.99   286.33   310.72
                              325.19   371.88   414.74   431.68   451.07
                              454.79   508.85   625.11   631.56   681.22
                              681.77   762.53   764.69   807.47   845.15
                              867.10   942.20   976.50   999.07  1006.94
                             1079.60  1090.32  1098.70  1147.78  1176.35
                             1184.96  1194.27  1290.50  1295.78  1335.08
                             1358.00  1368.87  1390.13  1436.77  1468.82
                             1497.43  1536.79  1583.78  1600.63  1631.15
                             1663.34  1668.39  1682.47  1749.53  1775.15
                             1815.37  1865.21  1900.60  1960.39  1961.80
                             1971.67  1998.29  2019.19  2055.95  2068.00
                             2084.02  2112.09  2142.21  2160.94  2173.39
                             2188.35  2195.16  2197.01  2220.57  2262.18
                             2265.95  2337.91  2370.28  2566.69  4170.04
                             4407.36  4412.70  4424.96  4509.74  4514.30
                             4530.33  4537.93  4585.83  4612.90  4629.79
                             4653.92  4686.49  4704.12

 Zero-point correction=                           0.261126 (Hartree/Particle)
 Thermal correction to Energy=                    0.277678
 Thermal correction to Enthalpy=                  0.278622
 Thermal correction to Gibbs Free Energy=         0.215931
 Sum of electronic and zero-point Energies=          -1162.753032
 Sum of electronic and thermal Energies=             -1162.736480
 Sum of electronic and thermal Enthalpies=           -1162.735536
 Sum of electronic and thermal Free Energies=        -1162.798227

                     E (Thermal)             CV                S
                      KCal/Mol        Cal/Mol-Kelvin    Cal/Mol-Kelvin
 Total                  174.245             64.075            131.944
 Electronic               0.000              0.000              0.000
 Translational            0.889              2.981             42.680
 Rotational               0.889              2.981             33.739
 Vibrational            172.468             58.114             55.525
 Vibration     1          0.593              1.985              6.415
 Vibration     2          0.594              1.982              5.338
 Vibration     3          0.597              1.972              4.336
 Vibration     4          0.600              1.962              3.865
 Vibration     5          0.603              1.952              3.520
 Vibration     6          0.615              1.914              2.812
 Vibration     7          0.632              1.857              2.256
 Vibration     8          0.637              1.843              2.151
 Vibration     9          0.637              1.841              2.142
 Vibration    10          0.645              1.817              1.993
 Vibration    11          0.650              1.801              1.910
 Vibration    12          0.667              1.748              1.672
 Vibration    13          0.685              1.696              1.484
 Vibration    14          0.693              1.674              1.417
 Vibration    15          0.701              1.648              1.344
 Vibration    16          0.703              1.643              1.330
 Vibration    17          0.730              1.568              1.150
 Vibration    18          0.795              1.395              0.844
 Vibration    19          0.799              1.385              0.830
 Vibration    20          0.830              1.309              0.728
 Vibration    21          0.831              1.308              0.727
 Vibration    22          0.885              1.184              0.587
 Vibration    23          0.886              1.180              0.584
 Vibration    24          0.917              1.115              0.521
 Vibration    25          0.945              1.059              0.472
 Vibration    26          0.961              1.026              0.445

 Optimization completed.
    -- Stationary point found.
 Normal termination of Gaussian 16 at Mon Dec 14 13:44:20 2020.

 ----------------------------------------------------------------------
 # B3LYP/6-311++G(d,p) empiricaldispersion=gd3bj scf=xqc pop=npa geom=c
 heck
 ----------------------------------------------------------------------

 ---------------------------------------
 CID_107354831_JID_9402_Energie_neutraal
 ---------------------------------------
 Structure from the checkpoint file:  "JID_9402.chk"
 Charge =  0 Multiplicity = 1

 SCF Done:  E(RB3LYP) =  -1163.23559463     A.U. after   16 cycles
 Normal termination of Gaussian 16 at Mon Dec 14 13:52:21 2020.

 ----------------------------------------------------------------------
 # B3LYP/6-311++G(d,p) empiricaldispersion=gd3bj scf=xqc pop=npa geom=c
 heck
 ----------------------------------------------------------------------

 -------------------------------------
 CID_107354831_JID_9402_Energie_kation
 -------------------------------------
 Structure from the checkpoint file:  "JID_9402.chk"
 Charge =  1 Multiplicity = 2

 SCF Done:  E(UB3LYP) =  -1162.96187438     A.U. after   25 cycles
 Normal termination of Gaussian 16 at Mon Dec 14 14:10:47 2020.
 Gaussian 16:  ES64L-G16RevA.03 25-Dec-2016

 ----------------------------------------------------------------------
 # B3LYP/6-311++G(d,p) empiricaldispersion=gd3bj scf=xqc pop=npa geom=c
 heck
 ----------------------------------------------------------------------

 ------------------------------------
 CID_107354831_JID_9402_Energie_anion
 ------------------------------------
 Structure from the checkpoint file:  "JID_9402.chk"
 Charge = -1 Multiplicity = 2

                         Standard orientation:
 ---------------------------------------------------------------------
 Center     Atomic      Atomic             Coordinates (Angstroms)
 Number     Number       Type             X           Y           Z
 ---------------------------------------------------------------------
      1          6           0       -3.292361   -2.007570   -1.272801
      2          6           0       -3.456153   -1.174580    0.000015
      3          6           0       -3.292534   -2.007040    1.273204
      4          7           0       -2.487450   -0.070973   -0.000159
      5          6           0       -2.713233    1.250274   -0.000119
      6          6           0       -1.474092    1.894921    0.000174
      7          6           0       -0.514779    0.810600   -0.000030
      8          7           0       -1.164916   -0.355177   -0.000229
      9          6           0        0.951674    0.776687    0.000009
     10          6           0        1.711145    1.952462    0.000071
     11          6           0        3.111522    1.922229    0.000195
     12          6           0        3.796901    0.718023    0.000170
     13          6           0        3.073848   -0.485979    0.000066
     14          6           0        1.655166   -0.453395    0.000048
     15         16           0        1.002622   -2.090119   -0.000107
     16          6           0        2.618327   -2.767661   -0.000016
     17          6           0        3.595448   -1.828136   -0.000091
     18          6           0       -1.423609    3.350137   -0.000101
     19          8           0       -0.448559    4.084964   -0.000194
     20          1           0       -2.293008   -2.450251   -1.305615
     21          1           0       -3.426456   -1.388476   -2.165328
     22          1           0       -4.035370   -2.811277   -1.290396
     23          1           0       -4.438358   -0.689243   -0.000158
     24          1           0       -2.293181   -2.449700    1.306329
     25          1           0       -3.426744   -1.387565    2.165452
     26          1           0       -4.035548   -2.810735    1.291047
     27          1           0       -3.713325    1.661164   -0.000040
     28          1           0        1.193970    2.904115   -0.000345
     29          1           0        3.658537    2.860362    0.000306
     30          1           0        4.883339    0.693016    0.000238
     31          1           0        2.739154   -3.843515    0.000001
     32          1           0        4.656939   -2.051035   -0.000114
     33          1           0       -2.440477    3.802541   -0.000171
 ---------------------------------------------------------------------

 SCF Done:  E(UB3LYP) =  -1163.24359601     A.U. after   33 cycles
 SCF Done:  E(UB3LYP) =  -1163.24359601     a.u. after    1 cycles

 The electronic state is 2-A.
 Alpha  occ. eigenvalues --  -88.74145 -18.93449 -14.27075 -14.18838 -10.13184
 Alpha  occ. eigenvalues --  -10.08065 -10.07811 -10.07695 -10.07695 -10.06993
 Alpha  occ. eigenvalues --  -10.06751 -10.05974 -10.05149 -10.04693 -10.04183
 Alpha  occ. eigenvalues --  -10.03482 -10.03056 -10.02781 -10.01401  -7.82655
 Alpha  occ. eigenvalues --   -5.78969  -5.78589  -5.78215  -0.92969  -0.87137
 Alpha  occ. eigenvalues --   -0.75938  -0.74521  -0.69293  -0.68109  -0.65114
 Alpha  occ. eigenvalues --   -0.62653  -0.60728  -0.58903  -0.58055  -0.52961
 Alpha  occ. eigenvalues --   -0.51938  -0.47445  -0.46133  -0.44584  -0.43275
 Alpha  occ. eigenvalues --   -0.40502  -0.39801  -0.37019  -0.36033  -0.35863
 Alpha  occ. eigenvalues --   -0.34351  -0.33207  -0.32648  -0.30885  -0.30562
 Alpha  occ. eigenvalues --   -0.29681  -0.29665  -0.28518  -0.28225  -0.27133
 Alpha  occ. eigenvalues --   -0.26361  -0.26259  -0.25880  -0.24988  -0.23560
 Alpha  occ. eigenvalues --   -0.23331  -0.21173  -0.20279  -0.20241  -0.17285
 Alpha  occ. eigenvalues --   -0.16015  -0.12673  -0.12363  -0.10422  -0.09492
 Alpha  occ. eigenvalues --   -0.08229   0.04628
 Alpha virt. eigenvalues --    0.06249   0.08093   0.08611   0.08703   0.09264
 Alpha virt. eigenvalues --    0.09488   0.10200   0.10942   0.10959   0.11223
 Alpha virt. eigenvalues --    0.12265   0.12394   0.13699   0.13743   0.13894

  Beta  occ. eigenvalues --  -88.74152 -18.92937 -14.27172 -14.18675 -10.13181
  Beta  occ. eigenvalues --  -10.07937 -10.07698 -10.07698 -10.07521 -10.06961
  Beta  occ. eigenvalues --  -10.06696 -10.05760 -10.05110 -10.04731 -10.04120
  Beta  occ. eigenvalues --  -10.03470 -10.03108 -10.02500 -10.01225  -7.82661
  Beta  occ. eigenvalues --   -5.78975  -5.78595  -5.78232  -0.92893  -0.86209
  Beta  occ. eigenvalues --   -0.75804  -0.74443  -0.69091  -0.67871  -0.64827
  Beta  occ. eigenvalues --   -0.62504  -0.60735  -0.58749  -0.57866  -0.52646
  Beta  occ. eigenvalues --   -0.51412  -0.47178  -0.45956  -0.44454  -0.43145
  Beta  occ. eigenvalues --   -0.40385  -0.39514  -0.36927  -0.35939  -0.35810
  Beta  occ. eigenvalues --   -0.34254  -0.33063  -0.32456  -0.30808  -0.30384
  Beta  occ. eigenvalues --   -0.29528  -0.29434  -0.28390  -0.27995  -0.26879
  Beta  occ. eigenvalues --   -0.26328  -0.25980  -0.25780  -0.24771  -0.23238
  Beta  occ. eigenvalues --   -0.21316  -0.21031  -0.20192  -0.19622  -0.16508
  Beta  occ. eigenvalues --   -0.15805  -0.11965  -0.11369  -0.09954  -0.09058
  Beta  occ. eigenvalues --   -0.07334
  Beta virt. eigenvalues --    0.06228   0.08069   0.08587   0.08678   0.09471
  Beta virt. eigenvalues --    0.09715   0.10174   0.10929   0.10985   0.11192
  Beta virt. eigenvalues --    0.11285   0.12373   0.12837   0.13726   0.13730

 Mulliken charges and spin densities:
               1          2
     1  C   -0.448317  -0.011843
     2  C   -0.149047   0.033385
     3  C   -0.448910  -0.011545
     4  N    0.667620  -0.030045
     5  C   -0.746277   0.096338
     6  C    0.798840   0.018807
     7  C   -0.389653   0.131824
     8  N   -0.119726   0.063825
     9  C    1.039658   0.016063
    10  C   -0.444032   0.143714
    11  C   -0.682895  -0.040579
    12  C   -0.593105   0.227467
    13  C    0.271988  -0.043706
    14  C    0.010786   0.029418
    15  S   -0.352980  -0.010538
    16  C   -0.145839   0.037327
    17  C   -0.148557   0.032145
    18  C   -0.597940   0.213394
    19  O   -0.376587   0.163805
    20  H    0.171399  -0.000884
    21  H    0.140911   0.003110
    22  H    0.112102  -0.000171
    23  H    0.125060  -0.001190
    24  H    0.171319  -0.000876
    25  H    0.140948   0.003063
    26  H    0.112110  -0.000166
    27  H    0.137256  -0.006856
    28  H    0.207129  -0.015180
    29  H    0.131624   0.002294
    30  H    0.086364  -0.018526
    31  H    0.194117  -0.001738
    32  H    0.107649  -0.002074
    33  H    0.016987  -0.020061
 Sum of Mulliken charges =  -1.00000   1.00000

 Dipole moment (field-independent basis, Debye):
    X=             -4.8609    Y=             -7.3941    Z=              0.0004  Tot=              8.8488
 Quadrupole moment (field-independent basis, Debye-Ang):
   XX=           -132.5625   YY=           -164.3237   ZZ=           -130.4327
   XY=              3.8605   XZ=             -0.0019   YZ=             -0.0007

 Summary of Natural Population Analysis:

                                       Natural Population
                Natural  -----------------------------------------------
    Atom  No    Charge         Core      Valence    Rydberg      Total
 -----------------------------------------------------------------------
      C    1   -0.28686      0.99960     2.28214    0.00512     3.28686
      C    2    0.00048      0.99963     1.99044    0.00945     2.99952
      C    3   -0.28686      0.99960     2.28214    0.00512     3.28686
      N    4   -0.12613      0.99964     2.61065    0.01584     3.62613
      C    5    0.02953      0.99954     1.96072    0.01021     2.97047
      C    6   -0.10754      0.99949     2.09927    0.00878     3.10754
      C    7    0.12943      0.99947     1.85729    0.01382     2.87057
      N    8   -0.15304      0.99968     2.64067    0.01269     3.65304
      C    9   -0.03708      0.99936     2.02764    0.01008     3.03708
      C   10   -0.05026      0.99946     2.04252    0.00828     3.05026
      C   11   -0.12433      0.99960     2.11549    0.00924     3.12433
      C   12   -0.04404      0.99953     2.03567    0.00884     3.04404
      C   13   -0.06540      0.99948     2.05634    0.00958     3.06540
      C   14   -0.06897      0.99939     2.05913    0.01046     3.06897
      S   15    0.19360      4.99947     2.78426    0.02267     7.80640
      C   16   -0.20086      0.99956     2.18946    0.01184     3.20086
      C   17   -0.10710      0.99938     2.09805    0.00967     3.10710
      C   18    0.23493      0.99968     1.74483    0.02056     2.76507
      O   19   -0.25006      0.99988     3.24224    0.00795     4.25006
      H   20    0.11230      0.00000     0.38647    0.00123     0.38770
      H   21    0.10128      0.00000     0.39770    0.00102     0.39872
      H   22    0.09184      0.00000     0.40698    0.00118     0.40816
      H   23    0.09120      0.00000     0.40713    0.00167     0.40880
      H   24    0.11229      0.00000     0.38648    0.00123     0.38771
      H   25    0.10128      0.00000     0.39770    0.00102     0.39872
      H   26    0.09184      0.00000     0.40698    0.00118     0.40816
      H   27    0.09466      0.00000     0.40415    0.00119     0.40534
      H   28    0.12167      0.00000     0.37618    0.00215     0.37833
      H   29    0.09223      0.00000     0.40667    0.00110     0.40777
      H   30    0.08709      0.00000     0.41133    0.00158     0.41291
      H   31    0.09874      0.00000     0.40014    0.00112     0.40126
      H   32    0.09681      0.00000     0.40191    0.00129     0.40319
      H   33    0.02742      0.00000     0.46922    0.00336     0.47258
 =======================================================================
   * Total *    0.00009     22.99142    47.77798    0.23051    70.99991

 Normal termination of Gaussian 16 at Mon Dec 14 14:35:01 2020.
