 Gaussian 16, Revision A.03,

 -----------------------------------------------------------
 # opt freq B3LYP/6-31G(d) empiricaldispersion=gd3bj scf=xqc
 -----------------------------------------------------------

 -------------------------------
 CID_108115370_JID_9779_neutraal
 -------------------------------
 Symbolic Z-matrix:
 Charge =  0 Multiplicity = 1

 SCF Done:  E(RB3LYP) =  -769.456199435     A.U. after   14 cycles
 SCF Done:  E(RB3LYP) =  -769.462516478     A.U. after   12 cycles
 SCF Done:  E(RB3LYP) =  -769.463143977     A.U. after   12 cycles
 SCF Done:  E(RB3LYP) =  -769.463813653     A.U. after   12 cycles
 SCF Done:  E(RB3LYP) =  -769.463996150     A.U. after   11 cycles
 SCF Done:  E(RB3LYP) =  -769.464063905     A.U. after   11 cycles
 SCF Done:  E(RB3LYP) =  -769.464095235     A.U. after   11 cycles
 SCF Done:  E(RB3LYP) =  -769.464109057     A.U. after   11 cycles
 SCF Done:  E(RB3LYP) =  -769.464115903     A.U. after   10 cycles
 SCF Done:  E(RB3LYP) =  -769.464122464     A.U. after   10 cycles
 SCF Done:  E(RB3LYP) =  -769.464123747     A.U. after    9 cycles
 SCF Done:  E(RB3LYP) =  -769.464123962     A.U. after    7 cycles
 Optimization completed.
    -- Stationary point found.
 Normal termination of Gaussian 16 at Sun Dec 13 12:39:40 2020.

 --------------------------------------------------------------------
 #N Geom=AllCheck Guess=TCheck SCRF=Check GenChk RB3LYP/6-31G(d) Freq
 --------------------------------------------------------------------

 Structure from the checkpoint file:  "JID_9779.chk"
 -------------------------------
 CID_108115370_JID_9779_neutraal
 -------------------------------
 Charge =  0 Multiplicity = 1

 SCF Done:  E(RB3LYP) =  -769.464123962     A.U. after    1 cycles

  Exact polarizability: 251.416  18.931 169.671  15.227  -7.771 148.199
 Approx polarizability: 349.490  29.870 263.122  32.204 -24.470 254.529

                      1                      2                      3
                      A                      A                      A
 Frequencies --     22.2260                46.0116                59.6554
 Red. masses --      3.9241                 4.1395                 3.8639
 Frc consts  --      0.0011                 0.0052                 0.0081
 IR Inten    --      0.1800                 0.2996                 0.1546

                      4                      5                      6
                      A                      A                      A
 Frequencies --    102.5846               123.0961               137.1191
 Red. masses --      2.5392                 2.9903                 3.1219
 Frc consts  --      0.0157                 0.0267                 0.0346
 IR Inten    --      0.0409                 0.3285                 0.1135

                      7                      8                      9
                      A                      A                      A
 Frequencies --    182.2548               205.5797               228.5757
 Red. masses --      1.1238                 3.8877                 3.3170
 Frc consts  --      0.0220                 0.0968                 0.1021
 IR Inten    --      1.2046                 0.6270                 0.1963

                     10                     11                     12
                      A                      A                      A
 Frequencies --    234.7291               276.6514               293.3884
 Red. masses --      3.6570                 3.6278                 2.7254
 Frc consts  --      0.1187                 0.1636                 0.1382
 IR Inten    --      2.0563                 8.1494                 5.3311

                     13                     14                     15
                      A                      A                      A
 Frequencies --    306.4940               313.6091               320.0813
 Red. masses --      2.7527                 2.3098                 2.1077
 Frc consts  --      0.1524                 0.1338                 0.1272
 IR Inten    --      1.7473                 1.6864                 1.5498

                     16                     17                     18
                      A                      A                      A
 Frequencies --    382.7789               430.3704               444.2869
 Red. masses --      1.4085                 3.0969                 3.2283
 Frc consts  --      0.1216                 0.3380                 0.3754
 IR Inten    --     30.3413                 6.6437                 1.9150

                     19                     20                     21
                      A                      A                      A
 Frequencies --    469.3797               482.1729               509.4728
 Red. masses --      3.9657                 3.2652                 3.6242
 Frc consts  --      0.5148                 0.4473                 0.5542
 IR Inten    --      0.9423                 5.8048                 0.7099

                     22                     23                     24
                      A                      A                      A
 Frequencies --    522.4634               528.6141               540.1336
 Red. masses --      3.2067                 3.5181                 4.0358
 Frc consts  --      0.5157                 0.5792                 0.6937
 IR Inten    --     18.6205                11.8639                 6.5519

                     25                     26                     27
                      A                      A                      A
 Frequencies --    562.5805               577.3604               594.0846
 Red. masses --      3.1496                 4.8258                 2.5299
 Frc consts  --      0.5873                 0.9478                 0.5261
 IR Inten    --     13.7959                 1.5651                 0.8657

                     28                     29                     30
                      A                      A                      A
 Frequencies --    615.7932               663.0607               689.3302
 Red. masses --      3.4482                 3.4523                 2.8137
 Frc consts  --      0.7704                 0.8943                 0.7877
 IR Inten    --      7.1668                13.6301                 5.9866

                     31                     32                     33
                      A                      A                      A
 Frequencies --    722.5649               724.4624               754.3503
 Red. masses --      2.5588                 2.9065                 2.0345
 Frc consts  --      0.7871                 0.8988                 0.6821
 IR Inten    --     49.8632                35.6544                44.2521

                     34                     35                     36
                      A                      A                      A
 Frequencies --    775.4314               794.3967               810.7188
 Red. masses --      1.2795                 1.7247                 3.1965
 Frc consts  --      0.4533                 0.6413                 1.2379
 IR Inten    --     76.1978                76.3052                54.0400

                     37                     38                     39
                      A                      A                      A
 Frequencies --    834.0987               852.3043               860.1865
 Red. masses --      2.3042                 1.6980                 3.0257
 Frc consts  --      0.9445                 0.7267                 1.3191
 IR Inten    --     52.1108                 3.9232                25.0658

                     40                     41                     42
                      A                      A                      A
 Frequencies --    881.8357               886.7948               895.8550
 Red. masses --      1.5988                 2.0682                 1.3814
 Frc consts  --      0.7325                 0.9583                 0.6532
 IR Inten    --      3.2424                 0.4558                 0.7217

                     43                     44                     45
                      A                      A                      A
 Frequencies --    924.9159               934.2379               943.8332
 Red. masses --      2.4214                 1.4395                 1.2524
 Frc consts  --      1.2204                 0.7402                 0.6573
 IR Inten    --      5.6697                 1.0946                 2.7294

                     46                     47                     48
                      A                      A                      A
 Frequencies --    957.3667               958.8449               994.6420
 Red. masses --      1.3660                 2.1314                 2.3104
 Frc consts  --      0.7377                 1.1546                 1.3467
 IR Inten    --      1.7284                 6.9829                 3.0532

                     49                     50                     51
                      A                      A                      A
 Frequencies --   1032.0845              1062.2970              1072.4398
 Red. masses --      1.6502                 2.7395                 1.4747
 Frc consts  --      1.0357                 1.8214                 0.9993
 IR Inten    --      5.7816                 3.8624                 1.3773

                     52                     53                     54
                      A                      A                      A
 Frequencies --   1097.5224              1116.2363              1118.6794
 Red. masses --      1.9565                 1.8765                 1.9446
 Frc consts  --      1.3885                 1.3775                 1.4338
 IR Inten    --      2.6974                 1.5381                 6.8174

                     55                     56                     57
                      A                      A                      A
 Frequencies --   1122.7159              1171.0717              1184.1148
 Red. masses --      1.7035                 1.1697                 1.2091
 Frc consts  --      1.2651                 0.9451                 0.9989
 IR Inten    --      9.4104                 0.3128                17.9015

                     58                     59                     60
                      A                      A                      A
 Frequencies --   1194.7503              1206.0141              1209.8684
 Red. masses --      1.2420                 1.5110                 1.7743
 Frc consts  --      1.0446                 1.2949                 1.5302
 IR Inten    --      1.4821                 0.0728                30.0578

                     61                     62                     63
                      A                      A                      A
 Frequencies --   1213.2706              1247.9714              1263.9998
 Red. masses --      2.0620                 1.8063                 4.3841
 Frc consts  --      1.7883                 1.6575                 4.1269
 IR Inten    --      1.5379                 2.0395                13.9438

                     64                     65                     66
                      A                      A                      A
 Frequencies --   1284.8134              1294.0548              1313.4134
 Red. masses --      2.0300                 1.2672                 1.8056
 Frc consts  --      1.9744                 1.2503                 1.8351
 IR Inten    --     23.8082                 4.7257                 9.7025

                     67                     68                     69
                      A                      A                      A
 Frequencies --   1315.0160              1334.5086              1346.5523
 Red. masses --      1.3507                 2.4911                 3.8203
 Frc consts  --      1.3762                 2.6139                 4.0813
 IR Inten    --      8.6900                45.8905                47.1283

                     70                     71                     72
                      A                      A                      A
 Frequencies --   1382.4668              1387.6157              1391.0019
 Red. masses --      1.5037                 4.0620                 1.6457
 Frc consts  --      1.6933                 4.6082                 1.8761
 IR Inten    --     10.3591                 6.4837                16.4481

                     73                     74                     75
                      A                      A                      A
 Frequencies --   1397.3960              1408.6107              1442.6318
 Red. masses --      1.4903                 1.5974                 1.2993
 Frc consts  --      1.7146                 1.8674                 1.5932
 IR Inten    --      7.4671                 5.6111                 0.5770

                     76                     77                     78
                      A                      A                      A
 Frequencies --   1459.2857              1502.9760              1507.8614
 Red. masses --      1.9089                 1.3626                 1.4891
 Frc consts  --      2.3950                 1.8135                 1.9948
 IR Inten    --     55.4492                14.6192                20.6246

                     79                     80                     81
                      A                      A                      A
 Frequencies --   1511.0785              1512.7834              1516.0755
 Red. masses --      1.4638                 1.5851                 1.0473
 Frc consts  --      1.9692                 2.1373                 1.4183
 IR Inten    --     45.7935                34.0596                 6.5616

                     82                     83                     84
                      A                      A                      A
 Frequencies --   1521.9999              1529.4120              1533.0018
 Red. masses --      1.1033                 2.2352                 1.1944
 Frc consts  --      1.5058                 3.0804                 1.6538
 IR Inten    --      5.3888                12.7028                 1.4575

                     85                     86                     87
                      A                      A                      A
 Frequencies --   1541.1947              1545.5352              1642.1042
 Red. masses --      1.6131                 1.8110                 5.9183
 Frc consts  --      2.2575                 2.5487                 9.4026
 IR Inten    --     23.3255                57.3352                68.1596

                     88                     89                     90
                      A                      A                      A
 Frequencies --   1645.8846              1658.6554              1662.1439
 Red. masses --      2.7822                 5.5734                 5.6072
 Frc consts  --      4.4406                 9.0341                 9.1271
 IR Inten    --      9.8068                22.3938                 3.4838

                     91                     92                     93
                      A                      A                      A
 Frequencies --   1686.9848              3015.2279              3017.4505
 Red. masses --      1.5330                 1.0691                 1.0457
 Frc consts  --      2.5705                 5.7267                 5.6097
 IR Inten    --     78.6742                26.7371                43.6262

                     94                     95                     96
                      A                      A                      A
 Frequencies --   3029.7440              3033.6047              3037.0373
 Red. masses --      1.0702                 1.0645                 1.0607
 Frc consts  --      5.7879                 5.7717                 5.7641
 IR Inten    --     20.3971                 9.2638                30.9529

                     97                     98                     99
                      A                      A                      A
 Frequencies --   3064.5888              3067.3702              3071.3427
 Red. masses --      1.0920                 1.0943                 1.0947
 Frc consts  --      6.0427                 6.0665                 6.0841
 IR Inten    --     42.2523                26.3976                17.4379

                    100                    101                    102
                      A                      A                      A
 Frequencies --   3082.6551              3085.6632              3129.0060
 Red. masses --      1.0961                 1.1050                 1.0973
 Frc consts  --      6.1371                 6.1989                 6.3297
 IR Inten    --     69.0957                53.7501                15.9847

                    103                    104                    105
                      A                      A                      A
 Frequencies --   3172.4025              3178.5575              3179.3661
 Red. masses --      1.0859                 1.0905                 1.0870
 Frc consts  --      6.4388                 6.4911                 6.4739
 IR Inten    --      0.2749                29.7534                10.4997

                    106                    107                    108
                      A                      A                      A
 Frequencies --   3197.7902              3201.8659              3212.6085
 Red. masses --      1.0900                 1.0963                 1.0952
 Frc consts  --      6.5669                 6.6219                 6.6600
 IR Inten    --     23.6198                32.8541                12.6602

                    109                    110                    111
                      A                      A                      A
 Frequencies --   3505.2837              3508.8529              3624.1531
 Red. masses --      1.0625                 1.0620                 1.0938
 Frc consts  --      7.6917                 7.7040                 8.4647
 IR Inten    --     20.9199                 5.2560                15.4980

 - Thermochemistry -
 -------------------
 Temperature   298.150 Kelvin.  Pressure   1.00000 Atm.
 Atom     1 has atomic number  6 and mass  12.00000

 Molecular mass:   252.16265 amu.
 Principal axes and moments of inertia in atomic units:
                           1         2         3
     Eigenvalues --  2566.808407748.203528659.19985
           X            0.99997  -0.00543   0.00595
           Y            0.00539   0.99996   0.00717
           Z           -0.00598  -0.00714   0.99996
 This molecule is an asymmetric top.
 Rotational symmetry number  1.
 Warning -- assumption of classical behavior for rotation
           may cause significant error
 Rotational temperatures (Kelvin)      0.03374     0.01118     0.01000
 Rotational constants (GHZ):           0.70311     0.23292     0.20842
 Zero-point vibrational energy     887470.3 (Joules/Mol)
                                  212.11049 (Kcal/Mol)
 Warning -- explicit consideration of  28 degrees of freedom as
           vibrations may cause significant error
 Vibrational temperatures:     31.98    66.20    85.83   147.60   177.11
          (Kelvin)            197.28   262.22   295.78   328.87   337.72
                              398.04   422.12   440.98   451.21   460.53
                              550.73   619.21   639.23   675.33   693.74
                              733.02   751.71   760.56   777.13   809.43
                              830.69   854.76   885.99   954.00   991.79
                             1039.61  1042.34  1085.34  1115.67  1142.96
                             1166.44  1200.08  1226.28  1237.62  1268.76
                             1275.90  1288.94  1330.75  1344.16  1357.97
                             1377.44  1379.56  1431.07  1484.94  1528.41
                             1543.00  1579.09  1606.02  1609.53  1615.34
                             1684.91  1703.68  1718.98  1735.19  1740.73
                             1745.63  1795.55  1818.61  1848.56  1861.86
                             1889.71  1892.01  1920.06  1937.39  1989.06
                             1996.47  2001.34  2010.54  2026.68  2075.63
                             2099.59  2162.45  2169.48  2174.10  2176.56
                             2181.29  2189.82  2200.48  2205.65  2217.44
                             2223.68  2362.62  2368.06  2386.44  2391.45
                             2427.19  4338.24  4341.44  4359.13  4364.68
                             4369.62  4409.26  4413.26  4418.98  4435.25
                             4439.58  4501.94  4564.38  4573.24  4574.40
                             4600.91  4606.77  4622.23  5043.32  5048.46
                             5214.35

 Zero-point correction=                           0.338020 (Hartree/Particle)
 Thermal correction to Energy=                    0.354507
 Thermal correction to Enthalpy=                  0.355451
 Thermal correction to Gibbs Free Energy=         0.293828
 Sum of electronic and zero-point Energies=           -769.126104
 Sum of electronic and thermal Energies=              -769.109617
 Sum of electronic and thermal Enthalpies=            -769.108673
 Sum of electronic and thermal Free Energies=         -769.170296

                     E (Thermal)             CV                S
                      KCal/Mol        Cal/Mol-Kelvin    Cal/Mol-Kelvin
 Total                  222.456             67.228            129.695
 Electronic               0.000              0.000              0.000
 Translational            0.889              2.981             42.475
 Rotational               0.889              2.981             33.509
 Vibrational            220.679             61.266             53.711
 Vibration     1          0.593              1.985              6.425
 Vibration     2          0.595              1.979              4.982
 Vibration     3          0.597              1.974              4.469
 Vibration     4          0.605              1.947              3.405
 Vibration     5          0.610              1.930              3.051
 Vibration     6          0.614              1.916              2.844
 Vibration     7          0.630              1.864              2.305
 Vibration     8          0.640              1.832              2.083
 Vibration     9          0.651              1.797              1.890
 Vibration    10          0.655              1.788              1.842
 Vibration    11          0.678              1.717              1.554
 Vibration    12          0.688              1.686              1.454
 Vibration    13          0.697              1.661              1.381
 Vibration    14          0.701              1.648              1.343
 Vibration    15          0.706              1.635              1.310
 Vibration    16          0.752              1.507              1.028
 Vibration    17          0.792              1.404              0.857
 Vibration    18          0.804              1.373              0.813
 Vibration    19          0.826              1.318              0.739
 Vibration    20          0.838              1.290              0.704
 Vibration    21          0.865              1.229              0.635
 Vibration    22          0.877              1.200              0.604
 Vibration    23          0.884              1.187              0.590
 Vibration    24          0.895              1.161              0.565
 Vibration    25          0.918              1.112              0.519
 Vibration    26          0.934              1.080              0.490
 Vibration    27          0.952              1.044              0.460
 Vibration    28          0.975              0.998              0.423

                           ! Non-Optimized Parameters !
 Normal termination of Gaussian 16 at Sun Dec 13 13:02:26 2020.

 ----------------------------------------------------------------------
 # B3LYP/6-311++G(d,p) empiricaldispersion=gd3bj scf=xqc pop=npa geom=c
 heck
 ----------------------------------------------------------------------

 ---------------------------------------
 CID_108115370_JID_9779_Energie_neutraal
 ---------------------------------------
 Structure from the checkpoint file:  "JID_9779.chk"
 Charge =  0 Multiplicity = 1

 SCF Done:  E(RB3LYP) =  -769.669172955     A.U. after   15 cycles
 Normal termination of Gaussian 16 at Sun Dec 13 13:12:38 2020.

 ----------------------------------------------------------------------
 # B3LYP/6-311++G(d,p) empiricaldispersion=gd3bj scf=xqc pop=npa geom=c
 heck
 ----------------------------------------------------------------------

 -------------------------------------
 CID_108115370_JID_9779_Energie_kation
 -------------------------------------
 Structure from the checkpoint file:  "JID_9779.chk"
 Charge =  1 Multiplicity = 2

 SCF Done:  E(UB3LYP) =  -769.415000166     A.U. after   23 cycles
 Normal termination of Gaussian 16 at Sun Dec 13 13:35:14 2020.
 Gaussian 16:  ES64L-G16RevA.03 25-Dec-2016

 ----------------------------------------------------------------------
 # B3LYP/6-311++G(d,p) empiricaldispersion=gd3bj scf=xqc pop=npa geom=c
 heck
 ----------------------------------------------------------------------

 ------------------------------------
 CID_108115370_JID_9779_Energie_anion
 ------------------------------------
 Structure from the checkpoint file:  "JID_9779.chk"
 Charge = -1 Multiplicity = 2

                         Standard orientation:
 ---------------------------------------------------------------------
 Center     Atomic      Atomic             Coordinates (Angstroms)
 Number     Number       Type             X           Y           Z
 ---------------------------------------------------------------------
      1          6           0       -5.032986   -0.542822   -0.484774
      2          6           0       -3.701461   -0.312336    0.183702
      3          6           0       -2.665126    0.325842   -0.520496
      4          6           0       -1.424975    0.556600    0.110114
      5          6           0       -1.216174    0.131447    1.421486
      6          6           0       -2.232535   -0.528071    2.111878
      7          6           0       -3.465720   -0.733324    1.496120
      8          7           0       -0.433639    1.226755   -0.663518
      9          6           0        0.925655    1.231831   -0.265448
     10          6           0        1.544355    2.443787    0.053026
     11          6           0        2.894474    2.473713    0.394684
     12          6           0        3.618752    1.288253    0.438998
     13          6           0        3.015893    0.064921    0.116531
     14          6           0        1.662169    0.024857   -0.255545
     15          6           0        0.993056   -1.269881   -0.666774
     16          6           0        1.989652   -2.377129   -1.018813
     17          6           0        3.055242   -2.485690    0.073230
     18          6           0        3.869604   -1.191167    0.129548
     19          7           0       -2.835069    0.795861   -1.831257
     20          1           0       -5.490821    0.399519   -0.813715
     21          1           0       -4.941807   -1.183545   -1.374697
     22          1           0       -5.732992   -1.034730    0.196337
     23          1           0       -0.255683    0.321639    1.889856
     24          1           0       -2.067130   -0.862000    3.131755
     25          1           0       -4.264886   -1.235827    2.035213
     26          1           0       -0.752416    2.148237   -0.952736
     27          1           0        0.957027    3.358999    0.044013
     28          1           0        3.370251    3.418036    0.644107
     29          1           0        4.669188    1.301829    0.720141
     30          1           0        0.318537   -1.066322   -1.507495
     31          1           0        0.342673   -1.620339    0.146410
     32          1           0        1.456492   -3.326641   -1.144710
     33          1           0        2.476680   -2.153792   -1.978490
     34          1           0        3.721153   -3.338277   -0.104270
     35          1           0        2.563264   -2.659330    1.040368
     36          1           0        4.548669   -1.161148   -0.735857
     37          1           0        4.515802   -1.180237    1.016368
     38          1           0       -1.959838    0.781235   -2.348440
     39          1           0       -3.572451    0.329400   -2.345535
 ---------------------------------------------------------------------

 SCF Done:  E(UB3LYP) =  -769.656953199     A.U. after   33 cycles
 SCF Done:  E(UB3LYP) =  -769.656953198     a.u. after    1 cycles

 The electronic state is 2-A.
 Alpha  occ. eigenvalues --  -14.23637 -14.21783 -10.11888 -10.11167 -10.11085
 Alpha  occ. eigenvalues --  -10.09016 -10.08666 -10.08439 -10.08321 -10.08212
 Alpha  occ. eigenvalues --  -10.08031 -10.07765 -10.07717 -10.07403 -10.07385
 Alpha  occ. eigenvalues --  -10.07292 -10.07265 -10.07234 -10.07204  -0.85965
 Alpha  occ. eigenvalues --   -0.81507  -0.76852  -0.74285  -0.72212  -0.67948
 Alpha  occ. eigenvalues --   -0.66733  -0.65212  -0.63701  -0.60963  -0.59156
 Alpha  occ. eigenvalues --   -0.54501  -0.52704  -0.52321  -0.50231  -0.48309
 Alpha  occ. eigenvalues --   -0.46343  -0.43360  -0.42367  -0.41391  -0.40030
 Alpha  occ. eigenvalues --   -0.38592  -0.37831  -0.37019  -0.34982  -0.34516
 Alpha  occ. eigenvalues --   -0.33920  -0.33743  -0.32997  -0.32310  -0.31988
 Alpha  occ. eigenvalues --   -0.30512  -0.29877  -0.29752  -0.28871  -0.28182
 Alpha  occ. eigenvalues --   -0.27404  -0.26555  -0.25489  -0.25212  -0.24492
 Alpha  occ. eigenvalues --   -0.23021  -0.22415  -0.21820  -0.20919  -0.15506
 Alpha  occ. eigenvalues --   -0.15166  -0.12839  -0.10345   0.04041
 Alpha virt. eigenvalues --    0.05560   0.06183   0.06899   0.07142   0.07362
 Alpha virt. eigenvalues --    0.07997   0.08207   0.08369   0.08571   0.09061
 Alpha virt. eigenvalues --    0.09676   0.10040   0.10112   0.10299   0.10797

  Beta  occ. eigenvalues --  -14.23623 -14.21734 -10.11881 -10.11164 -10.11084
  Beta  occ. eigenvalues --  -10.09018 -10.08658 -10.08432 -10.08307 -10.08210
  Beta  occ. eigenvalues --  -10.08022 -10.07753 -10.07709 -10.07390 -10.07382
  Beta  occ. eigenvalues --  -10.07288 -10.07225 -10.07221 -10.07203  -0.85939
  Beta  occ. eigenvalues --   -0.81455  -0.76832  -0.74262  -0.72192  -0.67927
  Beta  occ. eigenvalues --   -0.66705  -0.65189  -0.63673  -0.60937  -0.59102
  Beta  occ. eigenvalues --   -0.54470  -0.52677  -0.52292  -0.50199  -0.48275
  Beta  occ. eigenvalues --   -0.46308  -0.43329  -0.42331  -0.41350  -0.40004
  Beta  occ. eigenvalues --   -0.38567  -0.37799  -0.36993  -0.34957  -0.34486
  Beta  occ. eigenvalues --   -0.33902  -0.33716  -0.32954  -0.32284  -0.31958
  Beta  occ. eigenvalues --   -0.30486  -0.29853  -0.29731  -0.28840  -0.28159
  Beta  occ. eigenvalues --   -0.27380  -0.26536  -0.25468  -0.25191  -0.24468
  Beta  occ. eigenvalues --   -0.22995  -0.22393  -0.21794  -0.20898  -0.15485
  Beta  occ. eigenvalues --   -0.15148  -0.12819  -0.10320
  Beta virt. eigenvalues --    0.05819   0.06558   0.06574   0.07209   0.07240
  Beta virt. eigenvalues --    0.07658   0.08141   0.08572   0.08724   0.08743
  Beta virt. eigenvalues --    0.09224   0.09923   0.10197   0.10369   0.10625

 Mulliken charges and spin densities:
               1          2
     1  C    2.925311  -3.446307
     2  C   -0.167497   0.820143
     3  C   -2.070485   1.930458
     4  C   -0.804104   0.530941
     5  C    0.940012  -1.002391
     6  C   -0.221573   0.019510
     7  C    0.139579  -0.763486
     8  N    0.054590  -0.087452
     9  C   -0.047207   0.086218
    10  C   -0.057195   0.031473
    11  C    0.105881  -0.683882
    12  C    0.694613  -0.827626
    13  C   -0.538262   0.749031
    14  C   -0.686136   1.012608
    15  C    0.553581  -0.917677
    16  C   -0.251277  -0.274688
    17  C   -0.624869   0.273782
    18  C    0.741097  -1.308255
    19  N   -0.437915   0.099376
    20  H   -0.180749   0.355162
    21  H   -0.350466   0.520178
    22  H   -0.180689   0.325886
    23  H    0.201293  -0.035742
    24  H    0.032989   0.127440
    25  H   -0.052966   0.166408
    26  H    0.026012   0.261329
    27  H   -0.198166   0.343903
    28  H   -0.109520   0.261664
    29  H   -0.117348   0.275040
    30  H    0.013888   0.191486
    31  H    0.356247  -0.198462
    32  H   -0.142925   0.320773
    33  H   -0.010334   0.147525
    34  H   -0.218179   0.395648
    35  H    0.088441   0.036482
    36  H    0.085491   0.088807
    37  H   -0.055226   0.205279
    38  H   -0.111948   0.374254
    39  H   -0.323988   0.595163
 Sum of Mulliken charges =  -1.00000   1.00000

 Dipole moment (field-independent basis, Debye):
    X=              4.0982    Y=              0.6725    Z=              4.2712  Tot=              5.9574
 Quadrupole moment (field-independent basis, Debye-Ang):
   XX=           -209.7998   YY=           -159.1826   ZZ=           -155.0005
   XY=              1.1185   XZ=            -15.4192   YZ=             -2.6500

 Summary of Natural Population Analysis:

                                       Natural Population
                Natural  -----------------------------------------------
    Atom  No    Charge         Core      Valence    Rydberg      Total
 -----------------------------------------------------------------------
      C    1   -0.29661      0.99964     2.29081    0.00616     3.29661
      C    2   -0.03443      0.99948     2.02430    0.01065     3.03443
      C    3    0.07766      0.99940     1.91039    0.01255     2.92234
      C    4    0.06533      0.99942     1.92381    0.01143     2.93467
      C    5   -0.11805      0.99952     2.11103    0.00751     3.11805
      C    6   -0.11541      0.99957     2.10610    0.00974     3.11541
      C    7   -0.10297      0.99952     2.09469    0.00876     3.10297
      N    8   -0.32320      0.99966     2.81167    0.01187     3.82320
      C    9    0.08602      0.99944     1.90247    0.01208     2.91398
      C   10   -0.11942      0.99951     2.11035    0.00956     3.11942
      C   11   -0.09653      0.99956     2.08762    0.00934     3.09653
      C   12   -0.10842      0.99952     2.10024    0.00867     3.10842
      C   13   -0.01079      0.99948     2.00155    0.00975     3.01079
      C   14   -0.01925      0.99943     2.01101    0.00881     3.01925
      C   15   -0.20429      0.99960     2.19528    0.00941     3.20429
      C   16   -0.18582      0.99963     2.17846    0.00773     3.18582
      C   17   -0.18854      0.99964     2.18099    0.00792     3.18854
      C   18   -0.19532      0.99960     2.18723    0.00849     3.19532
      N   19   -0.40056      0.99972     2.89033    0.01051     3.90056
      H   20    0.10516      0.00000     0.39358    0.00126     0.39484
      H   21    0.10535      0.00000     0.39257    0.00208     0.39465
      H   22    0.10300      0.00000     0.39598    0.00102     0.39700
      H   23    0.10623      0.00000     0.39249    0.00128     0.39377
      H   24    0.09765      0.00000     0.40157    0.00078     0.40235
      H   25    0.09682      0.00000     0.40232    0.00087     0.40318
      H   26    0.19016      0.00000     0.30698    0.00286     0.30984
      H   27    0.10045      0.00000     0.39845    0.00110     0.39955
      H   28    0.09919      0.00000     0.39999    0.00083     0.40081
      H   29    0.09742      0.00000     0.40131    0.00127     0.40258
      H   30    0.11000      0.00000     0.38795    0.00206     0.39000
      H   31    0.10768      0.00000     0.39060    0.00172     0.39232
      H   32    0.10046      0.00000     0.39858    0.00096     0.39954
      H   33    0.09332      0.00000     0.40539    0.00129     0.40668
      H   34    0.09871      0.00000     0.40028    0.00101     0.40129
      H   35    0.09334      0.00000     0.40538    0.00127     0.40666
      H   36    0.10078      0.00000     0.39802    0.00120     0.39922
      H   37    0.10258      0.00000     0.39634    0.00108     0.39742
      H   38    0.19153      0.00000     0.30540    0.00307     0.30847
      H   39    0.19078      0.00000     0.30501    0.00422     0.30922
 =======================================================================
   * Total *   -0.00000     18.99134    48.79649    0.21217    68.00000

 Normal termination of Gaussian 16 at Sun Dec 13 14:08:05 2020.
