 Gaussian 16, Revision A.03,

 -----------------------------------------------------------
 # opt freq B3LYP/6-31G(d) empiricaldispersion=gd3bj scf=xqc
 -----------------------------------------------------------

 -------------------------------
 CID_115403421_JID_3736_neutraal
 -------------------------------
 Symbolic Z-matrix:
 Charge =  0 Multiplicity = 1

 SCF Done:  E(RB3LYP) =  -897.241424965     A.U. after   15 cycles
 SCF Done:  E(RB3LYP) =  -897.244330454     A.U. after   12 cycles
 SCF Done:  E(RB3LYP) =  -897.244552897     A.U. after   11 cycles
 SCF Done:  E(RB3LYP) =  -897.244587291     A.U. after   10 cycles
 SCF Done:  E(RB3LYP) =  -897.244600242     A.U. after   10 cycles
 SCF Done:  E(RB3LYP) =  -897.244606662     A.U. after    8 cycles
 SCF Done:  E(RB3LYP) =  -897.244609467     A.U. after    8 cycles
 SCF Done:  E(RB3LYP) =  -897.244610220     A.U. after    8 cycles
 SCF Done:  E(RB3LYP) =  -897.244610521     A.U. after    7 cycles
 SCF Done:  E(RB3LYP) =  -897.244610767     A.U. after    7 cycles
 SCF Done:  E(RB3LYP) =  -897.245208793     A.U. after   12 cycles
 SCF Done:  E(RB3LYP) =  -897.245220707     A.U. after   12 cycles
 SCF Done:  E(RB3LYP) =  -897.245246831     A.U. after   10 cycles
 SCF Done:  E(RB3LYP) =  -897.245250170     A.U. after    9 cycles
 SCF Done:  E(RB3LYP) =  -897.245250275     A.U. after    8 cycles
 SCF Done:  E(RB3LYP) =  -897.245250389     A.U. after    7 cycles
 Optimization completed.
    -- Stationary point found.
 Normal termination of Gaussian 16 at Wed Dec  9 23:36:35 2020.

 --------------------------------------------------------------------
 #N Geom=AllCheck Guess=TCheck SCRF=Check GenChk RB3LYP/6-31G(d) Freq
 --------------------------------------------------------------------

 Structure from the checkpoint file:  "JID_3736.chk"
 -------------------------------
 CID_115403421_JID_3736_neutraal
 -------------------------------
 Charge =  0 Multiplicity = 1

 SCF Done:  E(RB3LYP) =  -897.245250389     A.U. after    1 cycles

  Exact polarizability: 178.560   0.378 140.267  -3.874  -4.726  79.342
 Approx polarizability: 257.096   4.210 225.309 -10.106 -13.232 123.660

                      1                      2                      3
                      A                      A                      A
 Frequencies --     64.7054                80.9283                94.4256
 Red. masses --      2.9197                 1.0802                 2.0404
 Frc consts  --      0.0072                 0.0042                 0.0107
 IR Inten    --      0.0166                 0.1447                 1.0008

                      4                      5                      6
                      A                      A                      A
 Frequencies --    102.7441               107.9650               168.5766
 Red. masses --      1.5314                 2.0138                 2.9455
 Frc consts  --      0.0095                 0.0138                 0.0493
 IR Inten    --      0.1787                 0.0924                 0.2838

                      7                      8                      9
                      A                      A                      A
 Frequencies --    193.5761               201.2992               220.3881
 Red. masses --      1.7894                 1.9983                 1.1889
 Frc consts  --      0.0395                 0.0477                 0.0340
 IR Inten    --      0.9281                 0.2610                 0.3174

                     10                     11                     12
                      A                      A                      A
 Frequencies --    226.7979               262.1952               303.4282
 Red. masses --      2.1339                 4.1772                 2.2037
 Frc consts  --      0.0647                 0.1692                 0.1195
 IR Inten    --      1.5034                 0.1378                 0.1077

                     13                     14                     15
                      A                      A                      A
 Frequencies --    309.6725               325.0412               341.3289
 Red. masses --      4.3080                 2.5278                 3.0971
 Frc consts  --      0.2434                 0.1573                 0.2126
 IR Inten    --      5.4108                 0.0337                 2.0232

                     16                     17                     18
                      A                      A                      A
 Frequencies --    420.7653               456.9493               504.4228
 Red. masses --      4.8249                 5.2296                 6.4326
 Frc consts  --      0.5033                 0.6434                 0.9643
 IR Inten    --      0.4694                 0.0867                 3.1585

                     19                     20                     21
                      A                      A                      A
 Frequencies --    543.0614               564.3114               582.8920
 Red. masses --      6.0922                 4.7720                 3.5445
 Frc consts  --      1.0586                 0.8953                 0.7096
 IR Inten    --      0.8196                 0.3453                 2.0485

                     22                     23                     24
                      A                      A                      A
 Frequencies --    652.2999               681.6871               690.6588
 Red. masses --      4.5036                 5.3328                 9.2515
 Frc consts  --      1.1290                 1.4601                 2.6001
 IR Inten    --      8.2976                 1.6576                 0.6709

                     25                     26                     27
                      A                      A                      A
 Frequencies --    735.8998               773.7160               839.7749
 Red. masses --      3.4594                 1.5229                 2.2896
 Frc consts  --      1.1038                 0.5371                 0.9513
 IR Inten    --      0.5460                 1.7062                 1.8519

                     28                     29                     30
                      A                      A                      A
 Frequencies --    945.0382               972.3576              1008.3252
 Red. masses --      2.0965                 2.4884                 1.7892
 Frc consts  --      1.1032                 1.3862                 1.0718
 IR Inten    --      4.1219                 5.9838                11.0214

                     31                     32                     33
                      A                      A                      A
 Frequencies --   1037.1960              1068.1528              1075.1868
 Red. masses --      3.1621                 1.3708                 1.4652
 Frc consts  --      2.0042                 0.9215                 0.9980
 IR Inten    --      1.3467                 1.5420                 1.4035

                     34                     35                     36
                      A                      A                      A
 Frequencies --   1080.3943              1090.0938              1095.4672
 Red. masses --      1.4614                 1.8743                 1.7712
 Frc consts  --      1.0051                 1.3123                 1.2523
 IR Inten    --      0.5333                 7.2862                 2.3576

                     37                     38                     39
                      A                      A                      A
 Frequencies --   1124.0075              1156.2951              1219.9666
 Red. masses --      2.0064                 2.3673                 3.8390
 Frc consts  --      1.4935                 1.8648                 3.3664
 IR Inten    --      9.2763                 2.3745                23.7671

                     40                     41                     42
                      A                      A                      A
 Frequencies --   1273.2204              1316.0890              1325.7371
 Red. masses --      2.7708                 3.4197                 2.0775
 Frc consts  --      2.6464                 3.4899                 2.1514
 IR Inten    --     10.0085                24.4952                14.5941

                     43                     44                     45
                      A                      A                      A
 Frequencies --   1361.9397              1398.3475              1430.0592
 Red. masses --      1.7734                 2.5965                 3.0094
 Frc consts  --      1.9381                 2.9914                 3.6261
 IR Inten    --     13.8177                58.4811                11.4224

                     46                     47                     48
                      A                      A                      A
 Frequencies --   1435.4940              1444.5111              1447.0569
 Red. masses --      1.3421                 1.4737                 1.4938
 Frc consts  --      1.6294                 1.8118                 1.8429
 IR Inten    --      4.0497                 1.0881                23.4097

                     49                     50                     51
                      A                      A                      A
 Frequencies --   1459.5063              1505.6691              1505.7705
 Red. masses --      1.3232                 1.0465                 1.0440
 Frc consts  --      1.6607                 1.3978                 1.3947
 IR Inten    --      6.9857                 0.2861                 5.5159

                     52                     53                     54
                      A                      A                      A
 Frequencies --   1507.9967              1511.7211              1518.9781
 Red. masses --      1.0845                 1.0446                 1.1786
 Frc consts  --      1.4531                 1.4065                 1.6022
 IR Inten    --      1.8444                11.5033                 5.9864

                     55                     56                     57
                      A                      A                      A
 Frequencies --   1522.6817              1524.3364              1531.0830
 Red. masses --      1.0887                 1.0489                 1.1160
 Frc consts  --      1.4873                 1.4360                 1.5414
 IR Inten    --      5.9574                 3.7602                 7.1696

                     58                     59                     60
                      A                      A                      A
 Frequencies --   1535.6788              1538.3401              1618.7874
 Red. masses --      3.2658                 1.1888                 5.8625
 Frc consts  --      4.5377                 1.6576                 9.0513
 IR Inten    --    141.9577                21.5911                 6.4439

                     61                     62                     63
                      A                      A                      A
 Frequencies --   1688.5767              3046.8380              3047.8487
 Red. masses --      6.7383                 1.0384                 1.0379
 Frc consts  --     11.3198                 5.6795                 5.6804
 IR Inten    --     12.2368                51.3417                27.9084

                     64                     65                     66
                      A                      A                      A
 Frequencies --   3050.2401              3055.8800              3066.2625
 Red. masses --      1.0352                 1.0445                 1.0587
 Frc consts  --      5.6749                 5.7467                 5.8648
 IR Inten    --     28.5008                11.8710                31.3850

                     67                     68                     69
                      A                      A                      A
 Frequencies --   3094.4536              3095.3250              3102.1591
 Red. masses --      1.1003                 1.1019                 1.0993
 Frc consts  --      6.2078                 6.2201                 6.2331
 IR Inten    --     11.1612                14.2716                18.2878

                     70                     71                     72
                      A                      A                      A
 Frequencies --   3111.7188              3119.0161              3128.3664
 Red. masses --      1.0995                 1.1016                 1.1024
 Frc consts  --      6.2724                 6.3141                 6.3564
 IR Inten    --     14.0657                49.1724                45.6444

                     73                     74                     75
                      A                      A                      A
 Frequencies --   3130.3830              3141.0534              3161.4479
 Red. masses --      1.1018                 1.0986                 1.0966
 Frc consts  --      6.3610                 6.3859                 6.4577
 IR Inten    --     20.5180                14.3193                16.3590

 - Thermochemistry -
 -------------------
 Temperature   298.150 Kelvin.  Pressure   1.00000 Atm.
 Atom     1 has atomic number  6 and mass  12.00000

 Molecular mass:   194.08777 amu.
 Principal axes and moments of inertia in atomic units:
                           1         2         3
     Eigenvalues --  1624.884103095.058554496.36570
           X            0.99971  -0.02388   0.00427
           Y            0.02386   0.99970   0.00585
           Z           -0.00441  -0.00575   0.99997
 This molecule is an asymmetric top.
 Rotational symmetry number  1.
 Warning -- assumption of classical behavior for rotation
           may cause significant error
 Rotational temperatures (Kelvin)      0.05330     0.02798     0.01926
 Rotational constants (GHZ):           1.11069     0.58310     0.40138
 Zero-point vibrational energy     592597.5 (Joules/Mol)
                                  141.63420 (Kcal/Mol)
 Warning -- explicit consideration of  21 degrees of freedom as
           vibrations may cause significant error
 Vibrational temperatures:     93.10   116.44   135.86   147.83   155.34
          (Kelvin)            242.54   278.51   289.62   317.09   326.31
                              377.24   436.57   445.55   467.66   491.10
                              605.39   657.45   725.75   781.34   811.92
                              838.65   938.51   980.80   993.70  1058.80
                             1113.20  1208.25  1359.70  1399.01  1450.76
                             1492.29  1536.83  1546.95  1554.45  1568.40
                             1576.13  1617.20  1663.65  1755.26  1831.88
                             1893.56  1907.44  1959.53  2011.91  2057.54
                             2065.36  2078.33  2081.99  2099.90  2166.32
                             2166.47  2169.67  2175.03  2185.47  2190.80
                             2193.18  2202.89  2209.50  2213.33  2329.07
                             2429.49  4383.72  4385.17  4388.62  4396.73
                             4411.67  4452.23  4453.48  4463.32  4477.07
                             4487.57  4501.02  4503.92  4519.28  4548.62

 Zero-point correction=                           0.225708 (Hartree/Particle)
 Thermal correction to Energy=                    0.239570
 Thermal correction to Enthalpy=                  0.240514
 Thermal correction to Gibbs Free Energy=         0.185445
 Sum of electronic and zero-point Energies=           -897.019542
 Sum of electronic and thermal Energies=              -897.005681
 Sum of electronic and thermal Enthalpies=            -897.004737
 Sum of electronic and thermal Free Energies=         -897.059805

                     E (Thermal)             CV                S
                      KCal/Mol        Cal/Mol-Kelvin    Cal/Mol-Kelvin
 Total                  150.332             50.853            115.902
 Electronic               0.000              0.000              0.000
 Translational            0.889              2.981             41.695
 Rotational               0.889              2.981             31.492
 Vibrational            148.555             44.892             42.715
 Vibration     1          0.597              1.971              4.308
 Vibration     2          0.600              1.962              3.868
 Vibration     3          0.603              1.953              3.566
 Vibration     4          0.605              1.947              3.402
 Vibration     5          0.606              1.943              3.305
 Vibration     6          0.625              1.881              2.451
 Vibration     7          0.635              1.849              2.193
 Vibration     8          0.638              1.838              2.121
 Vibration     9          0.647              1.810              1.956
 Vibration    10          0.650              1.800              1.904
 Vibration    11          0.669              1.742              1.647
 Vibration    12          0.695              1.667              1.398
 Vibration    13          0.699              1.655              1.364
 Vibration    14          0.709              1.625              1.285
 Vibration    15          0.721              1.593              1.206
 Vibration    16          0.783              1.425              0.889
 Vibration    17          0.815              1.346              0.775
 Vibration    18          0.860              1.240              0.647
 Vibration    19          0.898              1.155              0.559
 Vibration    20          0.920              1.108              0.515
 Vibration    21          0.940              1.068              0.480

 Optimization completed.
    -- Stationary point found.
 Normal termination of Gaussian 16 at Wed Dec  9 23:43:36 2020.

 ----------------------------------------------------------------------
 # B3LYP/6-311++G(d,p) empiricaldispersion=gd3bj scf=xqc pop=npa geom=c
 heck
 ----------------------------------------------------------------------

 ---------------------------------------
 CID_115403421_JID_3736_Energie_neutraal
 ---------------------------------------
 Structure from the checkpoint file:  "JID_3736.chk"
 Charge =  0 Multiplicity = 1

 SCF Done:  E(RB3LYP) =  -897.399881273     A.U. after   15 cycles
 Normal termination of Gaussian 16 at Wed Dec  9 23:46:55 2020.

 ----------------------------------------------------------------------
 # B3LYP/6-311++G(d,p) empiricaldispersion=gd3bj scf=xqc pop=npa geom=c
 heck
 ----------------------------------------------------------------------

 -------------------------------------
 CID_115403421_JID_3736_Energie_kation
 -------------------------------------
 Structure from the checkpoint file:  "JID_3736.chk"
 Charge =  1 Multiplicity = 2

 SCF Done:  E(UB3LYP) =  -897.129275177     A.U. after   23 cycles
 Normal termination of Gaussian 16 at Wed Dec  9 23:53:59 2020.
 Gaussian 16:  ES64L-G16RevA.03 25-Dec-2016

 ----------------------------------------------------------------------
 # B3LYP/6-311++G(d,p) empiricaldispersion=gd3bj scf=xqc pop=npa geom=c
 heck
 ----------------------------------------------------------------------

 ------------------------------------
 CID_115403421_JID_3736_Energie_anion
 ------------------------------------
 Structure from the checkpoint file:  "JID_3736.chk"
 Charge = -1 Multiplicity = 2

                         Standard orientation:
 ---------------------------------------------------------------------
 Center     Atomic      Atomic             Coordinates (Angstroms)
 Number     Number       Type             X           Y           Z
 ---------------------------------------------------------------------
      1          6           0        2.439632    2.160753    0.941251
      2          6           0        2.156961    1.467261   -0.403573
      3          6           0        1.407788    0.179129   -0.268724
      4          6           0        1.873628   -1.117228   -0.142808
      5          7           0        0.839439   -2.022640    0.054829
      6          6           0       -0.237456   -1.279543    0.053484
      7          7           0        0.016117    0.065108   -0.135287
      8          6           0       -1.126065    0.882060   -0.167414
      9          6           0       -2.265014    0.165018    0.017346
     10         16           0       -1.952118   -1.573642    0.225577
     11          6           0       -3.683222    0.640660    0.052205
     12          6           0       -1.007627    2.352071   -0.414094
     13          6           0        3.290791   -1.593247   -0.184081
     14          1           0        1.511526    2.392739    1.475096
     15          1           0        2.990911    3.096554    0.793512
     16          1           0        3.033826    1.508005    1.588970
     17          1           0        1.632419    2.156213   -1.074331
     18          1           0        3.111611    1.247425   -0.894361
     19          1           0       -4.276084    0.191506   -0.753961
     20          1           0       -4.167977    0.380004    1.000789
     21          1           0       -3.737505    1.726229   -0.060767
     22          1           0       -0.606756    2.556392   -1.413865
     23          1           0       -1.984750    2.832605   -0.343583
     24          1           0       -0.344522    2.831690    0.313473
     25          1           0        3.612420   -1.963192    0.797264
     26          1           0        3.397208   -2.422353   -0.892237
     27          1           0        3.976176   -0.794423   -0.483583
 ---------------------------------------------------------------------

 SCF Done:  E(UB3LYP) =  -897.390031248     A.U. after   31 cycles

 The electronic state is 2-A.
 Alpha  occ. eigenvalues --  -88.77809 -14.27833 -14.19367 -10.14889 -10.12733
 Alpha  occ. eigenvalues --  -10.11161 -10.10239 -10.09352 -10.08357 -10.07969
 Alpha  occ. eigenvalues --  -10.07693 -10.07406 -10.06553  -7.86423  -5.82755
 Alpha  occ. eigenvalues --   -5.82411  -5.81898  -0.93336  -0.81117  -0.74527
 Alpha  occ. eigenvalues --   -0.69556  -0.67680  -0.64873  -0.63554  -0.59176
 Alpha  occ. eigenvalues --   -0.56105  -0.53031  -0.49467  -0.46470  -0.44288
 Alpha  occ. eigenvalues --   -0.38286  -0.37822  -0.36354  -0.34860  -0.33443
 Alpha  occ. eigenvalues --   -0.33180  -0.32640  -0.32076  -0.30977  -0.30719
 Alpha  occ. eigenvalues --   -0.29920  -0.29055  -0.28848  -0.27577  -0.26487
 Alpha  occ. eigenvalues --   -0.25479  -0.25171  -0.21790  -0.20851  -0.18106
 Alpha  occ. eigenvalues --   -0.11985  -0.10875   0.04163
 Alpha virt. eigenvalues --    0.06292   0.07463   0.08189   0.08682   0.08758
 Alpha virt. eigenvalues --    0.09645   0.10081   0.10358   0.10796   0.11038
 Alpha virt. eigenvalues --    0.11758   0.12408   0.12496   0.13141   0.13703

  Beta  occ. eigenvalues --  -88.77804 -14.27830 -14.19367 -10.14872 -10.12732
  Beta  occ. eigenvalues --  -10.11158 -10.10240 -10.09347 -10.08334 -10.07907
  Beta  occ. eigenvalues --  -10.07624 -10.07394 -10.06517  -7.86418  -5.82747
  Beta  occ. eigenvalues --   -5.82407  -5.81895  -0.93322  -0.81106  -0.74503
  Beta  occ. eigenvalues --   -0.69521  -0.67636  -0.64833  -0.63496  -0.59117
  Beta  occ. eigenvalues --   -0.56034  -0.52960  -0.49443  -0.46437  -0.44245
  Beta  occ. eigenvalues --   -0.38248  -0.37786  -0.36317  -0.34820  -0.33394
  Beta  occ. eigenvalues --   -0.33128  -0.32597  -0.32021  -0.30941  -0.30679
  Beta  occ. eigenvalues --   -0.29867  -0.29023  -0.28791  -0.27545  -0.26439
  Beta  occ. eigenvalues --   -0.25438  -0.25131  -0.21770  -0.20831  -0.18098
  Beta  occ. eigenvalues --   -0.11956  -0.10858
  Beta virt. eigenvalues --    0.06473   0.07172   0.08036   0.08632   0.08911
  Beta virt. eigenvalues --    0.09383   0.10085   0.10330   0.10697   0.11197
  Beta virt. eigenvalues --    0.11383   0.11974   0.12769   0.12844   0.13423

 Mulliken charges and spin densities:
               1          2
     1  C    0.874493  -1.428823
     2  C   -1.170890   0.912735
     3  C    0.292229   0.022715
     4  C   -0.142846   0.036830
     5  N   -0.116898   0.009688
     6  C   -0.416460   0.559831
     7  N    0.314540   0.091313
     8  C   -3.264382   3.057121
     9  C   -0.158730   0.624273
    10  S    0.060765  -0.305817
    11  C    2.344614  -2.994548
    12  C    3.087706  -3.866952
    13  C    0.197134  -0.714610
    14  H   -0.157138   0.302346
    15  H   -0.427914   0.567955
    16  H    0.027529   0.106583
    17  H   -0.069271   0.194998
    18  H   -0.309223   0.486287
    19  H   -0.348058   0.511960
    20  H   -0.346288   0.503206
    21  H   -0.389224   0.536688
    22  H   -0.432063   0.626755
    23  H   -0.398604   0.550396
    24  H   -0.311043   0.452498
    25  H    0.065694   0.095977
    26  H    0.092324   0.055485
    27  H    0.102004   0.005111
 Sum of Mulliken charges =  -1.00000   1.00000

 Dipole moment (field-independent basis, Debye):
    X=              2.8495    Y=             -5.5841    Z=              0.3591  Tot=              6.2794
 Quadrupole moment (field-independent basis, Debye-Ang):
   XX=           -151.9322   YY=           -147.8717   ZZ=           -114.2222
   XY=              3.8342   XZ=             -1.7308   YZ=              1.8958

 Summary of Natural Population Analysis:

                                       Natural Population
                Natural  -----------------------------------------------
    Atom  No    Charge         Core      Valence    Rydberg      Total
 -----------------------------------------------------------------------
      C    1   -0.27995      0.99966     2.27479    0.00550     3.27995
      C    2   -0.20793      0.99961     2.19974    0.00857     3.20793
      C    3    0.05277      0.99945     1.93555    0.01223     2.94723
      C    4    0.05883      0.99948     1.92836    0.01333     2.94117
      N    5   -0.27482      0.99965     2.76456    0.01061     3.77482
      C    6    0.11981      0.99955     1.86146    0.01919     2.88019
      N    7   -0.20611      0.99955     2.69679    0.00977     3.70611
      C    8    0.07414      0.99939     1.91386    0.01260     2.92586
      C    9   -0.09670      0.99943     2.08450    0.01276     3.09670
      S   10    0.17849      4.99943     2.80126    0.02082     7.82151
      C   11   -0.29798      0.99961     2.29134    0.00702     3.29798
      C   12   -0.29753      0.99963     2.29177    0.00613     3.29753
      C   13   -0.29421      0.99963     2.28961    0.00497     3.29421
      H   14    0.09738      0.00000     0.40126    0.00136     0.40262
      H   15    0.09943      0.00000     0.39901    0.00157     0.40057
      H   16    0.09673      0.00000     0.40229    0.00098     0.40327
      H   17    0.10635      0.00000     0.39195    0.00171     0.39365
      H   18    0.10454      0.00000     0.39424    0.00121     0.39546
      H   19    0.10716      0.00000     0.39112    0.00172     0.39284
      H   20    0.10649      0.00000     0.39199    0.00152     0.39351
      H   21    0.11352      0.00000     0.38432    0.00215     0.38648
      H   22    0.10930      0.00000     0.38868    0.00202     0.39070
      H   23    0.11362      0.00000     0.38431    0.00207     0.38638
      H   24    0.11002      0.00000     0.38797    0.00201     0.38998
      H   25    0.10202      0.00000     0.39646    0.00153     0.39798
      H   26    0.10306      0.00000     0.39558    0.00137     0.39694
      H   27    0.10157      0.00000     0.39752    0.00092     0.39843
 =======================================================================
   * Total *   -0.00000     16.99407    34.84028    0.16565    52.00000

 Normal termination of Gaussian 16 at Thu Dec 10 00:03:27 2020.
