 Gaussian 16, Revision A.03,

 -----------------------------------------------------------
 # opt freq B3LYP/6-31G(d) empiricaldispersion=gd3bj scf=xqc
 -----------------------------------------------------------

 -------------------------------
 CID_149520430_JID_3335_neutraal
 -------------------------------
 Symbolic Z-matrix:
 Charge =  0 Multiplicity = 1

 SCF Done:  E(RB3LYP) =  -559.168748038     A.U. after   12 cycles
 SCF Done:  E(RB3LYP) =  -559.175348465     A.U. after   11 cycles
 SCF Done:  E(RB3LYP) =  -559.176304687     A.U. after   11 cycles
 SCF Done:  E(RB3LYP) =  -559.176590646     A.U. after   10 cycles
 SCF Done:  E(RB3LYP) =  -559.176754716     A.U. after   10 cycles
 SCF Done:  E(RB3LYP) =  -559.176856499     A.U. after   10 cycles
 SCF Done:  E(RB3LYP) =  -559.176982306     A.U. after   10 cycles
 SCF Done:  E(RB3LYP) =  -559.177056933     A.U. after   10 cycles
 SCF Done:  E(RB3LYP) =  -559.177182556     A.U. after   11 cycles
 SCF Done:  E(RB3LYP) =  -559.177206910     A.U. after   10 cycles
 SCF Done:  E(RB3LYP) =  -559.177220870     A.U. after   10 cycles
 SCF Done:  E(RB3LYP) =  -559.177222776     A.U. after    9 cycles
 SCF Done:  E(RB3LYP) =  -559.177223230     A.U. after    8 cycles
 SCF Done:  E(RB3LYP) =  -559.177223266     A.U. after    7 cycles
 SCF Done:  E(RB3LYP) =  -559.177223275     A.U. after    6 cycles
 Optimization completed.
    -- Stationary point found.
 Normal termination of Gaussian 16 at Wed Dec  9 23:02:47 2020.

 --------------------------------------------------------------------
 #N Geom=AllCheck Guess=TCheck SCRF=Check GenChk RB3LYP/6-31G(d) Freq
 --------------------------------------------------------------------

 Structure from the checkpoint file:  "JID_3335.chk"
 -------------------------------
 CID_149520430_JID_3335_neutraal
 -------------------------------
 Charge =  0 Multiplicity = 1

 SCF Done:  E(RB3LYP) =  -559.177223275     A.U. after    1 cycles

  Exact polarizability: 145.551  -1.755 125.171  -2.757  -2.119 107.820
 Approx polarizability: 175.632  -1.727 171.805  -2.473  -5.714 167.541

                      1                      2                      3
                      A                      A                      A
 Frequencies --     23.3893                50.1990                78.7575
 Red. masses --      2.6295                 3.1664                 3.5650
 Frc consts  --      0.0008                 0.0047                 0.0130
 IR Inten    --      0.0913                 0.1387                 0.2448

                      4                      5                      6
                      A                      A                      A
 Frequencies --    113.4969               124.7240               205.9139
 Red. masses --      3.1172                 2.3303                 2.2086
 Frc consts  --      0.0237                 0.0214                 0.0552
 IR Inten    --      0.1211                 0.0894                 2.5970

                      7                      8                      9
                      A                      A                      A
 Frequencies --    231.7855               233.4162               256.4417
 Red. masses --      1.0927                 1.0957                 2.1278
 Frc consts  --      0.0346                 0.0352                 0.0824
 IR Inten    --      3.9652                35.1879                 2.5322

                     10                     11                     12
                      A                      A                      A
 Frequencies --    266.6182               276.1225               296.5235
 Red. masses --      1.8094                 1.4867                 2.4793
 Frc consts  --      0.0758                 0.0668                 0.1284
 IR Inten    --      5.0766                 3.4608                 2.1757

                     13                     14                     15
                      A                      A                      A
 Frequencies --    319.9236               345.6500               361.8337
 Red. masses --      1.9994                 2.3152                 2.4299
 Frc consts  --      0.1206                 0.1630                 0.1874
 IR Inten    --      2.0235                 0.9606                 5.4348

                     16                     17                     18
                      A                      A                      A
 Frequencies --    384.7274               403.5297               449.5977
 Red. masses --      2.2932                 2.0105                 3.0947
 Frc consts  --      0.2000                 0.1929                 0.3686
 IR Inten    --      0.4957                 4.0601                 0.9097

                     19                     20                     21
                      A                      A                      A
 Frequencies --    456.2793               475.4599               496.3231
 Red. masses --      2.0755                 1.9852                 2.4536
 Frc consts  --      0.2546                 0.2644                 0.3561
 IR Inten    --      5.9803                 1.6318                 1.3528

                     22                     23                     24
                      A                      A                      A
 Frequencies --    514.0861               562.0618               651.8167
 Red. masses --      2.0500                 2.5654                 3.3207
 Frc consts  --      0.3192                 0.4775                 0.8313
 IR Inten    --      2.4002                 1.1640                 2.6648

                     25                     26                     27
                      A                      A                      A
 Frequencies --    722.0175               761.0641               814.2091
 Red. masses --      2.0602                 2.1838                 2.0298
 Frc consts  --      0.6328                 0.7453                 0.7928
 IR Inten    --     45.3064                25.8200                17.1415

                     28                     29                     30
                      A                      A                      A
 Frequencies --    851.1354               859.6104               897.2007
 Red. masses --      2.4206                 1.7240                 1.7447
 Frc consts  --      1.0331                 0.7506                 0.8275
 IR Inten    --      2.1501                20.1508                 4.1672

                     31                     32                     33
                      A                      A                      A
 Frequencies --    906.1846               932.7384               949.8647
 Red. masses --      2.1674                 1.2779                 1.4104
 Frc consts  --      1.0487                 0.6551                 0.7498
 IR Inten    --      0.3461                 0.9589                 0.3237

                     34                     35                     36
                      A                      A                      A
 Frequencies --    961.4085               978.4469               980.8557
 Red. masses --      2.2713                 1.8606                 2.1678
 Frc consts  --      1.2369                 1.0495                 1.2288
 IR Inten    --      4.9070                 5.5670                 2.4696

                     37                     38                     39
                      A                      A                      A
 Frequencies --   1014.5366              1021.5327              1033.2454
 Red. masses --      1.6597                 2.3490                 2.1945
 Frc consts  --      1.0065                 1.4442                 1.3804
 IR Inten    --      2.9924                 3.5639                 5.1450

                     40                     41                     42
                      A                      A                      A
 Frequencies --   1096.9063              1101.9848              1114.6947
 Red. masses --      2.1572                 2.2617                 1.9238
 Frc consts  --      1.5293                 1.6182                 1.4084
 IR Inten    --      2.7906                 5.9382                17.6617

                     43                     44                     45
                      A                      A                      A
 Frequencies --   1140.8771              1150.4530              1162.8364
 Red. masses --      2.2152                 2.0751                 1.6172
 Frc consts  --      1.6988                 1.6182                 1.2884
 IR Inten    --     32.4063                22.4091                25.9421

                     46                     47                     48
                      A                      A                      A
 Frequencies --   1172.5479              1205.6270              1208.7320
 Red. masses --      2.0813                 1.8812                 1.9063
 Frc consts  --      1.6860                 1.6110                 1.6410
 IR Inten    --     13.4892                 7.4683                66.6872

                     49                     50                     51
                      A                      A                      A
 Frequencies --   1215.2628              1248.6241              1263.3722
 Red. masses --      1.6820                 1.8188                 1.1783
 Frc consts  --      1.4636                 1.6707                 1.1081
 IR Inten    --     20.4612                 4.5619                 1.5461

                     52                     53                     54
                      A                      A                      A
 Frequencies --   1307.8497              1317.2487              1320.6188
 Red. masses --      1.2536                 1.2143                 1.3524
 Frc consts  --      1.2633                 1.2414                 1.3897
 IR Inten    --      0.7042                 6.5029                 9.7106

                     55                     56                     57
                      A                      A                      A
 Frequencies --   1354.9358              1361.2874              1375.4562
 Red. masses --      1.2925                 1.3467                 1.3571
 Frc consts  --      1.3981                 1.4703                 1.5127
 IR Inten    --      2.4687                 5.3784                17.5349

                     58                     59                     60
                      A                      A                      A
 Frequencies --   1381.9709              1394.9064              1397.8870
 Red. masses --      1.2972                 1.4175                 1.2553
 Frc consts  --      1.4596                 1.6251                 1.4453
 IR Inten    --     13.6041                 8.1714                 7.7881

                     61                     62                     63
                      A                      A                      A
 Frequencies --   1402.3989              1417.1547              1423.6963
 Red. masses --      1.3823                 1.2987                 1.2719
 Frc consts  --      1.6018                 1.5367                 1.5189
 IR Inten    --      8.7701                 1.0284                 7.1375

                     64                     65                     66
                      A                      A                      A
 Frequencies --   1426.4159              1429.6379              1431.5720
 Red. masses --      1.4203                 1.4465                 1.2926
 Frc consts  --      1.7027                 1.7419                 1.5607
 IR Inten    --      7.4454                 0.8553                 8.6813

                     67                     68                     69
                      A                      A                      A
 Frequencies --   1442.8463              1497.4739              1503.2694
 Red. masses --      1.2542                 1.2220                 1.0904
 Frc consts  --      1.5383                 1.6145                 1.4519
 IR Inten    --     12.8668                48.4834                 2.0426

                     70                     71                     72
                      A                      A                      A
 Frequencies --   1512.6547              1516.9979              1517.4262
 Red. masses --      1.0583                 1.0862                 1.0558
 Frc consts  --      1.4268                 1.4728                 1.4323
 IR Inten    --      2.3242                 9.3558                 1.0133

                     73                     74                     75
                      A                      A                      A
 Frequencies --   1522.8955              1526.5805              1535.7614
 Red. masses --      1.0709                 1.0592                 1.0878
 Frc consts  --      1.4633                 1.4544                 1.5116
 IR Inten    --      5.4786                 5.6699                 6.6873

                     76                     77                     78
                      A                      A                      A
 Frequencies --   1536.9741              1541.2175              1547.5726
 Red. masses --      1.0828                 1.0517                 1.0477
 Frc consts  --      1.5071                 1.4719                 1.4784
 IR Inten    --     13.4735                11.6549                 7.9985

                     79                     80                     81
                      A                      A                      A
 Frequencies --   1709.4059              2937.6796              3006.4648
 Red. masses --      1.0656                 1.0819                 1.0716
 Frc consts  --      1.8345                 5.5011                 5.7070
 IR Inten    --     38.9582                46.5320                29.9886

                     82                     83                     84
                      A                      A                      A
 Frequencies --   3025.6307              3026.2459              3033.9625
 Red. masses --      1.0630                 1.0820                 1.0808
 Frc consts  --      5.7335                 5.8384                 5.8615
 IR Inten    --     18.5561                 2.4052                40.4670

                     85                     86                     87
                      A                      A                      A
 Frequencies --   3035.2440              3037.5534              3043.7002
 Red. masses --      1.0634                 1.0403                 1.0542
 Frc consts  --      5.7720                 5.6551                 5.7543
 IR Inten    --     34.2830                10.6378                33.7813

                     88                     89                     90
                      A                      A                      A
 Frequencies --   3045.2430              3049.3577              3066.9401
 Red. masses --      1.0510                 1.0404                 1.0978
 Frc consts  --      5.7422                 5.6999                 6.0837
 IR Inten    --     41.8711                24.5157                44.6519

                     91                     92                     93
                      A                      A                      A
 Frequencies --   3072.3170              3086.2125              3096.2792
 Red. masses --      1.1014                 1.1023                 1.1010
 Frc consts  --      6.1252                 6.1860                 6.2188
 IR Inten    --     61.2213                55.1188                 7.5839

                     94                     95                     96
                      A                      A                      A
 Frequencies --   3107.1488              3116.9799              3117.5175
 Red. masses --      1.0991                 1.0930                 1.0980
 Frc consts  --      6.2521                 6.2565                 6.2877
 IR Inten    --     91.9603                 9.6538                45.0217

                     97                     98                     99
                      A                      A                      A
 Frequencies --   3135.8880              3141.9207              3145.4969
 Red. masses --      1.1018                 1.1011                 1.0970
 Frc consts  --      6.3836                 6.4042                 6.3951
 IR Inten    --     29.4827                21.4272                31.4571

                    100                    101                    102
                      A                      A                      A
 Frequencies --   3421.0171              3487.4499              3505.0022
 Red. masses --      1.0514                 1.0727                 1.0909
 Frc consts  --      7.2496                 7.6865                 7.8963
 IR Inten    --      3.2169                 0.3389                 1.0784

 - Thermochemistry -
 -------------------
 Temperature   298.150 Kelvin.  Pressure   1.00000 Atm.
 Atom     1 has atomic number  6 and mass  12.00000

 Molecular mass:   185.18920 amu.
 Principal axes and moments of inertia in atomic units:
                           1         2         3
     Eigenvalues --  1434.533363930.531624705.93670
           X            0.99999  -0.00401   0.00004
           Y            0.00401   0.99997  -0.00606
           Z           -0.00001   0.00606   0.99998
 This molecule is an asymmetric top.
 Rotational symmetry number  1.
 Warning -- assumption of classical behavior for rotation
           may cause significant error
 Rotational temperatures (Kelvin)      0.06038     0.02204     0.01841
 Rotational constants (GHZ):           1.25807     0.45916     0.38350
 Zero-point vibrational energy     883681.5 (Joules/Mol)
                                  211.20495 (Kcal/Mol)
 Warning -- explicit consideration of  23 degrees of freedom as
           vibrations may cause significant error
 Vibrational temperatures:     33.65    72.23   113.31   163.30   179.45
          (Kelvin)            296.26   333.49   335.83   368.96   383.60
                              397.28   426.63   460.30   497.31   520.60
                              553.54   580.59   646.87   656.48   684.08
                              714.10   739.66   808.68   937.82  1038.82
                             1095.00  1171.47  1224.59  1236.79  1290.87
                             1303.80  1342.00  1366.64  1383.25  1407.77
                             1411.23  1459.69  1469.76  1486.61  1578.20
                             1585.51  1603.80  1641.47  1655.25  1673.06
                             1687.03  1734.63  1739.10  1748.49  1796.49
                             1817.71  1881.70  1895.23  1900.08  1949.45
                             1958.59  1978.97  1988.35  2006.96  2011.25
                             2017.74  2038.97  2048.38  2052.29  2056.93
                             2059.71  2075.93  2154.53  2162.87  2176.37
                             2182.62  2183.24  2191.11  2196.41  2209.62
                             2211.36  2217.47  2226.61  2459.45  4226.67
                             4325.63  4353.21  4354.09  4365.20  4367.04
                             4370.36  4379.21  4381.43  4387.35  4412.64
                             4420.38  4440.37  4454.86  4470.49  4484.64
                             4485.41  4511.84  4520.52  4525.67  4922.08
                             5017.66  5042.92

 Zero-point correction=                           0.336577 (Hartree/Particle)
 Thermal correction to Energy=                    0.351190
 Thermal correction to Enthalpy=                  0.352134
 Thermal correction to Gibbs Free Energy=         0.295223
 Sum of electronic and zero-point Energies=           -558.840647
 Sum of electronic and thermal Energies=              -558.826034
 Sum of electronic and thermal Enthalpies=            -558.825090
 Sum of electronic and thermal Free Energies=         -558.882000

                     E (Thermal)             CV                S
                      KCal/Mol        Cal/Mol-Kelvin    Cal/Mol-Kelvin
 Total                  220.375             57.037            119.778
 Electronic               0.000              0.000              0.000
 Translational            0.889              2.981             41.555
 Rotational               0.889              2.981             31.651
 Vibrational            218.597             51.075             46.573
 Vibration     1          0.593              1.985              6.323
 Vibration     2          0.595              1.978              4.810
 Vibration     3          0.600              1.963              3.922
 Vibration     4          0.607              1.938              3.208
 Vibration     5          0.610              1.928              3.026
 Vibration     6          0.640              1.831              2.080
 Vibration     7          0.653              1.792              1.865
 Vibration     8          0.654              1.790              1.853
 Vibration     9          0.666              1.752              1.686
 Vibration    10          0.672              1.734              1.618
 Vibration    11          0.678              1.718              1.558
 Vibration    12          0.690              1.680              1.436
 Vibration    13          0.706              1.635              1.310
 Vibration    14          0.724              1.584              1.186
 Vibration    15          0.736              1.551              1.114
 Vibration    16          0.754              1.503              1.021
 Vibration    17          0.769              1.463              0.950
 Vibration    18          0.808              1.362              0.797
 Vibration    19          0.815              1.347              0.777
 Vibration    20          0.832              1.304              0.722
 Vibration    21          0.852              1.258              0.667
 Vibration    22          0.869              1.219              0.624
 Vibration    23          0.918              1.113              0.520

 Optimization completed.
    -- Stationary point found.
 Normal termination of Gaussian 16 at Wed Dec  9 23:14:16 2020.

 ----------------------------------------------------------------------
 # B3LYP/6-311++G(d,p) empiricaldispersion=gd3bj scf=xqc pop=npa geom=c
 heck
 ----------------------------------------------------------------------

 ---------------------------------------
 CID_149520430_JID_3335_Energie_neutraal
 ---------------------------------------
 Structure from the checkpoint file:  "JID_3335.chk"
 Charge =  0 Multiplicity = 1

 SCF Done:  E(RB3LYP) =  -559.343342542     A.U. after   14 cycles
 Normal termination of Gaussian 16 at Wed Dec  9 23:19:57 2020.

 ----------------------------------------------------------------------
 # B3LYP/6-311++G(d,p) empiricaldispersion=gd3bj scf=xqc pop=npa geom=c
 heck
 ----------------------------------------------------------------------

 -------------------------------------
 CID_149520430_JID_3335_Energie_kation
 -------------------------------------
 Structure from the checkpoint file:  "JID_3335.chk"
 Charge =  1 Multiplicity = 2

 SCF Done:  E(UB3LYP) =  -559.075378390     A.U. after   19 cycles
 Normal termination of Gaussian 16 at Wed Dec  9 23:30:54 2020.
 Gaussian 16:  ES64L-G16RevA.03 25-Dec-2016

 ----------------------------------------------------------------------
 # B3LYP/6-311++G(d,p) empiricaldispersion=gd3bj scf=xqc pop=npa geom=c
 heck
 ----------------------------------------------------------------------

 ------------------------------------
 CID_149520430_JID_3335_Energie_anion
 ------------------------------------
 Structure from the checkpoint file:  "JID_3335.chk"
 Charge = -1 Multiplicity = 2

                         Standard orientation:
 ---------------------------------------------------------------------
 Center     Atomic      Atomic             Coordinates (Angstroms)
 Number     Number       Type             X           Y           Z
 ---------------------------------------------------------------------
      1          6           0       -3.517143   -0.614744    1.083314
      2          6           0       -2.547366   -0.062883    0.033409
      3          6           0       -2.216040    1.395371    0.395938
      4          6           0       -1.160224    2.152380   -0.425757
      5          6           0        0.275731    1.663904   -0.183081
      6          6           0        0.672349    0.340675   -0.894720
      7          6           0       -0.541357   -0.522018   -1.247205
      8          7           0       -1.317393   -0.878004   -0.043670
      9          7           0       -1.711728   -2.299276   -0.192499
     10          7           0        1.606526   -0.513801   -0.159535
     11          6           0        3.011579   -0.117111   -0.052998
     12          6           0        3.317993    1.016937    0.943615
     13          6           0        3.833215   -1.363672    0.296781
     14          1           0       -3.014373   -0.720073    2.053075
     15          1           0       -3.928217   -1.582686    0.786154
     16          1           0       -4.356214    0.076333    1.214342
     17          1           0       -3.059264   -0.084920   -0.947368
     18          1           0       -3.161766    1.950449    0.344338
     19          1           0       -1.901457    1.416611    1.448901
     20          1           0       -1.217379    3.207961   -0.130209
     21          1           0       -1.407450    2.129506   -1.495392
     22          1           0        0.404941    1.526522    0.897356
     23          1           0        0.980523    2.450713   -0.476880
     24          1           0        1.160069    0.589288   -1.847514
     25          1           0       -0.160718   -1.436736   -1.706739
     26          1           0       -1.176826   -0.033186   -2.000924
     27          1           0       -0.813745   -2.773405   -0.310467
     28          1           0       -1.991079   -2.577399    0.750657
     29          1           0        1.211831   -0.710685    0.759277
     30          1           0        3.310128    0.217538   -1.056448
     31          1           0        2.982086    0.739399    1.951436
     32          1           0        4.396562    1.209474    0.994887
     33          1           0        2.822731    1.951369    0.669221
     34          1           0        3.651083   -2.157074   -0.433600
     35          1           0        4.905947   -1.140664    0.323200
     36          1           0        3.548332   -1.743787    1.286855
 ---------------------------------------------------------------------

 SCF Done:  E(UB3LYP) =  -559.326378886     A.U. after   30 cycles

 The electronic state is 2-A.
 Alpha  occ. eigenvalues --  -14.23150 -14.22328 -14.18648 -10.10075 -10.09818
 Alpha  occ. eigenvalues --  -10.09630 -10.08822 -10.06673 -10.06613 -10.06214
 Alpha  occ. eigenvalues --  -10.05955 -10.05547 -10.05352  -0.86884  -0.80462
 Alpha  occ. eigenvalues --   -0.72884  -0.68967  -0.67376  -0.64748  -0.59888
 Alpha  occ. eigenvalues --   -0.58279  -0.56677  -0.52550  -0.48743  -0.46728
 Alpha  occ. eigenvalues --   -0.45892  -0.41088  -0.39196  -0.37633  -0.36635
 Alpha  occ. eigenvalues --   -0.36093  -0.34069  -0.33042  -0.32898  -0.31609
 Alpha  occ. eigenvalues --   -0.30796  -0.30170  -0.29415  -0.28339  -0.28238
 Alpha  occ. eigenvalues --   -0.26838  -0.26484  -0.25491  -0.24523  -0.24202
 Alpha  occ. eigenvalues --   -0.23400  -0.22384  -0.22039  -0.22009  -0.21298
 Alpha  occ. eigenvalues --   -0.11932  -0.10393   0.04559
 Alpha virt. eigenvalues --    0.06457   0.06576   0.07624   0.08170   0.08513
 Alpha virt. eigenvalues --    0.09203   0.09697   0.10038   0.10491   0.11021
 Alpha virt. eigenvalues --    0.11445   0.11837   0.12358   0.12818   0.13121

  Beta  occ. eigenvalues --  -14.23135 -14.22304 -14.18641 -10.10071 -10.09808
  Beta  occ. eigenvalues --  -10.09624 -10.08816 -10.06657 -10.06597 -10.06188
  Beta  occ. eigenvalues --  -10.05939 -10.05522 -10.05322  -0.86860  -0.80444
  Beta  occ. eigenvalues --   -0.72849  -0.68943  -0.67334  -0.64716  -0.59845
  Beta  occ. eigenvalues --   -0.58225  -0.56639  -0.52503  -0.48693  -0.46682
  Beta  occ. eigenvalues --   -0.45852  -0.41052  -0.39156  -0.37606  -0.36607
  Beta  occ. eigenvalues --   -0.36056  -0.34034  -0.33015  -0.32850  -0.31570
  Beta  occ. eigenvalues --   -0.30764  -0.30143  -0.29382  -0.28308  -0.28201
  Beta  occ. eigenvalues --   -0.26802  -0.26456  -0.25465  -0.24494  -0.24177
  Beta  occ. eigenvalues --   -0.23356  -0.22354  -0.22003  -0.21973  -0.21269
  Beta  occ. eigenvalues --   -0.11913  -0.10342
  Beta virt. eigenvalues --    0.06619   0.07226   0.07314   0.07988   0.08780
  Beta virt. eigenvalues --    0.08996   0.09436   0.10126   0.10317   0.10960
  Beta virt. eigenvalues --    0.11399   0.11608   0.12212   0.12581   0.13112

 Mulliken charges and spin densities:
               1          2
     1  C    0.932787  -1.593616
     2  C   -1.251588   0.988794
     3  C    0.865327  -1.118916
     4  C   -0.428124  -0.000077
     5  C    0.164247  -0.199366
     6  C   -0.776877   0.372581
     7  C    0.159715  -0.882992
     8  N    0.257055   0.103332
     9  N   -0.336705  -0.096486
    10  N    0.190665  -0.061921
    11  C   -0.824412   0.940659
    12  C    0.927183  -1.464632
    13  C    0.351941  -0.878563
    14  H   -0.260866   0.434681
    15  H   -0.003960   0.147433
    16  H   -0.114867   0.247119
    17  H    0.002265   0.106203
    18  H   -0.057427   0.208677
    19  H    0.025778   0.126074
    20  H   -0.558906   0.748970
    21  H    0.050874   0.084939
    22  H    0.107644   0.064679
    23  H   -0.096123   0.250300
    24  H   -0.154466   0.328263
    25  H    0.263320  -0.077933
    26  H    0.127057  -0.032413
    27  H    0.017777   0.219031
    28  H   -0.007299   0.244954
    29  H    0.513818  -0.244971
    30  H   -0.044469   0.162729
    31  H   -0.080735   0.219388
    32  H   -0.333359   0.469986
    33  H   -0.192922   0.341793
    34  H   -0.121914   0.272868
    35  H   -0.098436   0.225563
    36  H   -0.214000   0.342869
 Sum of Mulliken charges =  -1.00000   1.00000

 Dipole moment (field-independent basis, Debye):
    X=             -1.5547    Y=             -1.2224    Z=             -2.3544  Tot=              3.0748
 Quadrupole moment (field-independent basis, Debye-Ang):
   XX=           -163.1585   YY=           -139.0315   ZZ=           -116.2502
   XY=             -2.3257   XZ=              0.8089   YZ=             -1.4046

 Summary of Natural Population Analysis:

                                       Natural Population
                Natural  -----------------------------------------------
    Atom  No    Charge         Core      Valence    Rydberg      Total
 -----------------------------------------------------------------------
      C    1   -0.29337      0.99964     2.28782    0.00591     3.29337
      C    2   -0.00281      0.99958     1.99071    0.01251     3.00281
      C    3   -0.19039      0.99959     2.18107    0.00973     3.19039
      C    4   -0.19146      0.99962     2.18308    0.00875     3.19146
      C    5   -0.19936      0.99961     2.18994    0.00981     3.19936
      C    6   -0.00792      0.99957     1.99556    0.01279     3.00792
      C    7   -0.08778      0.99958     2.07716    0.01104     3.08778
      N    8   -0.21465      0.99970     2.70123    0.01373     3.71465
      N    9   -0.32834      0.99978     2.81869    0.00987     3.82834
      N   10   -0.35046      0.99973     2.83846    0.01228     3.85046
      C   11   -0.01059      0.99962     1.99935    0.01162     3.01059
      C   12   -0.29454      0.99965     2.28919    0.00570     3.29454
      C   13   -0.28224      0.99965     2.27739    0.00520     3.28224
      H   14    0.10047      0.00000     0.39819    0.00134     0.39953
      H   15    0.10331      0.00000     0.39563    0.00106     0.39669
      H   16    0.10244      0.00000     0.39654    0.00101     0.39756
      H   17    0.07934      0.00000     0.41864    0.00202     0.42066
      H   18    0.09905      0.00000     0.39985    0.00110     0.40095
      H   19    0.09630      0.00000     0.40203    0.00166     0.40370
      H   20    0.10230      0.00000     0.39640    0.00131     0.39770
      H   21    0.09283      0.00000     0.40595    0.00123     0.40717
      H   22    0.09818      0.00000     0.39995    0.00187     0.40182
      H   23    0.10047      0.00000     0.39816    0.00136     0.39953
      H   24    0.09107      0.00000     0.40728    0.00166     0.40893
      H   25    0.10300      0.00000     0.39553    0.00147     0.39700
      H   26    0.08832      0.00000     0.41022    0.00146     0.41168
      H   27    0.17352      0.00000     0.32454    0.00194     0.32648
      H   28    0.17301      0.00000     0.32492    0.00207     0.32699
      H   29    0.17467      0.00000     0.32155    0.00378     0.32533
      H   30    0.08643      0.00000     0.41162    0.00196     0.41357
      H   31    0.09527      0.00000     0.40347    0.00126     0.40473
      H   32    0.09850      0.00000     0.40038    0.00112     0.40150
      H   33    0.10180      0.00000     0.39666    0.00154     0.39820
      H   34    0.10174      0.00000     0.39690    0.00136     0.39826
      H   35    0.09650      0.00000     0.40247    0.00103     0.40350
      H   36    0.09541      0.00000     0.40346    0.00113     0.40459
 =======================================================================
   * Total *    0.00000     12.99531    38.83999    0.16470    52.00000

 Normal termination of Gaussian 16 at Wed Dec  9 23:48:02 2020.
