 Gaussian 16, Revision A.03,

 -----------------------------------------------------------
 # opt freq B3LYP/6-31G(d) empiricaldispersion=gd3bj scf=xqc
 -----------------------------------------------------------

 ------------------------------
 CID_76941114_JID_9097_neutraal
 ------------------------------
 Symbolic Z-matrix:
 Charge =  0 Multiplicity = 1

 SCF Done:  E(RB3LYP) =  -985.975460541     A.U. after   18 cycles
 SCF Done:  E(RB3LYP) =  -985.968065321     A.U. after   15 cycles
 SCF Done:  E(RB3LYP) =  -985.980868801     A.U. after   15 cycles
 SCF Done:  E(RB3LYP) =  -985.982190920     A.U. after   14 cycles
 SCF Done:  E(RB3LYP) =  -985.981089102     A.U. after   15 cycles
 SCF Done:  E(RB3LYP) =  -985.982979401     A.U. after   15 cycles
 SCF Done:  E(RB3LYP) =  -985.984247104     A.U. after   14 cycles
 SCF Done:  E(RB3LYP) =  -985.984325555     A.U. after   14 cycles
 SCF Done:  E(RB3LYP) =  -985.984648269     A.U. after   13 cycles
 SCF Done:  E(RB3LYP) =  -985.984650563     A.U. after   13 cycles
 SCF Done:  E(RB3LYP) =  -985.984709429     A.U. after   13 cycles
 SCF Done:  E(RB3LYP) =  -985.984720113     A.U. after   11 cycles
 SCF Done:  E(RB3LYP) =  -985.984724385     A.U. after   11 cycles
 SCF Done:  E(RB3LYP) =  -985.984725201     A.U. after    9 cycles
 SCF Done:  E(RB3LYP) =  -985.984725397     A.U. after    8 cycles
 Optimization completed.
    -- Stationary point found.
 Normal termination of Gaussian 16 at Mon Dec 14 16:46:09 2020.

 --------------------------------------------------------------------
 #N Geom=AllCheck Guess=TCheck SCRF=Check GenChk RB3LYP/6-31G(d) Freq
 --------------------------------------------------------------------

 Structure from the checkpoint file:  "JID_9097.chk"
 ------------------------------
 CID_76941114_JID_9097_neutraal
 ------------------------------
 Charge =  0 Multiplicity = 1

 SCF Done:  E(RB3LYP) =  -985.984725397     A.U. after    1 cycles

  Exact polarizability: 178.149 -12.086 145.495 -29.046 -23.904 115.733
 Approx polarizability: 247.633 -20.353 277.197 -61.864 -66.236 203.771

                      1                      2                      3
                      A                      A                      A
 Frequencies --     22.6639                33.3070                42.8684
 Red. masses --      9.0580                 7.3570                10.7615
 Frc consts  --      0.0027                 0.0048                 0.0117
 IR Inten    --      0.6789                 2.3300                 0.9922

                      4                      5                      6
                      A                      A                      A
 Frequencies --     56.8232                75.9379                85.9635
 Red. masses --      6.9848                 6.0113                 9.9436
 Frc consts  --      0.0133                 0.0204                 0.0433
 IR Inten    --      5.2260                 1.4458                 0.7215

                      7                      8                      9
                      A                      A                      A
 Frequencies --    130.3979               147.4874               151.0695
 Red. masses --      6.5955                 5.1443                 6.3256
 Frc consts  --      0.0661                 0.0659                 0.0851
 IR Inten    --      1.0774                 2.0144                 4.6587

                     10                     11                     12
                      A                      A                      A
 Frequencies --    158.5568               173.6613               232.6057
 Red. masses --      3.2958                 5.9091                 7.4306
 Frc consts  --      0.0488                 0.1050                 0.2369
 IR Inten    --      2.6468                 0.4768                 6.1706

                     13                     14                     15
                      A                      A                      A
 Frequencies --    267.1369               298.1379               332.4280
 Red. masses --      4.8633                 4.2114                 6.8533
 Frc consts  --      0.2045                 0.2205                 0.4462
 IR Inten    --      5.0425                 4.5959                 2.9931

                     16                     17                     18
                      A                      A                      A
 Frequencies --    338.2516               372.7986               393.2878
 Red. masses --      6.2194                 4.4913                 4.2182
 Frc consts  --      0.4193                 0.3678                 0.3844
 IR Inten    --      0.8199                 1.4743                 3.2115

                     19                     20                     21
                      A                      A                      A
 Frequencies --    427.1340               435.5414               473.6661
 Red. masses --      1.9384                 1.9755                 5.0369
 Frc consts  --      0.2084                 0.2208                 0.6658
 IR Inten    --     57.5593               109.6103                 5.5482

                     22                     23                     24
                      A                      A                      A
 Frequencies --    494.7242               522.3897               558.6640
 Red. masses --      4.1965                 3.2540                 1.7944
 Frc consts  --      0.6052                 0.5232                 0.3300
 IR Inten    --     13.0805                32.2011                28.2698

                     25                     26                     27
                      A                      A                      A
 Frequencies --    570.2844               593.5531               601.3799
 Red. masses --      2.7968                 1.6005                 2.9471
 Frc consts  --      0.5359                 0.3322                 0.6280
 IR Inten    --      4.8572               121.9641                17.9844

                     28                     29                     30
                      A                      A                      A
 Frequencies --    623.3279               624.2553               679.3435
 Red. masses --      3.6851                 2.5963                 6.3519
 Frc consts  --      0.8436                 0.5961                 1.7272
 IR Inten    --     42.2792                11.3013                15.7828

                     31                     32                     33
                      A                      A                      A
 Frequencies --    705.8712               722.2459               739.9108
 Red. masses --      4.3998                 3.1574                 5.2481
 Frc consts  --      1.2916                 0.9704                 1.6928
 IR Inten    --     21.2242                55.6988                 6.9240

                     34                     35                     36
                      A                      A                      A
 Frequencies --    773.0692               789.1485               816.6185
 Red. masses --      4.7637                 6.2227                 8.1017
 Frc consts  --      1.6774                 2.2832                 3.1832
 IR Inten    --     37.0702                 0.2410                16.2574

                     37                     38                     39
                      A                      A                      A
 Frequencies --    860.7115               873.1928               909.7730
 Red. masses --      1.6037                 2.2327                 4.2176
 Frc consts  --      0.7000                 1.0030                 2.0568
 IR Inten    --     16.3453                12.7584                 9.8421

                     40                     41                     42
                      A                      A                      A
 Frequencies --    928.0278               959.5665               979.2036
 Red. masses --      5.8873                 1.4329                 1.3236
 Frc consts  --      2.9874                 0.7774                 0.7478
 IR Inten    --      3.1479                 4.5514                 2.7571

                     43                     44                     45
                      A                      A                      A
 Frequencies --   1008.8645              1020.6913              1036.8170
 Red. masses --      1.6612                 5.5033                 1.3169
 Frc consts  --      0.9962                 3.3780                 0.8341
 IR Inten    --      0.1926               131.9400                33.3298

                     46                     47                     48
                      A                      A                      A
 Frequencies --   1109.0694              1110.9786              1116.4128
 Red. masses --      1.8572                 2.1256                 2.7451
 Frc consts  --      1.3459                 1.5458                 2.0159
 IR Inten    --      0.1253                71.2693                39.6589

                     49                     50                     51
                      A                      A                      A
 Frequencies --   1162.0672              1192.0435              1207.0807
 Red. masses --      2.3597                 1.7871                 1.8053
 Frc consts  --      1.8775                 1.4962                 1.5498
 IR Inten    --     20.3400                25.5812               173.4404

                     52                     53                     54
                      A                      A                      A
 Frequencies --   1260.1655              1267.1553              1291.8535
 Red. masses --      1.1776                 2.0186                 1.8182
 Frc consts  --      1.1018                 1.9097                 1.7878
 IR Inten    --     13.0241                57.0987               153.9103

                     55                     56                     57
                      A                      A                      A
 Frequencies --   1324.0651              1338.9883              1359.5291
 Red. masses --      1.3779                 1.3583                 3.9869
 Frc consts  --      1.4233                 1.4348                 4.3417
 IR Inten    --     32.6358                 0.8936                 6.0134

                     58                     59                     60
                      A                      A                      A
 Frequencies --   1380.0736              1398.1946              1405.2432
 Red. masses --      3.8549                 2.7915                 9.8693
 Frc consts  --      4.3258                 3.2153                11.4826
 IR Inten    --    398.3305                65.6620               205.2960

                     61                     62                     63
                      A                      A                      A
 Frequencies --   1425.4591              1450.9067              1520.5927
 Red. masses --      1.5973                 3.8683                 1.2971
 Frc consts  --      1.9123                 4.7979                 1.7670
 IR Inten    --     21.1854                 3.9906                 4.6556

                     64                     65                     66
                      A                      A                      A
 Frequencies --   1546.4872              1608.5894              1631.1932
 Red. masses --      2.2669                 7.0950                10.0963
 Frc consts  --      3.1943                10.8166                15.8278
 IR Inten    --     90.0835                18.8420                98.5029

                     67                     68                     69
                      A                      A                      A
 Frequencies --   1650.5405              1672.9444              1729.1436
 Red. masses --      1.2422                 7.1029                 6.4963
 Frc consts  --      1.9938                11.7125                11.4439
 IR Inten    --    147.6947               190.5882                11.4304

                     70                     71                     72
                      A                      A                      A
 Frequencies --   1794.4004              1836.2395              3080.5242
 Red. masses --      8.4035                 9.2135                 1.0655
 Frc consts  --     15.9422                18.3035                 5.9572
 IR Inten    --    235.3401               322.1538                32.6776

                     73                     74                     75
                      A                      A                      A
 Frequencies --   3151.0488              3199.8861              3204.5192
 Red. masses --      1.0994                 1.0919                 1.0885
 Frc consts  --      6.4314                 6.5874                 6.5855
 IR Inten    --      5.0530                 1.0704                 7.1958

                     76                     77                     78
                      A                      A                      A
 Frequencies --   3216.8804              3226.9235              3253.9278
 Red. masses --      1.0900                 1.0938                 1.0907
 Frc consts  --      6.6461                 6.7108                 6.8038
 IR Inten    --      0.8671                 3.0483                 8.7737

                     79                     80                     81
                      A                      A                      A
 Frequencies --   3577.4144              3694.4177              3702.2915
 Red. masses --      1.0463                 1.1022                 1.0643
 Frc consts  --      7.8893                 8.8631                 8.5949
 IR Inten    --     44.7926                27.8937                68.1511

 - Thermochemistry -
 -------------------
 Temperature   298.150 Kelvin.  Pressure   1.00000 Atm.
 Atom     1 has atomic number  6 and mass  12.00000

 Molecular mass:   266.05389 amu.
 Principal axes and moments of inertia in atomic units:
                           1         2         3
     Eigenvalues --  3337.396787625.874958498.39322
           X            0.99998  -0.00565  -0.00349
           Y            0.00558   0.99980  -0.01932
           Z            0.00359   0.01930   0.99981
 This molecule is an asymmetric top.
 Rotational symmetry number  1.
 Warning -- assumption of classical behavior for rotation
           may cause significant error
 Rotational temperatures (Kelvin)      0.02595     0.01136     0.01019
 Rotational constants (GHZ):           0.54076     0.23666     0.21236
 Zero-point vibrational energy     557092.6 (Joules/Mol)
                                  133.14833 (Kcal/Mol)
 Warning -- explicit consideration of  27 degrees of freedom as
           vibrations may cause significant error
 Vibrational temperatures:     32.61    47.92    61.68    81.76   109.26
          (Kelvin)            123.68   187.61   212.20   217.36   228.13
                              249.86   334.67   384.35   428.95   478.29
                              486.67   536.37   565.85   614.55   626.65
                              681.50   711.80   751.60   803.79   820.51
                              853.99   865.25   896.83   898.16   977.42
                             1015.59  1039.15  1064.57  1112.27  1135.41
                             1174.93  1238.37  1256.33  1308.96  1335.22
                             1380.60  1408.86  1451.53  1468.55  1491.75
                             1595.70  1598.45  1606.27  1671.96  1715.08
                             1736.72  1813.10  1823.15  1858.69  1905.03
                             1926.51  1956.06  1985.62  2011.69  2021.83
                             2050.92  2087.53  2187.79  2225.05  2314.40
                             2346.92  2374.76  2406.99  2487.85  2581.74
                             2641.94  4432.19  4533.66  4603.92  4610.59
                             4628.37  4642.82  4681.68  5147.10  5315.44
                             5326.77

 Zero-point correction=                           0.212185 (Hartree/Particle)
 Thermal correction to Energy=                    0.229552
 Thermal correction to Enthalpy=                  0.230496
 Thermal correction to Gibbs Free Energy=         0.164716
 Sum of electronic and zero-point Energies=           -985.772540
 Sum of electronic and thermal Energies=              -985.755174
 Sum of electronic and thermal Enthalpies=            -985.754229
 Sum of electronic and thermal Free Energies=         -985.820009

                     E (Thermal)             CV                S
                      KCal/Mol        Cal/Mol-Kelvin    Cal/Mol-Kelvin
 Total                  144.046             63.937            138.444
 Electronic               0.000              0.000              0.000
 Translational            0.889              2.981             42.635
 Rotational               0.889              2.981             33.736
 Vibrational            142.268             57.976             62.074
 Vibration     1          0.593              1.985              6.386
 Vibration     2          0.594              1.983              5.622
 Vibration     3          0.595              1.980              5.122
 Vibration     4          0.596              1.975              4.565
 Vibration     5          0.599              1.965              3.993
 Vibration     6          0.601              1.959              3.750
 Vibration     7          0.612              1.923              2.940
 Vibration     8          0.617              1.905              2.704
 Vibration     9          0.618              1.901              2.659
 Vibration    10          0.621              1.893              2.567
 Vibration    11          0.627              1.875              2.395
 Vibration    12          0.653              1.791              1.859
 Vibration    13          0.672              1.733              1.615
 Vibration    14          0.691              1.677              1.427
 Vibration    15          0.714              1.611              1.248
 Vibration    16          0.719              1.599              1.220
 Vibration    17          0.744              1.528              1.068
 Vibration    18          0.760              1.485              0.988
 Vibration    19          0.789              1.411              0.868
 Vibration    20          0.796              1.393              0.841
 Vibration    21          0.830              1.308              0.727
 Vibration    22          0.850              1.262              0.671
 Vibration    23          0.877              1.200              0.604
 Vibration    24          0.914              1.121              0.527
 Vibration    25          0.926              1.096              0.504
 Vibration    26          0.951              1.046              0.461
 Vibration    27          0.960              1.029              0.447

                           ! Non-Optimized Parameters !
 Normal termination of Gaussian 16 at Mon Dec 14 17:00:27 2020.

 ----------------------------------------------------------------------
 # B3LYP/6-311++G(d,p) empiricaldispersion=gd3bj scf=xqc pop=npa geom=c
 heck
 ----------------------------------------------------------------------

 --------------------------------------
 CID_76941114_JID_9097_Energie_neutraal
 --------------------------------------
 Structure from the checkpoint file:  "JID_9097.chk"
 Charge =  0 Multiplicity = 1

 SCF Done:  E(RB3LYP) =  -986.285002356     A.U. after   19 cycles
 Normal termination of Gaussian 16 at Mon Dec 14 17:07:26 2020.

 ----------------------------------------------------------------------
 # B3LYP/6-311++G(d,p) empiricaldispersion=gd3bj scf=xqc pop=npa geom=c
 heck
 ----------------------------------------------------------------------

 ------------------------------------
 CID_76941114_JID_9097_Energie_kation
 ------------------------------------
 Structure from the checkpoint file:  "JID_9097.chk"
 Charge =  1 Multiplicity = 2

 SCF Done:  E(UB3LYP) =  -985.954252920     A.U. after   32 cycles
 Normal termination of Gaussian 16 at Mon Dec 14 17:24:13 2020.
 Gaussian 16:  ES64L-G16RevA.03 25-Dec-2016

 ----------------------------------------------------------------------
 # B3LYP/6-311++G(d,p) empiricaldispersion=gd3bj scf=xqc pop=npa geom=c
 heck
 ----------------------------------------------------------------------

 -----------------------------------
 CID_76941114_JID_9097_Energie_anion
 -----------------------------------
 Structure from the checkpoint file:  "JID_9097.chk"
 Charge = -1 Multiplicity = 2

                         Standard orientation:
 ---------------------------------------------------------------------
 Center     Atomic      Atomic             Coordinates (Angstroms)
 Number     Number       Type             X           Y           Z
 ---------------------------------------------------------------------
      1          6           0        2.523108    0.844188   -1.142372
      2          6           0        1.423824    1.682522   -1.234090
      3          6           0        0.342123    1.577144   -0.344652
      4          6           0        0.425230    0.586008    0.658297
      5          6           0        1.506210   -0.292229    0.714243
      6          6           0        2.574435   -0.164586   -0.167318
      7          6           0        3.708754   -1.133551   -0.021476
      8          8           0        3.584613   -2.183716    0.592974
      9          7           0        4.883734   -0.785714   -0.648038
     10          7           0       -0.551869    0.469195    1.738422
     11          8           0       -1.086246    1.508524    2.135961
     12          8           0       -0.752743   -0.644549    2.216331
     13          8           0       -0.668017    2.445440   -0.581343
     14          6           0       -2.057507    2.069077   -0.446195
     15          6           0       -2.318102    0.662471   -0.888840
     16          6           0       -2.990176   -0.223820   -0.147357
     17          6           0       -3.294268   -1.605291   -0.580558
     18          8           0       -3.958525   -2.387352    0.065448
     19          8           0       -2.754191   -1.921848   -1.786445
     20          1           0        3.319586    0.941471   -1.873693
     21          1           0        1.348928    2.429956   -2.016300
     22          1           0        1.524811   -1.069370    1.468240
     23          1           0        5.099413    0.187539   -0.810493
     24          1           0        5.671613   -1.382994   -0.432608
     25          1           0       -2.390595    2.236376    0.578669
     26          1           0       -2.567397    2.776650   -1.108286
     27          1           0       -1.943452    0.378111   -1.869331
     28          1           0       -3.355686    0.021018    0.845484
     29          1           0       -3.011181   -2.846721   -1.955870
 ---------------------------------------------------------------------

 SCF Done:  E(UB3LYP) =  -986.334634860     A.U. after   29 cycles

 The electronic state is 2-A.
 Alpha  occ. eigenvalues --  -19.06276 -19.03896 -18.99773 -18.99080 -18.97169
 Alpha  occ. eigenvalues --  -18.97107 -14.35034 -14.24363 -10.18849 -10.17785
 Alpha  occ. eigenvalues --  -10.12680 -10.11653 -10.09131 -10.07357 -10.07055
 Alpha  occ. eigenvalues --  -10.06606 -10.06600 -10.06258 -10.06170  -1.05194
 Alpha  occ. eigenvalues --   -0.99957  -0.95454  -0.94190  -0.90813  -0.87910
 Alpha  occ. eigenvalues --   -0.81588  -0.75337  -0.69969  -0.66913  -0.65373
 Alpha  occ. eigenvalues --   -0.60697  -0.55958  -0.54379  -0.51187  -0.48985
 Alpha  occ. eigenvalues --   -0.47728  -0.46307  -0.44076  -0.42001  -0.40161
 Alpha  occ. eigenvalues --   -0.39137  -0.38338  -0.37500  -0.36861  -0.35449
 Alpha  occ. eigenvalues --   -0.34632  -0.34403  -0.33954  -0.33201  -0.32259
 Alpha  occ. eigenvalues --   -0.31896  -0.31296  -0.29813  -0.28780  -0.28130
 Alpha  occ. eigenvalues --   -0.26129  -0.25632  -0.23216  -0.22047  -0.20142
 Alpha  occ. eigenvalues --   -0.18992  -0.17392  -0.17162  -0.16362  -0.15670
 Alpha  occ. eigenvalues --   -0.15412  -0.14439  -0.12841  -0.11880   0.00995
 Alpha virt. eigenvalues --    0.05170   0.06030   0.06724   0.07970   0.08619
 Alpha virt. eigenvalues --    0.09408   0.10332   0.10884   0.11971   0.12177
 Alpha virt. eigenvalues --    0.12665   0.13322   0.13962   0.15375   0.15557

  Beta  occ. eigenvalues --  -19.06262 -19.03849 -18.99659 -18.99076 -18.96819
  Beta  occ. eigenvalues --  -18.96685 -14.34467 -14.24366 -10.18791 -10.17777
  Beta  occ. eigenvalues --  -10.12504 -10.11630 -10.09126 -10.07258 -10.07114
  Beta  occ. eigenvalues --  -10.06531 -10.06370 -10.06294 -10.06055  -1.04300
  Beta  occ. eigenvalues --   -0.99869  -0.95315  -0.94184  -0.90659  -0.87177
  Beta  occ. eigenvalues --   -0.81589  -0.75105  -0.69746  -0.66481  -0.65164
  Beta  occ. eigenvalues --   -0.60521  -0.55232  -0.54210  -0.51028  -0.48777
  Beta  occ. eigenvalues --   -0.47565  -0.46182  -0.43843  -0.41800  -0.39872
  Beta  occ. eigenvalues --   -0.38861  -0.37997  -0.37185  -0.36024  -0.34835
  Beta  occ. eigenvalues --   -0.34117  -0.33750  -0.33598  -0.32965  -0.32144
  Beta  occ. eigenvalues --   -0.31815  -0.31084  -0.29675  -0.28575  -0.27939
  Beta  occ. eigenvalues --   -0.25942  -0.25384  -0.22892  -0.21667  -0.19843
  Beta  occ. eigenvalues --   -0.18989  -0.17117  -0.16545  -0.16342  -0.14913
  Beta  occ. eigenvalues --   -0.14072  -0.12901  -0.12459  -0.11328
  Beta virt. eigenvalues --    0.05788   0.05991   0.06813   0.07917   0.08249
  Beta virt. eigenvalues --    0.08616   0.09407   0.10853   0.11505   0.11996
  Beta virt. eigenvalues --    0.12483   0.12981   0.13373   0.13955   0.15532

 Mulliken charges and spin densities:
               1          2
     1  C   -0.683288   0.186777
     2  C   -0.395276  -0.071664
     3  C   -0.289597   0.120322
     4  C    0.624084  -0.001169
     5  C   -0.450172   0.073022
     6  C    0.804623  -0.010626
     7  C   -0.155641   0.005243
     8  O   -0.344576   0.000874
     9  N   -0.342582  -0.007075
    10  N   -0.323434   0.186923
    11  O   -0.066628   0.151935
    12  O   -0.106471   0.138155
    13  O   -0.083838   0.003063
    14  C   -0.691821   0.000213
    15  C    0.325219   0.077235
    16  C   -0.221373   0.070458
    17  C   -0.162017   0.048585
    18  O   -0.321535   0.034378
    19  O   -0.207630   0.002017
    20  H    0.106143  -0.015877
    21  H    0.156457   0.002608
    22  H    0.255006  -0.000993
    23  H    0.203149   0.009880
    24  H    0.294147   0.000559
    25  H    0.222088   0.003344
    26  H    0.149407  -0.002091
    27  H    0.203711  -0.003216
    28  H    0.236588  -0.003603
    29  H    0.265256   0.000722
 Sum of Mulliken charges =  -1.00000   1.00000

 Dipole moment (field-independent basis, Debye):
    X=              4.0607    Y=              2.8995    Z=             -6.9964  Tot=              8.5934
 Quadrupole moment (field-independent basis, Debye-Ang):
   XX=           -131.1423   YY=           -134.3765   ZZ=           -129.9206
   XY=              0.5503   XZ=              5.6761   YZ=              3.3858

 Summary of Natural Population Analysis:

                                       Natural Population
                Natural  -----------------------------------------------
    Atom  No    Charge         Core      Valence    Rydberg      Total
 -----------------------------------------------------------------------
      C    1   -0.04334      0.99955     2.03565    0.00814     3.04334
      C    2   -0.13522      0.99954     2.12656    0.00912     3.13522
      C    3    0.20637      0.99934     1.78147    0.01281     2.79363
      C    4    0.01356      0.99936     1.97314    0.01394     2.98644
      C    5   -0.04240      0.99950     2.03420    0.00871     3.04240
      C    6   -0.10475      0.99945     2.09606    0.00924     3.10475
      C    7    0.33345      0.99966     1.64457    0.02232     2.66655
      O    8   -0.32040      0.99988     3.31343    0.00709     4.32040
      N    9   -0.41155      0.99971     2.90487    0.00697     3.91155
      N   10    0.29960      0.99971     2.17372    0.02698     3.20040
      O   11   -0.19750      0.99990     3.18924    0.00837     4.19750
      O   12   -0.19082      0.99990     3.18287    0.00805     4.19082
      O   13   -0.27330      0.99985     3.26360    0.00985     4.27330
      C   14   -0.02499      0.99953     2.01492    0.01054     3.02499
      C   15   -0.06146      0.99954     2.05391    0.00801     3.06146
      C   16   -0.12830      0.99946     2.11851    0.01033     3.12830
      C   17    0.39140      0.99970     1.58431    0.02459     2.60860
      O   18   -0.29822      0.99987     3.29107    0.00727     4.29822
      O   19   -0.35098      0.99988     3.34518    0.00592     4.35098
      H   20    0.09076      0.00000     0.40800    0.00124     0.40924
      H   21    0.10056      0.00000     0.39794    0.00150     0.39944
      H   22    0.12486      0.00000     0.37393    0.00121     0.37514
      H   23    0.19047      0.00000     0.30793    0.00160     0.30953
      H   24    0.18955      0.00000     0.30858    0.00187     0.31045
      H   25    0.10682      0.00000     0.39188    0.00130     0.39318
      H   26    0.08818      0.00000     0.41055    0.00127     0.41182
      H   27    0.10080      0.00000     0.39801    0.00119     0.39920
      H   28    0.11109      0.00000     0.38732    0.00159     0.38891
      H   29    0.23576      0.00000     0.26130    0.00294     0.26424
 =======================================================================
   * Total *    0.00000     18.99333    49.77274    0.23394    69.00000

 Normal termination of Gaussian 16 at Mon Dec 14 17:39:45 2020.
