 Gaussian 16, Revision A.03,

 -----------------------------------------------------------
 # opt freq B3LYP/6-31G(d) empiricaldispersion=gd3bj scf=xqc
 -----------------------------------------------------------

 ------------------------------
 CID_70306698_JID_5236_neutraal
 ------------------------------
 Symbolic Z-matrix:
 Charge =  0 Multiplicity = 1

 SCF Done:  E(RB3LYP) =  -645.415101496     A.U. after   15 cycles
 SCF Done:  E(RB3LYP) =  -645.424886090     A.U. after   12 cycles
 SCF Done:  E(RB3LYP) =  -645.425714428     A.U. after   12 cycles
 SCF Done:  E(RB3LYP) =  -645.425868459     A.U. after   11 cycles
 SCF Done:  E(RB3LYP) =  -645.425892951     A.U. after   11 cycles
 SCF Done:  E(RB3LYP) =  -645.425899560     A.U. after    9 cycles
 SCF Done:  E(RB3LYP) =  -645.425901222     A.U. after    8 cycles
 SCF Done:  E(RB3LYP) =  -645.425901627     A.U. after    7 cycles
 SCF Done:  E(RB3LYP) =  -645.425901744     A.U. after    7 cycles
 Optimization completed.
    -- Stationary point found.
 Normal termination of Gaussian 16 at Thu Dec 10 14:47:38 2020.

 --------------------------------------------------------------------
 #N Geom=AllCheck Guess=TCheck SCRF=Check GenChk RB3LYP/6-31G(d) Freq
 --------------------------------------------------------------------

 Structure from the checkpoint file:  "JID_5236.chk"
 ------------------------------
 CID_70306698_JID_5236_neutraal
 ------------------------------
 Charge =  0 Multiplicity = 1

 SCF Done:  E(RB3LYP) =  -645.425901744     A.U. after    1 cycles

  Exact polarizability: 197.318   9.271 138.588   3.610   8.030  78.529
 Approx polarizability: 307.963  21.757 241.722   5.976  30.181 125.106

                      1                      2                      3
                      A                      A                      A
 Frequencies --     45.1279                66.8654                73.5057
 Red. masses --      3.6910                 5.0251                 3.9960
 Frc consts  --      0.0044                 0.0132                 0.0127
 IR Inten    --      0.3988                 0.7110                 0.9491

                      4                      5                      6
                      A                      A                      A
 Frequencies --    113.0178               125.6163               171.0177
 Red. masses --      2.9191                 3.2727                 2.9354
 Frc consts  --      0.0220                 0.0304                 0.0506
 IR Inten    --      1.6206                 3.9118                 0.3732

                      7                      8                      9
                      A                      A                      A
 Frequencies --    206.7941               253.7383               274.6816
 Red. masses --      4.4760                 2.6896                 1.5104
 Frc consts  --      0.1128                 0.1020                 0.0671
 IR Inten    --      0.3680                 9.7305                23.4441

                     10                     11                     12
                      A                      A                      A
 Frequencies --    297.8713               338.6785               372.0252
 Red. masses --      3.0869                 2.1268                 4.6034
 Frc consts  --      0.1614                 0.1437                 0.3754
 IR Inten    --      2.1087                14.0418                 4.4161

                     13                     14                     15
                      A                      A                      A
 Frequencies --    416.1441               444.6765               478.0296
 Red. masses --      2.8294                 4.2107                 3.6551
 Frc consts  --      0.2887                 0.4906                 0.4921
 IR Inten    --      0.6533                 0.2501                 8.4230

                     16                     17                     18
                      A                      A                      A
 Frequencies --    505.9154               538.6569               571.2513
 Red. masses --      3.0351                 4.1835                 4.6807
 Frc consts  --      0.4577                 0.7152                 0.8999
 IR Inten    --      6.9418                 1.3446                 7.5556

                     19                     20                     21
                      A                      A                      A
 Frequencies --    577.2251               602.6266               666.1153
 Red. masses --      3.7385                 3.2205                 2.6036
 Frc consts  --      0.7339                 0.6891                 0.6806
 IR Inten    --      5.3426                 1.0162                 1.8988

                     22                     23                     24
                      A                      A                      A
 Frequencies --    710.9192               757.8062               775.5264
 Red. masses --      5.8210                 4.4882                 4.1167
 Frc consts  --      1.7334                 1.5186                 1.4588
 IR Inten    --      4.6911                24.3929                 7.8399

                     25                     26                     27
                      A                      A                      A
 Frequencies --    843.4236               873.8224               903.1068
 Red. masses --      5.7037                 1.3653                 4.1854
 Frc consts  --      2.3906                 0.6142                 2.0112
 IR Inten    --      8.1380                96.1147                20.5663

                     28                     29                     30
                      A                      A                      A
 Frequencies --    906.5653               935.8050               944.3093
 Red. masses --      2.8751                 1.7482                 1.4694
 Frc consts  --      1.3922                 0.9020                 0.7720
 IR Inten    --      2.7085                 1.7166                28.2287

                     31                     32                     33
                      A                      A                      A
 Frequencies --    944.7743               975.7315               983.0091
 Red. masses --      1.4958                 1.5527                 1.7753
 Frc consts  --      0.7866                 0.8709                 1.0107
 IR Inten    --     15.4617                 3.4010                10.8995

                     34                     35                     36
                      A                      A                      A
 Frequencies --   1004.5973              1022.2487              1038.0502
 Red. masses --      1.4970                 2.1665                 1.2106
 Frc consts  --      0.8902                 1.3339                 0.7686
 IR Inten    --      0.1603                 9.0528                13.9266

                     37                     38                     39
                      A                      A                      A
 Frequencies --   1057.5045              1109.9365              1146.7524
 Red. masses --      2.8653                 2.5835                 3.5948
 Frc consts  --      1.8879                 1.8753                 2.7853
 IR Inten    --      2.0000                17.4508                22.7901

                     40                     41                     42
                      A                      A                      A
 Frequencies --   1161.7297              1182.4889              1235.7145
 Red. masses --      2.2571                 1.4611                 2.3023
 Frc consts  --      1.7948                 1.2037                 2.0713
 IR Inten    --      0.6960                15.8284                 7.2025

                     43                     44                     45
                      A                      A                      A
 Frequencies --   1255.0943              1277.4102              1304.0779
 Red. masses --      1.6296                 2.6556                 2.0310
 Frc consts  --      1.5124                 2.5531                 2.0351
 IR Inten    --      2.4831                 6.4817                 0.6037

                     46                     47                     48
                      A                      A                      A
 Frequencies --   1332.6830              1339.0939              1349.7596
 Red. masses --      1.3640                 1.3683                 1.4221
 Frc consts  --      1.4273                 1.4456                 1.5264
 IR Inten    --      4.1180                 2.0402                 0.6324

                     49                     50                     51
                      A                      A                      A
 Frequencies --   1354.7722              1391.7126              1414.7269
 Red. masses --      2.2108                 3.5992                 1.7416
 Frc consts  --      2.3908                 4.1073                 2.0537
 IR Inten    --      2.8961                23.6318                17.6772

                     52                     53                     54
                      A                      A                      A
 Frequencies --   1449.7293              1460.9261              1471.8063
 Red. masses --      1.4673                 2.1809                 1.2228
 Frc consts  --      1.8169                 2.7425                 1.5607
 IR Inten    --     37.6215                 2.9774                 5.9900

                     55                     56                     57
                      A                      A                      A
 Frequencies --   1483.2994              1521.5553              1539.2208
 Red. masses --      3.5792                 2.9658                 1.1321
 Frc consts  --      4.6397                 4.0455                 1.5803
 IR Inten    --     11.6474                31.7942                11.1612

                     58                     59                     60
                      A                      A                      A
 Frequencies --   1550.1765              1601.7711              1641.5913
 Red. masses --      1.0864                 7.2432                 5.9332
 Frc consts  --      1.5382                10.9492                 9.4204
 IR Inten    --      1.0199               133.9168                95.1230

                     61                     62                     63
                      A                      A                      A
 Frequencies --   1645.3816              1692.1614              1726.5847
 Red. masses --      6.6033                 1.1034                 4.4228
 Frc consts  --     10.5327                 1.8615                 7.7683
 IR Inten    --     76.1165                24.4488                 6.9413

                     64                     65                     66
                      A                      A                      A
 Frequencies --   2981.6212              3061.3877              3081.7419
 Red. masses --      1.0729                 1.0657                 1.0890
 Frc consts  --      5.6199                 5.8849                 6.0937
 IR Inten    --     69.4275                16.6431                 8.7839

                     67                     68                     69
                      A                      A                      A
 Frequencies --   3123.4842              3142.3485              3151.7567
 Red. masses --      1.0966                 1.0896                 1.0747
 Frc consts  --      6.3032                 6.3393                 6.2901
 IR Inten    --      5.7946                36.7482                11.8969

                     70                     71                     72
                      A                      A                      A
 Frequencies --   3161.4324              3176.9848              3191.1510
 Red. masses --      1.0758                 1.0891                 1.0915
 Frc consts  --      6.3348                 6.4769                 6.5489
 IR Inten    --      3.9413                22.4060                35.0602

                     73                     74                     75
                      A                      A                      A
 Frequencies --   3240.5035              3465.8830              3553.7631
 Red. masses --      1.1161                 1.0495                 1.0932
 Frc consts  --      6.9051                 7.4279                 8.1345
 IR Inten    --     16.4871                 2.0463                 0.2670

 - Thermochemistry -
 -------------------
 Temperature   298.150 Kelvin.  Pressure   1.00000 Atm.
 Atom     1 has atomic number  6 and mass  12.00000

 Molecular mass:   200.10620 amu.
 Principal axes and moments of inertia in atomic units:
                           1         2         3
     Eigenvalues --  1820.466533845.714365162.30821
           X            0.99998   0.00549   0.00113
           Y           -0.00548   0.99993  -0.01054
           Z           -0.00119   0.01054   0.99994
 This molecule is an asymmetric top.
 Rotational symmetry number  1.
 Warning -- assumption of classical behavior for rotation
           may cause significant error
 Rotational temperatures (Kelvin)      0.04758     0.02252     0.01678
 Rotational constants (GHZ):           0.99136     0.46929     0.34960
 Zero-point vibrational energy     578926.8 (Joules/Mol)
                                  138.36681 (Kcal/Mol)
 Warning -- explicit consideration of  20 degrees of freedom as
           vibrations may cause significant error
 Vibrational temperatures:     64.93    96.20   105.76   162.61   180.73
          (Kelvin)            246.06   297.53   365.07   395.21   428.57
                              487.28   535.26   598.74   639.79   687.78
                              727.90   775.01   821.90   830.50   867.05
                              958.39  1022.85  1090.31  1115.81  1213.50
                             1257.24  1299.37  1304.35  1346.41  1358.65
                             1359.32  1403.86  1414.33  1445.39  1470.79
                             1493.52  1521.51  1596.95  1649.92  1671.47
                             1701.34  1777.92  1805.80  1837.91  1876.28
                             1917.43  1926.66  1942.00  1949.22  2002.36
                             2035.48  2085.84  2101.95  2117.60  2134.14
                             2189.18  2214.60  2230.36  2304.59  2361.88
                             2367.34  2434.64  2484.17  4289.89  4404.65
                             4433.94  4494.00  4521.14  4534.67  4548.60
                             4570.97  4591.35  4662.36  4986.63  5113.07

 Zero-point correction=                           0.220502 (Hartree/Particle)
 Thermal correction to Energy=                    0.233345
 Thermal correction to Enthalpy=                  0.234289
 Thermal correction to Gibbs Free Energy=         0.180580
 Sum of electronic and zero-point Energies=           -645.205400
 Sum of electronic and thermal Energies=              -645.192557
 Sum of electronic and thermal Enthalpies=            -645.191613
 Sum of electronic and thermal Free Energies=         -645.245322

                     E (Thermal)             CV                S
                      KCal/Mol        Cal/Mol-Kelvin    Cal/Mol-Kelvin
 Total                  146.426             49.277            113.040
 Electronic               0.000              0.000              0.000
 Translational            0.889              2.981             41.786
 Rotational               0.889              2.981             31.958
 Vibrational            144.649             43.316             39.296
 Vibration     1          0.595              1.979              5.020
 Vibration     2          0.598              1.970              4.244
 Vibration     3          0.599              1.966              4.057
 Vibration     4          0.607              1.939              3.216
 Vibration     5          0.611              1.927              3.012
 Vibration     6          0.626              1.878              2.424
 Vibration     7          0.641              1.830              2.072
 Vibration     8          0.665              1.756              1.704
 Vibration     9          0.677              1.720              1.567
 Vibration    10          0.691              1.678              1.429
 Vibration    11          0.719              1.598              1.218
 Vibration    12          0.744              1.530              1.071
 Vibration    13          0.779              1.435              0.905
 Vibration    14          0.804              1.373              0.812
 Vibration    15          0.835              1.299              0.715
 Vibration    16          0.861              1.237              0.643
 Vibration    17          0.894              1.165              0.568
 Vibration    18          0.927              1.093              0.502
 Vibration    19          0.934              1.081              0.491
 Vibration    20          0.961              1.026              0.445

 Optimization completed.
    -- Stationary point found.
 Normal termination of Gaussian 16 at Thu Dec 10 14:56:37 2020.

 ----------------------------------------------------------------------
 # B3LYP/6-311++G(d,p) empiricaldispersion=gd3bj scf=xqc pop=npa geom=c
 heck
 ----------------------------------------------------------------------

 --------------------------------------
 CID_70306698_JID_5236_Energie_neutraal
 --------------------------------------
 Structure from the checkpoint file:  "JID_5236.chk"
 Charge =  0 Multiplicity = 1

 SCF Done:  E(RB3LYP) =  -645.599256645     A.U. after   15 cycles
 Normal termination of Gaussian 16 at Thu Dec 10 15:00:41 2020.

 ----------------------------------------------------------------------
 # B3LYP/6-311++G(d,p) empiricaldispersion=gd3bj scf=xqc pop=npa geom=c
 heck
 ----------------------------------------------------------------------

 ------------------------------------
 CID_70306698_JID_5236_Energie_kation
 ------------------------------------
 Structure from the checkpoint file:  "JID_5236.chk"
 Charge =  1 Multiplicity = 2

 SCF Done:  E(UB3LYP) =  -645.279076517     A.U. after   33 cycles
 SCF Done:  E(UB3LYP) =  -645.279076517     a.u. after    1 cycles
 Normal termination of Gaussian 16 at Thu Dec 10 15:13:00 2020.
 Gaussian 16:  ES64L-G16RevA.03 25-Dec-2016

 ----------------------------------------------------------------------
 # B3LYP/6-311++G(d,p) empiricaldispersion=gd3bj scf=xqc pop=npa geom=c
 heck
 ----------------------------------------------------------------------

 -----------------------------------
 CID_70306698_JID_5236_Energie_anion
 -----------------------------------
 Structure from the checkpoint file:  "JID_5236.chk"
 Charge = -1 Multiplicity = 2

                         Standard orientation:
 ---------------------------------------------------------------------
 Center     Atomic      Atomic             Coordinates (Angstroms)
 Number     Number       Type             X           Y           Z
 ---------------------------------------------------------------------
      1          6           0       -3.034841    2.298459   -0.920242
      2          6           0       -1.766563    2.085343   -0.569085
      3          6           0       -1.342824    1.283565    0.638882
      4          6           0       -0.448083    0.128828    0.235461
      5          6           0        0.969895    0.264389    0.184576
      6          6           0        1.683558    1.450031    0.502912
      7          7           0        2.996061    1.541346    0.441718
      8          6           0        3.650472    0.411762    0.050870
      9          7           0        3.128752   -0.747608   -0.279578
     10          6           0        1.771828   -0.845208   -0.225647
     11          7           0        1.231508   -2.038163   -0.581310
     12          6           0       -0.082238   -2.122462   -0.540663
     13          6           0       -0.979679   -1.092171   -0.154739
     14          6           0       -2.465271   -1.371948   -0.180686
     15          7           0       -3.031368   -1.359596    1.177864
     16          1           0       -3.860307    1.905484   -0.330592
     17          1           0       -3.294499    2.883425   -1.798094
     18          1           0       -0.961434    2.492340   -1.181362
     19          1           0       -0.816793    1.932608    1.348583
     20          1           0       -2.217973    0.883801    1.156808
     21          1           0        1.152012    2.348757    0.809634
     22          1           0        4.734721    0.493438    0.009359
     23          1           0       -0.504592   -3.084211   -0.836746
     24          1           0       -2.971408   -0.587689   -0.754998
     25          1           0       -2.629864   -2.318160   -0.722701
     26          1           0       -4.029897   -1.556901    1.132137
     27          1           0       -2.612165   -2.108273    1.727278
 ---------------------------------------------------------------------

 SCF Done:  E(UB3LYP) =  -645.632010415     A.U. after   22 cycles

 The electronic state is 2-A.
 Alpha  occ. eigenvalues --  -14.19412 -14.15507 -14.14726 -14.14379 -10.08932
 Alpha  occ. eigenvalues --  -10.08492 -10.07861 -10.07055 -10.05740 -10.05575
 Alpha  occ. eigenvalues --  -10.05283 -10.05112 -10.04316 -10.03993 -10.03870
 Alpha  occ. eigenvalues --   -0.83512  -0.78913  -0.77894  -0.72829  -0.69933
 Alpha  occ. eigenvalues --   -0.65842  -0.63398  -0.58303  -0.54836  -0.52047
 Alpha  occ. eigenvalues --   -0.49060  -0.46656  -0.44406  -0.40340  -0.39292
 Alpha  occ. eigenvalues --   -0.38587  -0.36053  -0.35029  -0.33762  -0.32100
 Alpha  occ. eigenvalues --   -0.31541  -0.30085  -0.28858  -0.28367  -0.26794
 Alpha  occ. eigenvalues --   -0.25861  -0.24838  -0.24464  -0.23568  -0.22674
 Alpha  occ. eigenvalues --   -0.17898  -0.16015  -0.15141  -0.14205  -0.13263
 Alpha  occ. eigenvalues --   -0.11792  -0.11317  -0.09627   0.02476
 Alpha virt. eigenvalues --    0.06923   0.08448   0.09560   0.09898   0.10508
 Alpha virt. eigenvalues --    0.10893   0.11263   0.11315   0.11904   0.12727
 Alpha virt. eigenvalues --    0.13384   0.13587   0.14095   0.14687   0.16016

  Beta  occ. eigenvalues --  -14.19388 -14.15397 -14.14460 -14.14092 -10.08979
  Beta  occ. eigenvalues --  -10.08494 -10.07792 -10.07023 -10.05706 -10.05406
  Beta  occ. eigenvalues --  -10.05143 -10.04897 -10.04424 -10.03899 -10.03548
  Beta  occ. eigenvalues --   -0.83125  -0.78597  -0.77662  -0.72325  -0.69612
  Beta  occ. eigenvalues --   -0.65569  -0.63145  -0.58125  -0.54654  -0.51449
  Beta  occ. eigenvalues --   -0.48930  -0.46350  -0.44220  -0.40126  -0.39086
  Beta  occ. eigenvalues --   -0.38447  -0.35861  -0.34929  -0.33616  -0.31930
  Beta  occ. eigenvalues --   -0.31413  -0.29888  -0.28306  -0.28015  -0.26648
  Beta  occ. eigenvalues --   -0.25668  -0.24656  -0.24252  -0.23410  -0.21424
  Beta  occ. eigenvalues --   -0.16469  -0.15784  -0.14881  -0.14110  -0.12188
  Beta  occ. eigenvalues --   -0.11474  -0.09708  -0.09415
  Beta virt. eigenvalues --    0.06710   0.08157   0.08422   0.09809   0.10060
  Beta virt. eigenvalues --    0.10577   0.10867   0.11293   0.11466   0.11903
  Beta virt. eigenvalues --    0.12869   0.13502   0.13865   0.14320   0.15242

 Mulliken charges and spin densities:
               1          2
     1  C   -0.579196  -0.002888
     2  C   -0.102327   0.037366
     3  C   -0.011331  -0.090438
     4  C    0.420106   0.309818
     5  C    0.274172  -0.067923
     6  C   -0.206058   0.267058
     7  N   -0.137050   0.050067
     8  C    0.015626   0.050367
     9  N   -0.114508   0.127583
    10  C   -0.774026  -0.022075
    11  N   -0.073573   0.126704
    12  C   -0.100157   0.113617
    13  C    0.529350  -0.054572
    14  C   -1.684296   0.114317
    15  N   -0.235260  -0.061745
    16  H    0.085898   0.017676
    17  H    0.104639  -0.003577
    18  H    0.175289  -0.001620
    19  H    0.115581   0.043372
    20  H    0.245045   0.002117
    21  H    0.135535  -0.020919
    22  H    0.169385  -0.005346
    23  H    0.141779  -0.010502
    24  H    0.158417   0.013726
    25  H    0.113377  -0.004763
    26  H    0.138169   0.052284
    27  H    0.195415   0.020299
 Sum of Mulliken charges =  -1.00000   1.00000

 Dipole moment (field-independent basis, Debye):
    X=             -7.2883    Y=              0.7200    Z=              0.2518  Tot=              7.3281
 Quadrupole moment (field-independent basis, Debye-Ang):
   XX=           -127.9895   YY=           -113.5742   ZZ=            -98.8655
   XY=              6.8526   XZ=              1.8754   YZ=             -5.8760

 Summary of Natural Population Analysis:

                                       Natural Population
                Natural  -----------------------------------------------
    Atom  No    Charge         Core      Valence    Rydberg      Total
 -----------------------------------------------------------------------
      C    1   -0.20748      0.99957     2.20077    0.00713     3.20748
      C    2   -0.06102      0.99956     2.05280    0.00866     3.06102
      C    3   -0.23344      0.99959     2.22293    0.01093     3.23344
      C    4    0.09973      0.99944     1.88997    0.01087     2.90027
      C    5   -0.10104      0.99944     2.09048    0.01112     3.10104
      C    6    0.12319      0.99959     1.86367    0.01355     2.87681
      N    7   -0.25011      0.99972     2.73889    0.01150     3.75011
      C    8    0.14213      0.99967     1.83853    0.01966     2.85787
      N    9   -0.21275      0.99967     2.70252    0.01055     3.71275
      C   10    0.18185      0.99949     1.79629    0.02237     2.81815
      N   11   -0.20253      0.99968     2.69085    0.01200     3.70253
      C   12    0.07416      0.99957     1.91247    0.01380     2.92584
      C   13   -0.06098      0.99945     2.04963    0.01190     3.06098
      C   14   -0.09935      0.99960     2.08754    0.01221     3.09935
      N   15   -0.41867      0.99977     2.91018    0.00872     3.91867
      H   16    0.08759      0.00000     0.41115    0.00127     0.41241
      H   17    0.08779      0.00000     0.41104    0.00117     0.41221
      H   18    0.09269      0.00000     0.40623    0.00108     0.40731
      H   19    0.10702      0.00000     0.39136    0.00161     0.39298
      H   20    0.11813      0.00000     0.37926    0.00261     0.38187
      H   21    0.07607      0.00000     0.42238    0.00156     0.42393
      H   22    0.07026      0.00000     0.42837    0.00137     0.42974
      H   23    0.07498      0.00000     0.42356    0.00146     0.42502
      H   24    0.09399      0.00000     0.40397    0.00205     0.40601
      H   25    0.07805      0.00000     0.41950    0.00245     0.42195
      H   26    0.16649      0.00000     0.33144    0.00207     0.33351
      H   27    0.17326      0.00000     0.32494    0.00181     0.32674
 =======================================================================
   * Total *   -0.00000     14.99380    37.80070    0.20550    53.00000

 Normal termination of Gaussian 16 at Thu Dec 10 15:21:24 2020.
