 Gaussian 16, Revision A.03,

 -----------------------------------------------------------
 # opt freq B3LYP/6-31G(d) empiricaldispersion=gd3bj scf=xqc
 -----------------------------------------------------------

 ------------------------------
 CID_150109310_JID_777_neutraal
 ------------------------------
 Symbolic Z-matrix:
 Charge =  0 Multiplicity = 1

 SCF Done:  E(RB3LYP) =  -548.991965952     A.U. after   33 cycles
 SCF Done:  E(RB3LYP) =  -548.991965952     a.u. after    2 cycles
 SCF Done:  E(RB3LYP) =  -549.013098675     A.U. after   22 cycles
 SCF Done:  E(RB3LYP) =  -549.028311439     A.U. after   22 cycles
 SCF Done:  E(RB3LYP) =  -549.043495845     A.U. after   20 cycles
 SCF Done:  E(RB3LYP) =  -549.058073882     A.U. after   18 cycles
 SCF Done:  E(RB3LYP) =  -549.068792210     A.U. after   17 cycles
 SCF Done:  E(RB3LYP) =  -549.080147035     A.U. after   17 cycles
 SCF Done:  E(RB3LYP) =  -549.089703289     A.U. after   18 cycles
 SCF Done:  E(RB3LYP) =  -549.095531934     A.U. after   16 cycles
 SCF Done:  E(RB3LYP) =  -549.152517883     A.U. after   11 cycles
 SCF Done:  E(RB3LYP) =  -549.152526045     A.U. after   11 cycles
 SCF Done:  E(RB3LYP) =  -549.152527974     A.U. after    9 cycles
 SCF Done:  E(RB3LYP) =  -549.152529712     A.U. after    9 cycles
 SCF Done:  E(RB3LYP) =  -549.152530718     A.U. after    9 cycles
 SCF Done:  E(RB3LYP) =  -549.152530995     A.U. after    8 cycles
 Optimization completed.
    -- Stationary point found.
 Normal termination of Gaussian 16 at Tue Dec  8 14:02:20 2020.

 --------------------------------------------------------------------
 #N Geom=AllCheck Guess=TCheck SCRF=Check GenChk RB3LYP/6-31G(d) Freq
 --------------------------------------------------------------------

 Structure from the checkpoint file:  "JID_777.chk"
 ------------------------------
 CID_150109310_JID_777_neutraal
 ------------------------------
 Charge =  0 Multiplicity = 1

 SCF Done:  E(RB3LYP) =  -549.152530995     A.U. after    1 cycles

  Exact polarizability:  71.123  -1.280  62.973  -4.215  -0.599  58.236
 Approx polarizability: 103.779  -0.584  95.605 -14.764   2.081 101.672

                      1                      2                      3
                      A                      A                      A
 Frequencies --     59.8446                75.5506               135.1486
 Red. masses --      7.9070                 4.8438                 9.6770
 Frc consts  --      0.0167                 0.0163                 0.1041
 IR Inten    --      1.2476                 1.8880                 5.8302

                      4                      5                      6
                      A                      A                      A
 Frequencies --    158.2445               218.1312               257.4468
 Red. masses --      3.5642                 2.7885                 9.5898
 Frc consts  --      0.0526                 0.0782                 0.3745
 IR Inten    --      6.6157                 3.0951                 6.5230

                      7                      8                      9
                      A                      A                      A
 Frequencies --    286.0701               326.6508               452.3031
 Red. masses --      5.1933                 9.5602                 7.5350
 Frc consts  --      0.2504                 0.6010                 0.9082
 IR Inten    --     13.2399                 0.5495                 9.0774

                     10                     11                     12
                      A                      A                      A
 Frequencies --    485.7237               573.3363               619.6009
 Red. masses --      6.9923                 3.0470                 7.9855
 Frc consts  --      0.9720                 0.5901                 1.8062
 IR Inten    --      4.7020                 8.0702                24.2879

                     13                     14                     15
                      A                      A                      A
 Frequencies --    661.9527               696.7735               773.0055
 Red. masses --      1.6175                 6.6309                 9.7321
 Frc consts  --      0.4176                 1.8967                 3.4263
 IR Inten    --     26.7803                51.3665                 8.2755

                     16                     17                     18
                      A                      A                      A
 Frequencies --    786.3180               838.6594               902.4571
 Red. masses --      8.4144                 4.5895                 1.1769
 Frc consts  --      3.0653                 1.9019                 0.5647
 IR Inten    --     26.7494                17.5187               125.0540

                     19                     20                     21
                      A                      A                      A
 Frequencies --    927.6942               958.2860              1076.9810
 Red. masses --      2.1368                 2.5272                 1.8825
 Frc consts  --      1.0835                 1.3673                 1.2865
 IR Inten    --     19.3817                 9.0667                34.4978

                     22                     23                     24
                      A                      A                      A
 Frequencies --   1112.2214              1140.4840              1195.9331
 Red. masses --      1.6132                 6.1100                 2.9988
 Frc consts  --      1.1757                 4.6824                 2.5271
 IR Inten    --      9.9753                76.9099                21.4632

                     25                     26                     27
                      A                      A                      A
 Frequencies --   1221.1417              1269.4058              1311.8254
 Red. masses --      1.3409                 1.9244                 2.4252
 Frc consts  --      1.1781                 1.8270                 2.4589
 IR Inten    --     86.9052                39.6110                12.5587

                     28                     29                     30
                      A                      A                      A
 Frequencies --   1382.6436              1442.2367              1490.4019
 Red. masses --      1.6000                 1.5056                 1.1322
 Frc consts  --      1.8021                 1.8452                 1.4817
 IR Inten    --      6.9391                18.4017                33.1402

                     31                     32                     33
                      A                      A                      A
 Frequencies --   1499.4006              1745.5463              1880.1144
 Red. masses --      1.2248                 7.0089                 9.3018
 Frc consts  --      1.6224                12.5824                19.3724
 IR Inten    --    226.7955                68.9019               330.2598

                     34                     35                     36
                      A                      A                      A
 Frequencies --   2025.5506              3037.9433              3088.2474
 Red. masses --     12.8043                 1.0680                 1.0910
 Frc consts  --     30.9524                 5.8076                 6.1304
 IR Inten    --    466.3830                 2.8269                83.3994

                     37                     38                     39
                      A                      A                      A
 Frequencies --   3103.6182              3154.2639              3490.9383
 Red. masses --      1.0935                 1.0726                 1.0773
 Frc consts  --      6.2059                 6.2876                 7.7355
 IR Inten    --     17.6903               823.7989                 4.5866

 - Thermochemistry -
 -------------------
 Temperature   298.150 Kelvin.  Pressure   1.00000 Atm.
 Atom     1 has atomic number  6 and mass  12.00000

 Molecular mass:   143.02186 amu.
 Principal axes and moments of inertia in atomic units:
                           1         2         3
     Eigenvalues --  1139.912351348.345861902.04198
           X            0.99729  -0.07327   0.00594
           Y            0.07340   0.99696  -0.02621
           Z           -0.00400   0.02657   0.99964
 This molecule is an asymmetric top.
 Rotational symmetry number  1.
 Warning -- assumption of classical behavior for rotation
           may cause significant error
 Rotational temperatures (Kelvin)      0.07598     0.06424     0.04554
 Rotational constants (GHZ):           1.58323     1.33849     0.94884
 Zero-point vibrational energy     274316.2 (Joules/Mol)
                                   65.56316 (Kcal/Mol)
 Warning -- explicit consideration of  12 degrees of freedom as
           vibrations may cause significant error
 Vibrational temperatures:     86.10   108.70   194.45   227.68   313.84
          (Kelvin)            370.41   411.59   469.98   650.76   698.85
                              824.90   891.47   952.40  1002.50  1112.18
                             1131.34  1206.64  1298.43  1334.75  1378.76
                             1549.54  1600.24  1640.90  1720.68  1756.95
                             1826.39  1887.42  1989.32  2075.06  2144.36
                             2157.30  2511.45  2705.07  2914.32  4370.92
                             4443.30  4465.41  4538.28  5022.68

 Zero-point correction=                           0.104482 (Hartree/Particle)
 Thermal correction to Energy=                    0.113647
 Thermal correction to Enthalpy=                  0.114591
 Thermal correction to Gibbs Free Energy=         0.069440
 Sum of electronic and zero-point Energies=           -549.048049
 Sum of electronic and thermal Energies=              -549.038884
 Sum of electronic and thermal Enthalpies=            -549.037940
 Sum of electronic and thermal Free Energies=         -549.083091

                     E (Thermal)             CV                S
                      KCal/Mol        Cal/Mol-Kelvin    Cal/Mol-Kelvin
 Total                   71.314             32.337             95.027
 Electronic               0.000              0.000              0.000
 Translational            0.889              2.981             40.785
 Rotational               0.889              2.981             29.459
 Vibrational             69.537             26.376             24.783
 Vibration     1          0.597              1.973              4.462
 Vibration     2          0.599              1.965              4.003
 Vibration     3          0.613              1.918              2.871
 Vibration     4          0.621              1.893              2.571
 Vibration     5          0.646              1.813              1.975
 Vibration     6          0.667              1.750              1.679
 Vibration     7          0.684              1.700              1.497
 Vibration     8          0.710              1.622              1.277
 Vibration     9          0.811              1.356              0.789
 Vibration    10          0.842              1.282              0.695
 Vibration    11          0.930              1.089              0.498
 Vibration    12          0.980              0.991              0.417

                           ! Non-Optimized Parameters !
 Normal termination of Gaussian 16 at Tue Dec  8 14:04:58 2020.

 ----------------------------------------------------------------------
 # B3LYP/6-311++G(d,p) empiricaldispersion=gd3bj scf=xqc pop=npa geom=c
 heck
 ----------------------------------------------------------------------

 --------------------------------------
 CID_150109310_JID_777_Energie_neutraal
 --------------------------------------
 Structure from the checkpoint file:  "JID_777.chk"
 Charge =  0 Multiplicity = 1

 SCF Done:  E(RB3LYP) =  -549.328552407     A.U. after   15 cycles
 Normal termination of Gaussian 16 at Tue Dec  8 14:10:16 2020.

 ----------------------------------------------------------------------
 # B3LYP/6-311++G(d,p) empiricaldispersion=gd3bj scf=xqc pop=npa geom=c
 heck
 ----------------------------------------------------------------------

 ------------------------------------
 CID_150109310_JID_777_Energie_kation
 ------------------------------------
 Structure from the checkpoint file:  "JID_777.chk"
 Charge =  1 Multiplicity = 2

 SCF Done:  E(UB3LYP) =  -548.956683618     A.U. after   24 cycles
 Normal termination of Gaussian 16 at Tue Dec  8 14:15:32 2020.
 Gaussian 16:  ES64L-G16RevA.03 25-Dec-2016

 ----------------------------------------------------------------------
 # B3LYP/6-311++G(d,p) empiricaldispersion=gd3bj scf=xqc pop=npa geom=c
 heck
 ----------------------------------------------------------------------

 -----------------------------------
 CID_150109310_JID_777_Energie_anion
 -----------------------------------
 Structure from the checkpoint file:  "JID_777.chk"
 Charge = -1 Multiplicity = 2

                         Standard orientation:
 ---------------------------------------------------------------------
 Center     Atomic      Atomic             Coordinates (Angstroms)
 Number     Number       Type             X           Y           Z
 ---------------------------------------------------------------------
      1          6           0        0.864517   -0.537124    1.186370
      2          6           0        2.151765   -0.708958    0.421756
      3          6           0       -0.327066   -0.120155    0.335992
      4          6           0       -1.117485   -1.138602   -0.352190
      5          8           0       -1.343878   -1.898263   -1.242277
      6          8           0       -1.633821   -0.750794    0.812078
      7          6           0       -0.511612    1.350525   -0.041783
      8          8           0        0.514430    1.883845   -0.702156
      9          8           0       -1.513648    1.952705    0.248780
     10          7           0        2.347984   -0.114585   -0.685629
     11          1           0        1.029508    0.191562    1.994018
     12          1           0        0.614744   -1.483882    1.677367
     13          1           0        2.898480   -1.361907    0.888294
     14          1           0        3.263302   -0.311176   -1.093297
     15          1           0        1.212691    1.193442   -0.899243
 ---------------------------------------------------------------------

 SCF Done:  E(UB3LYP) =  -549.333616812     A.U. after   29 cycles

 The electronic state is 2-A.
 Alpha  occ. eigenvalues --  -19.08304 -19.04599 -19.03944 -19.00778 -14.17336
 Alpha  occ. eigenvalues --  -10.22180 -10.20603 -10.16755 -10.08549 -10.08429
 Alpha  occ. eigenvalues --   -1.04242  -0.99333  -0.96081  -0.91721  -0.78876
 Alpha  occ. eigenvalues --   -0.68118  -0.59003  -0.51669  -0.49628  -0.46954
 Alpha  occ. eigenvalues --   -0.42341  -0.40757  -0.37730  -0.36582  -0.35499
 Alpha  occ. eigenvalues --   -0.35035  -0.31957  -0.31587  -0.30479  -0.27750
 Alpha  occ. eigenvalues --   -0.27215  -0.22799  -0.21689  -0.20400  -0.19179
 Alpha  occ. eigenvalues --   -0.17538  -0.16013   0.04649
 Alpha virt. eigenvalues --    0.07877   0.08189   0.09430   0.10094   0.10213
 Alpha virt. eigenvalues --    0.11831   0.12689   0.13288   0.14880   0.15842
 Alpha virt. eigenvalues --    0.16249   0.17154   0.18077   0.19068   0.19709

  Beta  occ. eigenvalues --  -19.08296 -19.04583 -19.03931 -19.00774 -14.17026
  Beta  occ. eigenvalues --  -10.22179 -10.20603 -10.16736 -10.08550 -10.08046
  Beta  occ. eigenvalues --   -1.04225  -0.99315  -0.96059  -0.91703  -0.78240
  Beta  occ. eigenvalues --   -0.67965  -0.58794  -0.51647  -0.49461  -0.46479
  Beta  occ. eigenvalues --   -0.42191  -0.40501  -0.37659  -0.36440  -0.35458
  Beta  occ. eigenvalues --   -0.34924  -0.31693  -0.31428  -0.30323  -0.27600
  Beta  occ. eigenvalues --   -0.27097  -0.22738  -0.21518  -0.19424  -0.18485
  Beta  occ. eigenvalues --   -0.17452  -0.15701
  Beta virt. eigenvalues --    0.07960   0.08521   0.10014   0.10408   0.10674
  Beta virt. eigenvalues --    0.11564   0.12142   0.13045   0.13437   0.14942
  Beta virt. eigenvalues --    0.16067   0.16316   0.17217   0.18085   0.19136

 Mulliken charges and spin densities:
               1          2
     1  C   -0.303106   0.053397
     2  C    0.897584  -0.823135
     3  C    0.655169  -0.319832
     4  C    0.309176  -0.321568
     5  O   -0.296609   0.012618
     6  O   -0.051536   0.011119
     7  C    0.205358  -0.272990
     8  O   -0.228510  -0.007025
     9  O   -0.278509   0.001870
    10  N   -0.594048   0.181776
    11  H   -0.492538   0.717561
    12  H    0.027559   0.132706
    13  H   -1.098187   1.213465
    14  H   -0.147783   0.411251
    15  H    0.395978   0.008784
 Sum of Mulliken charges =  -1.00000   1.00000

 Dipole moment (field-independent basis, Debye):
    X=             -3.8549    Y=              1.2286    Z=             -0.4674  Tot=              4.0729
 Quadrupole moment (field-independent basis, Debye-Ang):
   XX=           -101.6803   YY=            -92.0531   ZZ=            -77.3360
   XY=             10.3128   XZ=             -2.1946   YZ=             -0.5900

 Summary of Natural Population Analysis:

                                       Natural Population
                Natural  -----------------------------------------------
    Atom  No    Charge         Core      Valence    Rydberg      Total
 -----------------------------------------------------------------------
      C    1   -0.23722      0.99959     2.22599    0.01164     3.23722
      C    2    0.14729      0.99966     1.83624    0.01681     2.85271
      C    3    0.04071      0.99952     1.94414    0.01563     2.95929
      C    4    0.40046      0.99956     1.57151    0.02848     2.59954
      O    5   -0.27221      0.99987     3.26646    0.00588     4.27221
      O    6   -0.24651      0.99991     3.23962    0.00698     4.24651
      C    7    0.38973      0.99966     1.58376    0.02685     2.61027
      O    8   -0.34864      0.99986     3.34209    0.00669     4.34864
      O    9   -0.29309      0.99987     3.28713    0.00609     4.29309
      N   10   -0.32522      0.99967     2.81393    0.01162     3.82522
      H   11    0.12047      0.00000     0.37625    0.00328     0.37953
      H   12    0.11606      0.00000     0.38162    0.00232     0.38394
      H   13    0.07693      0.00000     0.41457    0.00850     0.42307
      H   14    0.17738      0.00000     0.31979    0.00283     0.32262
      H   15    0.25385      0.00000     0.24102    0.00513     0.24615
 =======================================================================
   * Total *    0.00000      9.99715    26.84411    0.15874    37.00000

 Normal termination of Gaussian 16 at Tue Dec  8 14:22:03 2020.
