 Gaussian 16, Revision A.03,

 -----------------------------------------------------------
 # opt freq B3LYP/6-31G(d) empiricaldispersion=gd3bj scf=xqc
 -----------------------------------------------------------

 -------------------------------
 CID_80633679_JID_10593_neutraal
 -------------------------------
 Symbolic Z-matrix:
 Charge =  0 Multiplicity = 1

 SCF Done:  E(RB3LYP) =  -881.746000265     A.U. after   14 cycles
 SCF Done:  E(RB3LYP) =  -881.751103764     A.U. after   12 cycles
 SCF Done:  E(RB3LYP) =  -881.752287832     A.U. after   12 cycles
 SCF Done:  E(RB3LYP) =  -881.753191302     A.U. after   14 cycles
 SCF Done:  E(RB3LYP) =  -881.753575207     A.U. after   11 cycles
 SCF Done:  E(RB3LYP) =  -881.753960655     A.U. after   12 cycles
 SCF Done:  E(RB3LYP) =  -881.754143128     A.U. after   11 cycles
 SCF Done:  E(RB3LYP) =  -881.754388892     A.U. after   12 cycles
 SCF Done:  E(RB3LYP) =  -881.754623483     A.U. after   12 cycles
 SCF Done:  E(RB3LYP) =  -881.754657599     A.U. after   11 cycles
 SCF Done:  E(RB3LYP) =  -881.754671052     A.U. after   10 cycles
 SCF Done:  E(RB3LYP) =  -881.754671897     A.U. after    8 cycles
 SCF Done:  E(RB3LYP) =  -881.754672088     A.U. after    8 cycles
 SCF Done:  E(RB3LYP) =  -881.754672130     A.U. after    7 cycles
 Optimization completed.
    -- Stationary point found.
 Normal termination of Gaussian 16 at Mon Dec 14 17:47:14 2020.

 --------------------------------------------------------------------
 #N Geom=AllCheck Guess=TCheck SCRF=Check GenChk RB3LYP/6-31G(d) Freq
 --------------------------------------------------------------------

 Structure from the checkpoint file:  "JID_10593.chk"
 -------------------------------
 CID_80633679_JID_10593_neutraal
 -------------------------------
 Charge =  0 Multiplicity = 1

 SCF Done:  E(RB3LYP) =  -881.754672130     A.U. after    1 cycles

  Exact polarizability: 239.365  -9.969 172.498 -11.129   0.243 140.833
 Approx polarizability: 333.674 -18.151 260.625 -17.632  -1.674 236.440

                      1                      2                      3
                      A                      A                      A
 Frequencies --     16.9130                18.8000                23.6988
 Red. masses --      3.9818                 4.3175                 4.3342
 Frc consts  --      0.0007                 0.0009                 0.0014
 IR Inten    --      0.6726                 0.4646                 0.3336

                      4                      5                      6
                      A                      A                      A
 Frequencies --     40.3774                55.9376                66.0216
 Red. masses --      4.0302                 3.2669                 3.6284
 Frc consts  --      0.0039                 0.0060                 0.0093
 IR Inten    --      1.0909                 2.5772                 0.2467

                      7                      8                      9
                      A                      A                      A
 Frequencies --     86.5944               124.1353               131.6287
 Red. masses --      1.7499                 4.4727                 1.0541
 Frc consts  --      0.0077                 0.0406                 0.0108
 IR Inten    --      1.3436                 0.6441                 0.1552

                     10                     11                     12
                      A                      A                      A
 Frequencies --    170.7838               177.5999               209.2347
 Red. masses --      3.5247                 3.3379                 4.0225
 Frc consts  --      0.0606                 0.0620                 0.1038
 IR Inten    --      0.6095                 2.2188                 0.6790

                     13                     14                     15
                      A                      A                      A
 Frequencies --    216.1540               229.6597               255.8115
 Red. masses --      3.5291                 3.4768                 1.6071
 Frc consts  --      0.0972                 0.1080                 0.0620
 IR Inten    --      1.9797                 3.8646                 1.5053

                     16                     17                     18
                      A                      A                      A
 Frequencies --    266.9610               294.3156               311.7568
 Red. masses --      1.9575                 2.9404                 3.5781
 Frc consts  --      0.0822                 0.1501                 0.2049
 IR Inten    --      2.0987                 4.5374                 2.4103

                     19                     20                     21
                      A                      A                      A
 Frequencies --    336.6449               360.7422               385.4859
 Red. masses --      2.4905                 1.5656                 3.2234
 Frc consts  --      0.1663                 0.1200                 0.2822
 IR Inten    --      0.1947                97.4315                18.9374

                     22                     23                     24
                      A                      A                      A
 Frequencies --    424.6678               452.1103               464.5967
 Red. masses --      3.4036                 3.0487                 3.8381
 Frc consts  --      0.3617                 0.3672                 0.4881
 IR Inten    --     25.8332                 4.5009                 1.0459

                     25                     26                     27
                      A                      A                      A
 Frequencies --    488.1074               506.9059               532.2513
 Red. masses --      3.3957                 4.3061                 4.9264
 Frc consts  --      0.4767                 0.6519                 0.8223
 IR Inten    --      0.4223                 2.2761                 0.4504

                     28                     29                     30
                      A                      A                      A
 Frequencies --    549.1132               573.2334               598.4090
 Red. masses --      3.8287                 5.8188                 5.2082
 Frc consts  --      0.6802                 1.1265                 1.0988
 IR Inten    --      6.5855                 0.0623                 0.9514

                     31                     32                     33
                      A                      A                      A
 Frequencies --    635.7723               673.2330               700.9568
 Red. masses --      5.2291                 3.2221                 2.8150
 Frc consts  --      1.2453                 0.8604                 0.8149
 IR Inten    --      2.9608                 3.2219                 4.8348

                     34                     35                     36
                      A                      A                      A
 Frequencies --    720.5942               742.3163               779.6526
 Red. masses --      3.8311                 4.2241                 1.9312
 Frc consts  --      1.1721                 1.3714                 0.6916
 IR Inten    --     21.1041                15.2765               139.5522

                     37                     38                     39
                      A                      A                      A
 Frequencies --    802.1515               805.6340               831.3180
 Red. masses --      1.6636                 3.4769                 1.2503
 Frc consts  --      0.6307                 1.3296                 0.5091
 IR Inten    --     29.1426                11.7217                 1.9819

                     40                     41                     42
                      A                      A                      A
 Frequencies --    845.8252               870.1052               882.4100
 Red. masses --      3.6700                 1.4369                 1.6942
 Frc consts  --      1.5470                 0.6409                 0.7773
 IR Inten    --      7.2927                11.9250                 9.6162

                     43                     44                     45
                      A                      A                      A
 Frequencies --    906.5145               930.3009               949.3222
 Red. masses --      1.3635                 1.6251                 1.3490
 Frc consts  --      0.6602                 0.8287                 0.7163
 IR Inten    --      0.8713                10.7789                 0.3771

                     46                     47                     48
                      A                      A                      A
 Frequencies --    960.4157               976.7460               981.8611
 Red. masses --      3.5014                 1.2568                 1.7361
 Frc consts  --      1.9029                 0.7065                 0.9861
 IR Inten    --     53.7867                 0.4643                27.5746

                     49                     50                     51
                      A                      A                      A
 Frequencies --    998.3928               998.8916              1020.4874
 Red. masses --      1.6564                 2.9979                 6.1750
 Frc consts  --      0.9728                 1.7624                 3.7888
 IR Inten    --     31.6956                33.1647                 1.7040

                     52                     53                     54
                      A                      A                      A
 Frequencies --   1033.0964              1045.0620              1079.6452
 Red. masses --      1.5812                 2.7048                 1.5049
 Frc consts  --      0.9943                 1.7405                 1.0335
 IR Inten    --      7.8693                 1.7624                 2.8334

                     55                     56                     57
                      A                      A                      A
 Frequencies --   1089.8757              1115.6427              1132.2978
 Red. masses --      4.1730                 1.6173                 2.5524
 Frc consts  --      2.9205                 1.1860                 1.9280
 IR Inten    --     49.7872                 8.6384                14.6673

                     58                     59                     60
                      A                      A                      A
 Frequencies --   1152.4516              1168.5445              1175.0719
 Red. masses --      2.0821                 2.1928                 1.6651
 Frc consts  --      1.6293                 1.7642                 1.3546
 IR Inten    --     37.9662                27.2672                 9.0892

                     61                     62                     63
                      A                      A                      A
 Frequencies --   1187.8198              1197.7512              1219.9268
 Red. masses --      1.3989                 1.3996                 1.1053
 Frc consts  --      1.1629                 1.1830                 0.9691
 IR Inten    --     44.9588                20.1457                10.7177

                     64                     65                     66
                      A                      A                      A
 Frequencies --   1240.2827              1282.2065              1286.4372
 Red. masses --      2.5818                 1.6088                 4.4849
 Frc consts  --      2.3400                 1.5584                 4.3730
 IR Inten    --     19.4153                19.4428                63.4632

                     67                     68                     69
                      A                      A                      A
 Frequencies --   1300.0841              1323.5683              1324.0047
 Red. masses --      4.4034                 2.0182                 1.7122
 Frc consts  --      4.3851                 2.0831                 1.7684
 IR Inten    --    437.5886                 5.5994                 4.5995

                     70                     71                     72
                      A                      A                      A
 Frequencies --   1328.0002              1344.4603              1368.1139
 Red. masses --      1.8253                 1.6053                 2.2347
 Frc consts  --      1.8966                 1.7096                 2.4645
 IR Inten    --      3.7947                 3.4927                26.4093

                     73                     74                     75
                      A                      A                      A
 Frequencies --   1384.4798              1391.8690              1412.2001
 Red. masses --      1.2767                 1.6077                 1.2982
 Frc consts  --      1.4418                 1.8351                 1.5254
 IR Inten    --     14.7592                12.1652                 3.1215

                     76                     77                     78
                      A                      A                      A
 Frequencies --   1432.5963              1443.0048              1445.1196
 Red. masses --      1.2844                 1.3233                 1.2370
 Frc consts  --      1.5531                 1.6234                 1.5220
 IR Inten    --     75.9609                 8.2387                 3.6226

                     79                     80                     81
                      A                      A                      A
 Frequencies --   1462.5625              1478.8311              1493.0875
 Red. masses --      3.6105                 2.1760                 2.6685
 Frc consts  --      4.5503                 2.8039                 3.5050
 IR Inten    --     86.6529               123.3262                26.5513

                     82                     83                     84
                      A                      A                      A
 Frequencies --   1499.9612              1508.6885              1512.3700
 Red. masses --      1.1038                 1.0689                 1.1192
 Frc consts  --      1.4632                 1.4335                 1.5083
 IR Inten    --      0.9574                 4.4940                12.0391

                     85                     86                     87
                      A                      A                      A
 Frequencies --   1528.2132              1528.7354              1531.4259
 Red. masses --      1.0668                 1.1408                 1.0919
 Frc consts  --      1.4679                 1.5709                 1.5088
 IR Inten    --     13.3850                10.9534                 9.3179

                     88                     89                     90
                      A                      A                      A
 Frequencies --   1533.5103              1543.1534              1554.5272
 Red. masses --      1.2354                 2.2204                 1.0902
 Frc consts  --      1.7117                 3.1153                 1.5522
 IR Inten    --     52.9202                43.9052                 3.3560

                     91                     92                     93
                      A                      A                      A
 Frequencies --   1625.9121              1649.7697              1659.0400
 Red. masses --      6.4083                 5.9445                 6.3181
 Frc consts  --      9.9814                 9.5326                10.2459
 IR Inten    --     34.7823                68.4878                 8.3038

                     94                     95                     96
                      A                      A                      A
 Frequencies --   1666.2475              2958.3975              2998.3244
 Red. masses --      5.9306                 1.0721                 1.0709
 Frc consts  --      9.7013                 5.5284                 5.6722
 IR Inten    --     38.2496                69.3829                53.8764

                     97                     98                     99
                      A                      A                      A
 Frequencies --   3044.1339              3049.6815              3050.9492
 Red. masses --      1.0719                 1.0504                 1.0625
 Frc consts  --      5.8523                 5.7561                 5.8270
 IR Inten    --     11.2502                15.1461                70.1755

                    100                    101                    102
                      A                      A                      A
 Frequencies --   3055.1895              3075.3665              3094.4182
 Red. masses --      1.0366                 1.0922                 1.1058
 Frc consts  --      5.7009                 6.0864                 6.2387
 IR Inten    --     16.2155                24.7600                18.6614

                    103                    104                    105
                      A                      A                      A
 Frequencies --   3112.2463              3113.2875              3135.1863
 Red. masses --      1.0991                 1.0995                 1.1032
 Frc consts  --      6.2724                 6.2789                 6.3891
 IR Inten    --     41.2699                11.1210                26.6630

                    106                    107                    108
                      A                      A                      A
 Frequencies --   3137.1557              3157.4683              3176.2971
 Red. masses --      1.1035                 1.0901                 1.0905
 Frc consts  --      6.3988                 6.4034                 6.4823
 IR Inten    --     15.4890                29.7747                14.1929

                    109                    110                    111
                      A                      A                      A
 Frequencies --   3192.4026              3206.2195              3217.4890
 Red. masses --      1.0875                 1.0896                 1.0908
 Frc consts  --      6.5301                 6.5994                 6.6531
 IR Inten    --     14.8249                 6.0647                 6.1003

                    112                    113                    114
                      A                      A                      A
 Frequencies --   3222.5512              3472.5868              3731.3342
 Red. masses --      1.0952                 1.0736                 1.0660
 Frc consts  --      6.7010                 7.6280                 8.7444
 IR Inten    --      9.4707                 0.9304                12.5566

 - Thermochemistry -
 -------------------
 Temperature   298.150 Kelvin.  Pressure   1.00000 Atm.
 Atom     1 has atomic number  6 and mass  12.00000

 Molecular mass:   272.15248 amu.
 Principal axes and moments of inertia in atomic units:
                           1         2         3
     Eigenvalues --  3782.718589548.00144**********
           X            0.99983  -0.01823   0.00169
           Y            0.01821   0.99977   0.01155
           Z           -0.00190  -0.01151   0.99993
 This molecule is an asymmetric top.
 Rotational symmetry number  1.
 Warning -- assumption of classical behavior for rotation
           may cause significant error
 Rotational temperatures (Kelvin)      0.02290     0.00907     0.00728
 Rotational constants (GHZ):           0.47710     0.18902     0.15164
 Zero-point vibrational energy     886803.0 (Joules/Mol)
                                  211.95101 (Kcal/Mol)
 Warning -- explicit consideration of  30 degrees of freedom as
           vibrations may cause significant error
 Vibrational temperatures:     24.33    27.05    34.10    58.09    80.48
          (Kelvin)             94.99   124.59   178.60   189.38   245.72
                              255.53   301.04   311.00   330.43   368.06
                              384.10   423.45   448.55   484.36   519.03
                              554.63   611.00   650.49   668.45   702.28
                              729.32   765.79   790.05   824.76   860.98
                              914.73   968.63  1008.52  1036.77  1068.03
                             1121.75  1154.12  1159.13  1196.08  1216.95
                             1251.89  1269.59  1304.27  1338.50  1365.86
                             1381.82  1405.32  1412.68  1436.46  1437.18
                             1468.25  1486.40  1503.61  1553.37  1568.09
                             1605.16  1629.12  1658.12  1681.27  1690.67
                             1709.01  1723.30  1755.20  1784.49  1844.81
                             1850.90  1870.53  1904.32  1904.95  1910.70
                             1934.38  1968.41  1991.96  2002.59  2031.84
                             2061.19  2076.16  2079.20  2104.30  2127.71
                             2148.22  2158.11  2170.67  2175.96  2198.76
                             2199.51  2203.38  2206.38  2220.25  2236.62
                             2339.32  2373.65  2386.99  2397.36  4256.47
                             4313.92  4379.83  4387.81  4389.64  4395.74
                             4424.77  4452.18  4477.83  4479.33  4510.83
                             4513.67  4542.89  4569.98  4593.16  4613.03
                             4629.25  4636.53  4996.28  5368.56

 Zero-point correction=                           0.337765 (Hartree/Particle)
 Thermal correction to Energy=                    0.357432
 Thermal correction to Enthalpy=                  0.358376
 Thermal correction to Gibbs Free Energy=         0.286181
 Sum of electronic and zero-point Energies=           -881.416907
 Sum of electronic and thermal Energies=              -881.397240
 Sum of electronic and thermal Enthalpies=            -881.396296
 Sum of electronic and thermal Free Energies=         -881.468491

                     E (Thermal)             CV                S
                      KCal/Mol        Cal/Mol-Kelvin    Cal/Mol-Kelvin
 Total                  224.292             73.532            151.947
 Electronic               0.000              0.000              0.000
 Translational            0.889              2.981             42.702
 Rotational               0.889              2.981             34.418
 Vibrational            222.515             67.570             74.827
 Vibration     1          0.593              1.986              6.967
 Vibration     2          0.593              1.986              6.757
 Vibration     3          0.593              1.985              6.297
 Vibration     4          0.594              1.981              5.240
 Vibration     5          0.596              1.975              4.596
 Vibration     6          0.597              1.970              4.269
 Vibration     7          0.601              1.959              3.736
 Vibration     8          0.610              1.929              3.035
 Vibration     9          0.612              1.922              2.922
 Vibration    10          0.626              1.878              2.427
 Vibration    11          0.628              1.870              2.353
 Vibration    12          0.642              1.827              2.050
 Vibration    13          0.645              1.816              1.991
 Vibration    14          0.652              1.796              1.882
 Vibration    15          0.666              1.753              1.690
 Vibration    16          0.672              1.734              1.616
 Vibration    17          0.689              1.684              1.449
 Vibration    18          0.700              1.651              1.353
 Vibration    19          0.717              1.602              1.228
 Vibration    20          0.735              1.553              1.119
 Vibration    21          0.754              1.501              1.018
 Vibration    22          0.787              1.417              0.876
 Vibration    23          0.811              1.356              0.789
 Vibration    24          0.822              1.329              0.753
 Vibration    25          0.844              1.276              0.689
 Vibration    26          0.862              1.235              0.641
 Vibration    27          0.887              1.179              0.582
 Vibration    28          0.904              1.142              0.546
 Vibration    29          0.929              1.089              0.498
 Vibration    30          0.956              1.035              0.452

                           ! Non-Optimized Parameters !
 Normal termination of Gaussian 16 at Mon Dec 14 18:06:58 2020.

 ----------------------------------------------------------------------
 # B3LYP/6-311++G(d,p) empiricaldispersion=gd3bj scf=xqc pop=npa geom=c
 heck
 ----------------------------------------------------------------------

 ---------------------------------------
 CID_80633679_JID_10593_Energie_neutraal
 ---------------------------------------
 Structure from the checkpoint file:  "JID_10593.chk"
 Charge =  0 Multiplicity = 1

 SCF Done:  E(RB3LYP) =  -882.002146458     A.U. after   15 cycles
 Normal termination of Gaussian 16 at Mon Dec 14 18:16:19 2020.

 ----------------------------------------------------------------------
 # B3LYP/6-311++G(d,p) empiricaldispersion=gd3bj scf=xqc pop=npa geom=c
 heck
 ----------------------------------------------------------------------

 -------------------------------------
 CID_80633679_JID_10593_Energie_kation
 -------------------------------------
 Structure from the checkpoint file:  "JID_10593.chk"
 Charge =  1 Multiplicity = 2

 SCF Done:  E(UB3LYP) =  -881.712608322     A.U. after   26 cycles
 Normal termination of Gaussian 16 at Mon Dec 14 18:40:14 2020.
 Gaussian 16:  ES64L-G16RevA.03 25-Dec-2016

 ----------------------------------------------------------------------
 # B3LYP/6-311++G(d,p) empiricaldispersion=gd3bj scf=xqc pop=npa geom=c
 heck
 ----------------------------------------------------------------------

 ------------------------------------
 CID_80633679_JID_10593_Energie_anion
 ------------------------------------
 Structure from the checkpoint file:  "JID_10593.chk"
 Charge = -1 Multiplicity = 2

                         Standard orientation:
 ---------------------------------------------------------------------
 Center     Atomic      Atomic             Coordinates (Angstroms)
 Number     Number       Type             X           Y           Z
 ---------------------------------------------------------------------
      1          6           0       -4.146157    3.137537   -0.498348
      2          6           0       -3.885973    1.643216   -0.661054
      3          7           0       -4.402384    0.906680    0.491207
      4          6           0       -4.217371   -0.547009    0.420581
      5          6           0       -2.775097   -1.011041    0.363832
      6          6           0       -2.029179   -1.172868    1.533123
      7          7           0       -0.731844   -1.503884    1.554085
      8          6           0       -0.134252   -1.692925    0.388920
      9          6           0       -0.756496   -1.580413   -0.865625
     10          6           0       -2.105740   -1.229919   -0.845840
     11          6           0        0.004902   -1.825617   -2.139210
     12          8           0        1.189731   -2.088322    0.437135
     13          6           0        2.164946   -1.136974    0.228047
     14          6           0        3.463604   -1.616103    0.041336
     15          6           0        4.498960   -0.708604   -0.163340
     16          6           0        4.249209    0.664670   -0.193404
     17          6           0        2.947959    1.138390   -0.004875
     18          6           0        1.904014    0.233925    0.215211
     19          6           0        2.659061    2.625232   -0.052070
     20          8           0        3.734046    3.427603    0.416516
     21          1           0       -5.214580    3.328722   -0.358522
     22          1           0       -3.800006    3.691457   -1.377508
     23          1           0       -3.613826    3.535286    0.374982
     24          1           0       -4.411344    1.268800   -1.550329
     25          1           0       -2.809091    1.472398   -0.841496
     26          1           0       -3.949844    1.255643    1.336076
     27          1           0       -4.757433   -0.906535   -0.463890
     28          1           0       -4.709877   -0.983561    1.297010
     29          1           0       -2.499114   -1.031471    2.506218
     30          1           0       -2.645360   -1.134708   -1.785914
     31          1           0        0.773959   -1.059662   -2.293310
     32          1           0        0.521603   -2.790450   -2.106863
     33          1           0       -0.666259   -1.815814   -3.002810
     34          1           0        3.636853   -2.686763    0.065834
     35          1           0        5.510703   -1.077893   -0.306214
     36          1           0        5.053541    1.374528   -0.354849
     37          1           0        0.896942    0.597377    0.392657
     38          1           0        2.497432    2.946514   -1.087938
     39          1           0        1.727995    2.837562    0.497666
     40          1           0        3.952741    3.115767    1.309241
 ---------------------------------------------------------------------

 SCF Done:  E(UB3LYP) =  -881.997815902     A.U. after   33 cycles
 SCF Done:  E(UB3LYP) =  -881.997815902     a.u. after    1 cycles

 The electronic state is 2-A.
 Alpha  occ. eigenvalues --  -19.05201 -19.03505 -14.20057 -14.18336 -10.13870
 Alpha  occ. eigenvalues --  -10.13722 -10.12713 -10.09815 -10.09442 -10.08784
 Alpha  occ. eigenvalues --  -10.08152 -10.08016 -10.07488 -10.07106 -10.06927
 Alpha  occ. eigenvalues --  -10.06897 -10.06870 -10.06690 -10.06685 -10.05943
 Alpha  occ. eigenvalues --   -0.97760  -0.93643  -0.82803  -0.80844  -0.75868
 Alpha  occ. eigenvalues --   -0.70558  -0.68255  -0.66871  -0.65101  -0.63735
 Alpha  occ. eigenvalues --   -0.59448  -0.58599  -0.56887  -0.53132  -0.51759
 Alpha  occ. eigenvalues --   -0.50476  -0.49697  -0.47637  -0.44766  -0.40765
 Alpha  occ. eigenvalues --   -0.40552  -0.40103  -0.38434  -0.38159  -0.36659
 Alpha  occ. eigenvalues --   -0.35629  -0.35169  -0.34850  -0.34197  -0.32712
 Alpha  occ. eigenvalues --   -0.32631  -0.32044  -0.30589  -0.29941  -0.29729
 Alpha  occ. eigenvalues --   -0.29226  -0.28326  -0.28005  -0.26777  -0.26764
 Alpha  occ. eigenvalues --   -0.26647  -0.25930  -0.25440  -0.24819  -0.23471
 Alpha  occ. eigenvalues --   -0.23128  -0.19421  -0.17237  -0.15665  -0.15458
 Alpha  occ. eigenvalues --   -0.14364  -0.12960  -0.12507   0.04235
 Alpha virt. eigenvalues --    0.06408   0.06508   0.07170   0.07501   0.07884
 Alpha virt. eigenvalues --    0.08129   0.08379   0.08833   0.09445   0.09569
 Alpha virt. eigenvalues --    0.09679   0.10175   0.10428   0.10853   0.11594

  Beta  occ. eigenvalues --  -19.05209 -19.03481 -14.20039 -14.18055 -10.13816
  Beta  occ. eigenvalues --  -10.13723 -10.12707 -10.09808 -10.09438 -10.08741
  Beta  occ. eigenvalues --  -10.08074 -10.07998 -10.07471 -10.07091 -10.06887
  Beta  occ. eigenvalues --  -10.06865 -10.06849 -10.06702 -10.06659 -10.05685
  Beta  occ. eigenvalues --   -0.97731  -0.93581  -0.82467  -0.80780  -0.75771
  Beta  occ. eigenvalues --   -0.70258  -0.68135  -0.66752  -0.65035  -0.63642
  Beta  occ. eigenvalues --   -0.59334  -0.58496  -0.56792  -0.52970  -0.51652
  Beta  occ. eigenvalues --   -0.50293  -0.49543  -0.47563  -0.44667  -0.40685
  Beta  occ. eigenvalues --   -0.40473  -0.40035  -0.38368  -0.38084  -0.36619
  Beta  occ. eigenvalues --   -0.35543  -0.35090  -0.34750  -0.34130  -0.32663
  Beta  occ. eigenvalues --   -0.32530  -0.31938  -0.30501  -0.29884  -0.29644
  Beta  occ. eigenvalues --   -0.29088  -0.28203  -0.27891  -0.26711  -0.26632
  Beta  occ. eigenvalues --   -0.26427  -0.25879  -0.25272  -0.24754  -0.23335
  Beta  occ. eigenvalues --   -0.22993  -0.19357  -0.15973  -0.15321  -0.15157
  Beta  occ. eigenvalues --   -0.14027  -0.12765  -0.12285
  Beta virt. eigenvalues --    0.06335   0.06777   0.07344   0.07696   0.07874
  Beta virt. eigenvalues --    0.08170   0.08431   0.08782   0.08937   0.09510
  Beta virt. eigenvalues --    0.09630   0.10008   0.10230   0.10681   0.10925

 Mulliken charges and spin densities:
               1          2
     1  C    0.331413  -0.924262
     2  C   -0.536529   0.261781
     3  N   -0.028663   0.033156
     4  C   -0.059570  -0.656461
     5  C    0.858551  -0.245925
     6  C   -0.557701   0.112172
     7  N   -0.020843   0.133543
     8  C   -0.775757   0.036560
     9  C    0.282484   0.447587
    10  C   -0.162790   0.170685
    11  C   -0.457520  -0.175685
    12  O    0.028866  -0.007720
    13  C   -0.475110  -0.016717
    14  C   -0.395345   0.361422
    15  C   -0.142573  -0.119473
    16  C   -0.270069   0.031019
    17  C    0.231572   0.416955
    18  C   -0.071496  -0.166832
    19  C    0.312136  -0.735740
    20  O   -0.244247   0.012202
    21  H   -0.039293   0.191327
    22  H   -0.112608   0.239962
    23  H   -0.095951   0.223857
    24  H   -0.001499   0.152947
    25  H    0.224945  -0.090975
    26  H    0.152144   0.056173
    27  H   -0.072857   0.218263
    28  H    0.165172   0.017807
    29  H    0.029196   0.111279
    30  H   -0.064330   0.202324
    31  H    0.167414  -0.009742
    32  H    0.159354   0.015379
    33  H   -0.019774   0.150148
    34  H    0.104154   0.039270
    35  H    0.092343   0.050567
    36  H    0.055466   0.104591
    37  H    0.281265  -0.141198
    38  H    0.033219   0.156656
    39  H   -0.021992   0.226449
    40  H    0.116824   0.116648
 Sum of Mulliken charges =  -1.00000   1.00000

 Dipole moment (field-independent basis, Debye):
    X=              2.2087    Y=             -2.3114    Z=             -0.6075  Tot=              3.2542
 Quadrupole moment (field-independent basis, Debye-Ang):
   XX=           -194.8764   YY=           -170.3653   ZZ=           -142.9142
   XY=             -1.7447   XZ=             -2.3868   YZ=              4.5247

 Summary of Natural Population Analysis:

                                       Natural Population
                Natural  -----------------------------------------------
    Atom  No    Charge         Core      Valence    Rydberg      Total
 -----------------------------------------------------------------------
      C    1   -0.28627      0.99967     2.28191    0.00469     3.28627
      C    2   -0.08980      0.99964     2.08117    0.00898     3.08980
      N    3   -0.33616      0.99975     2.82401    0.01240     3.83616
      C    4   -0.09164      0.99959     2.08017    0.01187     3.09164
      C    5   -0.05227      0.99949     2.04479    0.00799     3.05227
      C    6    0.02945      0.99953     1.95716    0.01386     2.97055
      N    7   -0.20574      0.99965     2.69528    0.01081     3.70574
      C    8    0.25974      0.99935     1.72312    0.01780     2.74026
      C    9   -0.04541      0.99946     2.03693    0.00902     3.04541
      C   10   -0.03969      0.99948     2.03023    0.00997     3.03969
      C   11   -0.29293      0.99964     2.28845    0.00484     3.29293
      O   12   -0.27375      0.99983     3.26433    0.00959     4.27375
      C   13    0.16668      0.99936     1.82151    0.01245     2.83332
      C   14   -0.11483      0.99952     2.10657    0.00873     3.11483
      C   15   -0.09264      0.99958     2.08328    0.00977     3.09264
      C   16   -0.12317      0.99952     2.11426    0.00939     3.12317
      C   17   -0.01755      0.99951     2.00703    0.01101     3.01755
      C   18   -0.13683      0.99946     2.12865    0.00872     3.13683
      C   19   -0.01277      0.99956     2.00153    0.01168     3.01277
      O   20   -0.36571      0.99990     3.35943    0.00637     4.36571
      H   21    0.09793      0.00000     0.40049    0.00158     0.40207
      H   22    0.09817      0.00000     0.40067    0.00116     0.40183
      H   23    0.09496      0.00000     0.40357    0.00147     0.40504
      H   24    0.08655      0.00000     0.41179    0.00166     0.41345
      H   25    0.08461      0.00000     0.41317    0.00221     0.41539
      H   26    0.16941      0.00000     0.32753    0.00306     0.33059
      H   27    0.09377      0.00000     0.40490    0.00134     0.40623
      H   28    0.09501      0.00000     0.40391    0.00108     0.40499
      H   29    0.08368      0.00000     0.41467    0.00165     0.41632
      H   30    0.09334      0.00000     0.40494    0.00172     0.40666
      H   31    0.10676      0.00000     0.39206    0.00118     0.39324
      H   32    0.10519      0.00000     0.39365    0.00116     0.39481
      H   33    0.09965      0.00000     0.39948    0.00087     0.40035
      H   34    0.10234      0.00000     0.39625    0.00142     0.39766
      H   35    0.09624      0.00000     0.40299    0.00077     0.40376
      H   36    0.10449      0.00000     0.39436    0.00115     0.39551
      H   37    0.11002      0.00000     0.38714    0.00284     0.38998
      H   38    0.09144      0.00000     0.40692    0.00165     0.40856
      H   39    0.08094      0.00000     0.41739    0.00167     0.41906
      H   40    0.22677      0.00000     0.27018    0.00305     0.27323
 =======================================================================
   * Total *   -0.00000     19.99149    52.77587    0.23264    73.00000

 Normal termination of Gaussian 16 at Mon Dec 14 19:10:47 2020.
