 Gaussian 16, Revision A.03,

 -----------------------------------------------------------
 # opt freq B3LYP/6-31G(d) empiricaldispersion=gd3bj scf=xqc
 -----------------------------------------------------------

 -------------------------------
 CID_17424910_JID_10178_neutraal
 -------------------------------
 Symbolic Z-matrix:
 Charge =  0 Multiplicity = 1

 SCF Done:  E(RB3LYP) =  -936.165333595     A.U. after   15 cycles
 SCF Done:  E(RB3LYP) =  -931.196023780     A.U. after   22 cycles
 SCF Done:  E(RB3LYP) =  -935.923224970     A.U. after   16 cycles
 SCF Done:  E(RB3LYP) =  -936.169156248     A.U. after   12 cycles
 SCF Done:  E(RB3LYP) =  -936.173703353     A.U. after   12 cycles
 SCF Done:  E(RB3LYP) =  -936.174432496     A.U. after   13 cycles
 SCF Done:  E(RB3LYP) =  -936.175108359     A.U. after   13 cycles
 SCF Done:  E(RB3LYP) =  -936.176369867     A.U. after   12 cycles
 SCF Done:  E(RB3LYP) =  -936.176862546     A.U. after   12 cycles
 SCF Done:  E(RB3LYP) =  -936.177109803     A.U. after   12 cycles
 SCF Done:  E(RB3LYP) =  -936.178753039     A.U. after   10 cycles
 SCF Done:  E(RB3LYP) =  -936.178754576     A.U. after    8 cycles
 SCF Done:  E(RB3LYP) =  -936.178754896     A.U. after    8 cycles
 SCF Done:  E(RB3LYP) =  -936.178755080     A.U. after    7 cycles
 SCF Done:  E(RB3LYP) =  -936.178755105     A.U. after    6 cycles
 Optimization completed.
    -- Stationary point found.
 Normal termination of Gaussian 16 at Sat Dec 12 16:16:10 2020.

 --------------------------------------------------------------------
 #N Geom=AllCheck Guess=TCheck SCRF=Check GenChk RB3LYP/6-31G(d) Freq
 --------------------------------------------------------------------

 Structure from the checkpoint file:  "JID_10178.chk"
 -------------------------------
 CID_17424910_JID_10178_neutraal
 -------------------------------
 Charge =  0 Multiplicity = 1

 SCF Done:  E(RB3LYP) =  -936.178755105     A.U. after    1 cycles

  Exact polarizability: 173.921 -21.009 150.669   4.907   6.152 175.374
 Approx polarizability: 263.486 -40.751 214.554  23.577   6.667 295.225

                      1                      2                      3
                      A                      A                      A
 Frequencies --     28.8038                44.7235                51.4135
 Red. masses --      5.5211                 4.9636                 4.7248
 Frc consts  --      0.0027                 0.0058                 0.0074
 IR Inten    --      1.2678                 1.8980                 2.0213

                      4                      5                      6
                      A                      A                      A
 Frequencies --     62.3460                63.9511                79.4704
 Red. masses --      1.1533                 3.2915                 4.2929
 Frc consts  --      0.0026                 0.0079                 0.0160
 IR Inten    --      0.8886                 2.6274                 2.5210

                      7                      8                      9
                      A                      A                      A
 Frequencies --     85.4538               110.1550               116.2033
 Red. masses --      4.8626                 5.1199                 5.5073
 Frc consts  --      0.0209                 0.0366                 0.0438
 IR Inten    --      1.0411                 0.4153                 8.2377

                     10                     11                     12
                      A                      A                      A
 Frequencies --    126.6729               150.9047               199.7005
 Red. masses --      1.0482                 3.5012                 3.1675
 Frc consts  --      0.0099                 0.0470                 0.0744
 IR Inten    --      0.8221                 2.5848                 1.9364

                     13                     14                     15
                      A                      A                      A
 Frequencies --    214.6227               233.0879               242.0193
 Red. masses --      2.6898                 2.3895                 3.3503
 Frc consts  --      0.0730                 0.0765                 0.1156
 IR Inten    --      2.0630                 2.2170                 6.4332

                     16                     17                     18
                      A                      A                      A
 Frequencies --    256.4849               262.3939               269.9524
 Red. masses --      2.6713                 4.2871                 1.8324
 Frc consts  --      0.1035                 0.1739                 0.0787
 IR Inten    --      1.1516                 1.2744                 4.2029

                     19                     20                     21
                      A                      A                      A
 Frequencies --    271.0424               306.8195               328.6925
 Red. masses --      2.5284                 3.8638                 3.2451
 Frc consts  --      0.1094                 0.2143                 0.2066
 IR Inten    --      0.1719                14.1846                 6.0675

                     22                     23                     24
                      A                      A                      A
 Frequencies --    358.1346               410.6896               434.1195
 Red. masses --      3.0878                 3.2412                 1.0919
 Frc consts  --      0.2333                 0.3221                 0.1212
 IR Inten    --      2.3039                 5.8245                35.4094

                     25                     26                     27
                      A                      A                      A
 Frequencies --    460.4259               484.8077               508.3589
 Red. masses --      2.2733                 3.8106                 3.7106
 Frc consts  --      0.2839                 0.5277                 0.5650
 IR Inten    --      2.8446                 2.7271                 7.9202

                     28                     29                     30
                      A                      A                      A
 Frequencies --    517.4487               529.4241               536.1580
 Red. masses --      4.9809                 3.4944                 3.1292
 Frc consts  --      0.7858                 0.5771                 0.5300
 IR Inten    --      0.8535                 0.0721                 2.2114

                     31                     32                     33
                      A                      A                      A
 Frequencies --    542.6873               558.8022               575.9549
 Red. masses --      3.0466                 3.2614                 3.9410
 Frc consts  --      0.5286                 0.6000                 0.7703
 IR Inten    --      9.4878                12.1282                 6.4826

                     34                     35                     36
                      A                      A                      A
 Frequencies --    606.8558               628.7512               637.6531
 Red. masses --      2.2109                 3.6641                 1.5357
 Frc consts  --      0.4797                 0.8535                 0.3679
 IR Inten    --      2.6738                 6.7792               109.0047

                     37                     38                     39
                      A                      A                      A
 Frequencies --    648.1446               706.7257               718.4646
 Red. masses --      1.5211                 2.4951                 5.8183
 Frc consts  --      0.3765                 0.7343                 1.7695
 IR Inten    --     94.2292                 5.3785                15.8551

                     40                     41                     42
                      A                      A                      A
 Frequencies --    726.9792               793.0098               850.4252
 Red. masses --      3.2593                 4.4480                 1.4497
 Frc consts  --      1.0149                 1.6480                 0.6177
 IR Inten    --      4.9753                94.2259                22.9785

                     43                     44                     45
                      A                      A                      A
 Frequencies --    869.4965               875.7741               894.5246
 Red. masses --      1.2996                 2.2185                 1.5517
 Frc consts  --      0.5789                 1.0025                 0.7315
 IR Inten    --      3.7524                11.0298                 6.7141

                     46                     47                     48
                      A                      A                      A
 Frequencies --    916.1882               932.9223               966.2595
 Red. masses --      3.5808                 2.6871                 2.5246
 Frc consts  --      1.7709                 1.3779                 1.3888
 IR Inten    --      1.9208                13.1065                 8.1873

                     49                     50                     51
                      A                      A                      A
 Frequencies --    978.4277              1013.0445              1021.9938
 Red. masses --      3.6717                 2.2021                 5.6962
 Frc consts  --      2.0710                 1.3315                 3.5054
 IR Inten    --      2.0250                28.3545                 0.7086

                     52                     53                     54
                      A                      A                      A
 Frequencies --   1040.8480              1052.5087              1053.7717
 Red. masses --      1.7598                 2.1428                 1.5206
 Frc consts  --      1.1233                 1.3986                 0.9949
 IR Inten    --      9.7820                10.9857                 1.5797

                     55                     56                     57
                      A                      A                      A
 Frequencies --   1073.7011              1082.3896              1094.5193
 Red. masses --      1.5077                 1.5034                 2.0035
 Frc consts  --      1.0241                 1.0378                 1.4141
 IR Inten    --     12.4698                 9.3878                23.6795

                     58                     59                     60
                      A                      A                      A
 Frequencies --   1110.9756              1141.7683              1157.0613
 Red. masses --      2.2506                 1.7765                 1.3157
 Frc consts  --      1.6367                 1.3645                 1.0378
 IR Inten    --     33.7306                23.5605                 2.5955

                     61                     62                     63
                      A                      A                      A
 Frequencies --   1167.2414              1179.7984              1192.8808
 Red. masses --      2.2530                 2.2568                 1.7595
 Frc consts  --      1.8086                 1.8508                 1.4752
 IR Inten    --     31.5131                33.5742                68.4452

                     64                     65                     66
                      A                      A                      A
 Frequencies --   1199.8084              1244.5590              1285.6261
 Red. masses --      1.5846                 1.8244                 1.3389
 Frc consts  --      1.3440                 1.6650                 1.3039
 IR Inten    --     47.4029                 8.4897                14.2038

                     67                     68                     69
                      A                      A                      A
 Frequencies --   1308.8600              1319.6751              1324.3320
 Red. masses --      1.5611                 2.0217                 1.2814
 Frc consts  --      1.5757                 2.0744                 1.3242
 IR Inten    --      2.1903                55.5700                19.4822

                     70                     71                     72
                      A                      A                      A
 Frequencies --   1349.3940              1363.3959              1370.7627
 Red. masses --      3.2079                 3.6586                 1.3156
 Frc consts  --      3.4415                 4.0070                 1.4565
 IR Inten    --    111.0241                 1.2438                20.5517

                     73                     74                     75
                      A                      A                      A
 Frequencies --   1410.3300              1427.1869              1437.2956
 Red. masses --      1.3389                 1.4264                 1.2429
 Frc consts  --      1.5691                 1.7118                 1.5128
 IR Inten    --      0.1943                33.0459                10.3093

                     76                     77                     78
                      A                      A                      A
 Frequencies --   1441.9316              1445.4836              1456.0675
 Red. masses --      1.3107                 2.4327                 2.0757
 Frc consts  --      1.6056                 2.9947                 2.5929
 IR Inten    --     10.5744               183.3500                79.9264

                     79                     80                     81
                      A                      A                      A
 Frequencies --   1481.0377              1493.5725              1497.6989
 Red. masses --      2.2277                 1.2080                 2.0664
 Frc consts  --      2.8790                 1.5877                 2.7310
 IR Inten    --     21.7286                10.2298                 4.7371

                     82                     83                     84
                      A                      A                      A
 Frequencies --   1504.5981              1508.0873              1515.8171
 Red. masses --      1.1711                 1.7578                 1.0515
 Frc consts  --      1.5620                 2.3555                 1.4235
 IR Inten    --      8.5486                39.5226                 2.3595

                     85                     86                     87
                      A                      A                      A
 Frequencies --   1517.7887              1519.8832              1524.0517
 Red. masses --      1.0608                 1.1432                 1.1117
 Frc consts  --      1.4398                 1.5559                 1.5213
 IR Inten    --      6.6991                 2.7092                 4.3807

                     88                     89                     90
                      A                      A                      A
 Frequencies --   1534.3242              1534.9662              1543.2902
 Red. masses --      1.1905                 1.1387                 1.2024
 Frc consts  --      1.6512                 1.5808                 1.6873
 IR Inten    --      4.5688                23.1438                46.7141

                     91                     92                     93
                      A                      A                      A
 Frequencies --   1557.5658              1652.1250              1659.8473
 Red. masses --      1.1276                 5.2265                 2.2217
 Frc consts  --      1.6117                 8.4052                 3.6063
 IR Inten    --     29.6923                77.4015                91.2624

                     94                     95                     96
                      A                      A                      A
 Frequencies --   1660.5057              1761.2968              1805.0318
 Red. masses --      1.8453                 9.8281                 5.9173
 Frc consts  --      2.9977                17.9632                11.3591
 IR Inten    --    105.0296               216.4409               334.5212

                     97                     98                     99
                      A                      A                      A
 Frequencies --   3033.0784              3045.2553              3051.4159
 Red. masses --      1.0708                 1.0384                 1.0351
 Frc consts  --      5.8039                 5.6736                 5.6787
 IR Inten    --     39.7153                29.1620                33.9548

                    100                    101                    102
                      A                      A                      A
 Frequencies --   3053.4015              3059.8309              3076.6641
 Red. masses --      1.0511                 1.0489                 1.0591
 Frc consts  --      5.7740                 5.7858                 5.9067
 IR Inten    --      5.8737                70.8374                20.1570

                    103                    104                    105
                      A                      A                      A
 Frequencies --   3102.0016              3113.8355              3116.5375
 Red. masses --      1.0982                 1.1017                 1.1045
 Frc consts  --      6.2260                 6.2937                 6.3204
 IR Inten    --     16.3345                39.1554                27.5965

                    106                    107                    108
                      A                      A                      A
 Frequencies --   3119.3051              3125.2197              3127.1289
 Red. masses --      1.1018                 1.1049                 1.1026
 Frc consts  --      6.3166                 6.3582                 6.3527
 IR Inten    --     13.6253                 7.0247                11.2930

                    109                    110                    111
                      A                      A                      A
 Frequencies --   3128.0457              3159.8670              3166.0962
 Red. masses --      1.1027                 1.1011                 1.0923
 Frc consts  --      6.3569                 6.4775                 6.4510
 IR Inten    --     15.5628                 5.7380                 3.5486

                    112                    113                    114
                      A                      A                      A
 Frequencies --   3181.7652              3197.4184              3226.0530
 Red. masses --      1.0899                 1.0898                 1.0913
 Frc consts  --      6.5007                 6.5644                 6.6917
 IR Inten    --     12.9833                10.0575                 0.8564

                    115                    116                    117
                      A                      A                      A
 Frequencies --   3550.8589              3563.0489              3657.7136
 Red. masses --      1.0486                 1.0770                 1.0980
 Frc consts  --      7.7899                 8.0560                 8.6553
 IR Inten    --     38.3887               232.6582                23.0972

 - Thermochemistry -
 -------------------
 Temperature   298.150 Kelvin.  Pressure   1.00000 Atm.
 Atom     1 has atomic number  6 and mass  12.00000

 Molecular mass:   279.15829 amu.
 Principal axes and moments of inertia in atomic units:
                           1         2         3
     Eigenvalues --  4773.147115186.934816570.92218
           X            0.99720  -0.07302  -0.01594
           Y            0.07355   0.99663   0.03618
           Z            0.01324  -0.03726   0.99922
 This molecule is an asymmetric top.
 Rotational symmetry number  1.
 Warning -- assumption of classical behavior for rotation
           may cause significant error
 Rotational temperatures (Kelvin)      0.01815     0.01670     0.01318
 Rotational constants (GHZ):           0.37810     0.34794     0.27466
 Zero-point vibrational energy     915536.6 (Joules/Mol)
                                  218.81850 (Kcal/Mol)
 Warning -- explicit consideration of  34 degrees of freedom as
           vibrations may cause significant error
 Vibrational temperatures:     41.44    64.35    73.97    89.70    92.01
          (Kelvin)            114.34   122.95   158.49   167.19   182.25
                              217.12   287.32   308.79   335.36   348.21
                              369.02   377.53   388.40   389.97   441.44
                              472.92   515.28   590.89   624.60   662.45
                              697.53   731.42   744.49   761.72   771.41
                              780.81   803.99   828.67   873.13   904.63
                              917.44   932.54  1016.82  1033.71  1045.96
                             1140.96  1223.57  1251.01  1260.04  1287.02
                             1318.19  1342.27  1390.23  1407.74  1457.55
                             1470.42  1497.55  1514.33  1516.14  1544.82
                             1557.32  1574.77  1598.45  1642.75  1664.75
                             1679.40  1697.47  1716.29  1726.26  1790.64
                             1849.73  1883.16  1898.72  1905.42  1941.48
                             1961.62  1972.22  2029.15  2053.40  2067.95
                             2074.62  2079.73  2094.96  2130.88  2148.92
                             2154.85  2164.78  2169.80  2180.92  2183.76
                             2186.77  2192.77  2207.55  2208.47  2220.45
                             2240.99  2377.04  2388.15  2389.10  2534.11
                             2597.04  4363.92  4381.44  4390.31  4393.16
                             4402.41  4426.63  4463.09  4480.11  4484.00
                             4487.98  4496.49  4499.24  4500.56  4546.34
                             4555.31  4577.85  4600.37  4641.57  5108.89
                             5126.43  5262.63

 Zero-point correction=                           0.348709 (Hartree/Particle)
 Thermal correction to Energy=                    0.369534
 Thermal correction to Enthalpy=                  0.370478
 Thermal correction to Gibbs Free Energy=         0.298792
 Sum of electronic and zero-point Energies=           -935.830046
 Sum of electronic and thermal Energies=              -935.809221
 Sum of electronic and thermal Enthalpies=            -935.808277
 Sum of electronic and thermal Free Energies=         -935.879963

                     E (Thermal)             CV                S
                      KCal/Mol        Cal/Mol-Kelvin    Cal/Mol-Kelvin
 Total                  231.886             77.908            150.875
 Electronic               0.000              0.000              0.000
 Translational            0.889              2.981             42.778
 Rotational               0.889              2.981             33.453
 Vibrational            230.109             71.946             74.644
 Vibration     1          0.593              1.984              5.910
 Vibration     2          0.595              1.980              5.038
 Vibration     3          0.596              1.977              4.762
 Vibration     4          0.597              1.972              4.382
 Vibration     5          0.597              1.972              4.331
 Vibration     6          0.600              1.963              3.904
 Vibration     7          0.601              1.959              3.762
 Vibration     8          0.606              1.941              3.266
 Vibration     9          0.608              1.936              3.163
 Vibration    10          0.611              1.926              2.996
 Vibration    11          0.618              1.902              2.661
 Vibration    12          0.638              1.840              2.136
 Vibration    13          0.645              1.819              2.004
 Vibration    14          0.654              1.790              1.855
 Vibration    15          0.658              1.776              1.788
 Vibration    16          0.666              1.752              1.686
 Vibration    17          0.670              1.742              1.646
 Vibration    18          0.674              1.729              1.597
 Vibration    19          0.675              1.727              1.590
 Vibration    20          0.697              1.661              1.379
 Vibration    21          0.712              1.618              1.267
 Vibration    22          0.733              1.559              1.130
 Vibration    23          0.775              1.447              0.924
 Vibration    24          0.795              1.396              0.845
 Vibration    25          0.818              1.338              0.765
 Vibration    26          0.841              1.284              0.697
 Vibration    27          0.864              1.231              0.638
 Vibration    28          0.872              1.211              0.616
 Vibration    29          0.884              1.185              0.588
 Vibration    30          0.891              1.170              0.574
 Vibration    31          0.898              1.156              0.560
 Vibration    32          0.914              1.120              0.526
 Vibration    33          0.932              1.083              0.493
 Vibration    34          0.966              1.017              0.438

 Optimization completed.
    -- Stationary point found.
 Normal termination of Gaussian 16 at Sat Dec 12 16:43:35 2020.

 ----------------------------------------------------------------------
 # B3LYP/6-311++G(d,p) empiricaldispersion=gd3bj scf=xqc pop=npa geom=c
 heck
 ----------------------------------------------------------------------

 ---------------------------------------
 CID_17424910_JID_10178_Energie_neutraal
 ---------------------------------------
 Structure from the checkpoint file:  "JID_10178.chk"
 Charge =  0 Multiplicity = 1

 SCF Done:  E(RB3LYP) =  -936.451271923     A.U. after   16 cycles
 Normal termination of Gaussian 16 at Sat Dec 12 16:56:37 2020.

 ----------------------------------------------------------------------
 # B3LYP/6-311++G(d,p) empiricaldispersion=gd3bj scf=xqc pop=npa geom=c
 heck
 ----------------------------------------------------------------------

 -------------------------------------
 CID_17424910_JID_10178_Energie_kation
 -------------------------------------
 Structure from the checkpoint file:  "JID_10178.chk"
 Charge =  1 Multiplicity = 2

 SCF Done:  E(UB3LYP) =  -936.163318411     A.U. after   28 cycles
 Normal termination of Gaussian 16 at Sat Dec 12 17:28:53 2020.
 Gaussian 16:  ES64L-G16RevA.03 25-Dec-2016

 ----------------------------------------------------------------------
 # B3LYP/6-311++G(d,p) empiricaldispersion=gd3bj scf=xqc pop=npa geom=c
 heck
 ----------------------------------------------------------------------

 ------------------------------------
 CID_17424910_JID_10178_Energie_anion
 ------------------------------------
 Structure from the checkpoint file:  "JID_10178.chk"
 Charge = -1 Multiplicity = 2

                         Standard orientation:
 ---------------------------------------------------------------------
 Center     Atomic      Atomic             Coordinates (Angstroms)
 Number     Number       Type             X           Y           Z
 ---------------------------------------------------------------------
      1          6           0       -1.318894    2.535566   -2.170545
      2          6           0       -0.331197    2.179759   -1.089263
      3          6           0       -0.575091    2.546212    0.242682
      4          6           0        0.301499    2.184087    1.272922
      5          6           0        1.438859    1.432179    0.960654
      6          6           0        1.691926    1.062721   -0.359298
      7          6           0        0.817191    1.439716   -1.383701
      8          8           0        2.862579    0.379902   -0.600753
      9          6           0        2.801604   -0.806654   -1.383939
     10          6           0        2.321170   -2.007506   -0.568120
     11          7           0        0.906007   -1.955198   -0.216715
     12          6           0       -0.054664   -2.111615   -1.304144
     13          6           0        0.565119   -1.724621    1.089676
     14          8           0        1.391398   -1.629163    1.991705
     15          6           0       -0.930616   -1.605160    1.431377
     16          7           0       -1.644174   -0.598744    0.668884
     17          6           0       -2.750527   -0.785572   -0.115740
     18          8           0       -3.126808    0.036355   -0.945520
     19          7           0       -3.408124   -2.010426    0.047489
     20          6           0        0.027106    2.580652    2.703145
     21          1           0       -2.169510    1.846415   -2.123418
     22          1           0       -1.701567    3.553926   -2.041487
     23          1           0       -0.867118    2.463986   -3.165216
     24          1           0       -1.471399    3.114596    0.478835
     25          1           0        2.120488    1.093905    1.732938
     26          1           0        1.032200    1.170578   -2.413347
     27          1           0        2.182637   -0.663444   -2.278282
     28          1           0        3.828161   -0.991148   -1.714806
     29          1           0        2.507688   -2.922619   -1.147667
     30          1           0        2.884405   -2.059067    0.363832
     31          1           0       -0.959297   -2.619138   -0.966547
     32          1           0       -0.340494   -1.150730   -1.746113
     33          1           0        0.405092   -2.733604   -2.078579
     34          1           0       -1.404533   -2.576916    1.265687
     35          1           0       -0.957067   -1.393058    2.504560
     36          1           0       -1.196892    0.302161    0.534688
     37          1           0       -3.502307   -2.355182    0.995601
     38          1           0       -4.288745   -2.005916   -0.452721
     39          1           0       -1.016984    2.877971    2.842003
     40          1           0        0.244741    1.754929    3.389374
     41          1           0        0.656268    3.427587    3.005371
 ---------------------------------------------------------------------

 SCF Done:  E(UB3LYP) =  -936.443256970     A.U. after   33 cycles
 SCF Done:  E(UB3LYP) =  -936.443256970     a.u. after    1 cycles

 The electronic state is 2-A.
 Alpha  occ. eigenvalues --  -19.05884 -18.99859 -18.98686 -14.25717 -14.23991
 Alpha  occ. eigenvalues --  -14.22577 -10.20123 -10.18292 -10.14767 -10.14140
 Alpha  occ. eigenvalues --  -10.12485 -10.11559 -10.10757 -10.10404 -10.10262
 Alpha  occ. eigenvalues --  -10.08963 -10.08536 -10.08275 -10.08041 -10.07469
 Alpha  occ. eigenvalues --   -0.97691  -0.95366  -0.94930  -0.85151  -0.83618
 Alpha  occ. eigenvalues --   -0.79192  -0.77836  -0.70211  -0.69572  -0.66148
 Alpha  occ. eigenvalues --   -0.63785  -0.61702  -0.61017  -0.60096  -0.56428
 Alpha  occ. eigenvalues --   -0.51662  -0.49995  -0.49536  -0.46254  -0.44781
 Alpha  occ. eigenvalues --   -0.43985  -0.42983  -0.41151  -0.40626  -0.40353
 Alpha  occ. eigenvalues --   -0.38937  -0.38546  -0.36467  -0.36099  -0.34737
 Alpha  occ. eigenvalues --   -0.34531  -0.33905  -0.33602  -0.32830  -0.32391
 Alpha  occ. eigenvalues --   -0.31857  -0.31632  -0.31326  -0.31289  -0.30149
 Alpha  occ. eigenvalues --   -0.29749  -0.29518  -0.28534  -0.27681  -0.27043
 Alpha  occ. eigenvalues --   -0.26478  -0.24308  -0.21322  -0.19250  -0.18519
 Alpha  occ. eigenvalues --   -0.16867  -0.16198  -0.16049  -0.15541  -0.14135
 Alpha  occ. eigenvalues --    0.03877
 Alpha virt. eigenvalues --    0.05497   0.06350   0.06667   0.07071   0.07522
 Alpha virt. eigenvalues --    0.08169   0.08620   0.08902   0.09079   0.09672
 Alpha virt. eigenvalues --    0.10102   0.10626   0.10819   0.11228   0.11795

  Beta  occ. eigenvalues --  -19.05882 -18.99857 -18.98676 -14.25714 -14.23986
  Beta  occ. eigenvalues --  -14.22500 -10.20118 -10.18292 -10.14766 -10.14119
  Beta  occ. eigenvalues --  -10.12458 -10.11541 -10.10723 -10.10403 -10.10262
  Beta  occ. eigenvalues --  -10.08956 -10.08528 -10.08271 -10.08040 -10.07463
  Beta  occ. eigenvalues --   -0.97685  -0.95351  -0.94919  -0.85140  -0.83594
  Beta  occ. eigenvalues --   -0.79092  -0.77830  -0.70205  -0.69551  -0.66128
  Beta  occ. eigenvalues --   -0.63743  -0.61659  -0.61004  -0.60083  -0.56395
  Beta  occ. eigenvalues --   -0.51593  -0.49980  -0.49520  -0.46217  -0.44681
  Beta  occ. eigenvalues --   -0.43965  -0.42965  -0.41122  -0.40610  -0.40333
  Beta  occ. eigenvalues --   -0.38894  -0.38488  -0.36440  -0.36076  -0.34710
  Beta  occ. eigenvalues --   -0.34518  -0.33889  -0.33587  -0.32803  -0.32382
  Beta  occ. eigenvalues --   -0.31831  -0.31614  -0.31299  -0.31274  -0.30124
  Beta  occ. eigenvalues --   -0.29728  -0.29501  -0.28516  -0.27665  -0.27032
  Beta  occ. eigenvalues --   -0.26469  -0.24298  -0.21307  -0.19193  -0.18493
  Beta  occ. eigenvalues --   -0.16843  -0.16177  -0.16037  -0.15529  -0.14123
  Beta virt. eigenvalues --    0.06041   0.06503   0.06751   0.07121   0.07297
  Beta virt. eigenvalues --    0.07666   0.08714   0.08930   0.09209   0.09474
  Beta virt. eigenvalues --    0.09782   0.10329   0.10844   0.11135   0.11480

 Mulliken charges and spin densities:
               1          2
     1  C   -0.112662  -0.614841
     2  C    0.550670   0.130247
     3  C   -0.585537  -0.283120
     4  C    0.262001   0.189118
     5  C   -0.289848   0.232126
     6  C   -0.867237   0.092564
     7  C    0.088227  -0.069502
     8  O   -0.024978  -0.001979
     9  C    0.228506  -0.362460
    10  C    0.002661  -0.377529
    11  N    0.109105   0.037296
    12  C    0.427675  -0.823668
    13  C   -0.705070   0.674527
    14  O   -0.282029   0.010182
    15  C    0.839825  -1.317260
    16  N   -0.123945   0.086346
    17  C    0.669548  -0.854634
    18  O   -0.320077  -0.003924
    19  N   -0.519584   0.155488
    20  C   -0.394999  -0.213871
    21  H    0.231632   0.020378
    22  H    0.083667   0.034942
    23  H    0.059356   0.065651
    24  H    0.102601   0.075373
    25  H    0.205179   0.014940
    26  H   -0.087950   0.259989
    27  H    0.071595   0.076164
    28  H   -0.396084   0.585304
    29  H   -0.297056   0.474445
    30  H    0.207475   0.014092
    31  H    0.070123   0.081868
    32  H    0.203082   0.041038
    33  H   -0.765958   0.953440
    34  H   -0.220501   0.384347
    35  H    0.011587   0.216572
    36  H    0.986378  -0.427153
    37  H   -0.493839   0.757115
    38  H   -0.196582   0.485558
    39  H    0.026661   0.113069
    40  H    0.152253   0.013781
    41  H    0.094128   0.073981
 Sum of Mulliken charges =  -1.00000   1.00000

 Dipole moment (field-independent basis, Debye):
    X=              3.3675    Y=              7.2951    Z=              1.0988  Tot=              8.1096
 Quadrupole moment (field-independent basis, Debye-Ang):
   XX=           -194.3015   YY=           -175.7777   ZZ=           -164.2193
   XY=            -10.5837   XZ=              6.4425   YZ=              0.0357

 Summary of Natural Population Analysis:

                                       Natural Population
                Natural  -----------------------------------------------
    Atom  No    Charge         Core      Valence    Rydberg      Total
 -----------------------------------------------------------------------
      C    1   -0.30009      0.99962     2.29530    0.00516     3.30009
      C    2   -0.00058      0.99953     1.99251    0.00855     3.00058
      C    3   -0.12861      0.99947     2.11988    0.00925     3.12861
      C    4   -0.01450      0.99952     2.00533    0.00965     3.01450
      C    5   -0.12728      0.99945     2.11904    0.00878     3.12728
      C    6    0.16352      0.99936     1.82329    0.01382     2.83648
      C    7   -0.13957      0.99945     2.13152    0.00860     3.13957
      O    8   -0.28474      0.99986     3.27541    0.00948     4.28474
      C    9   -0.01295      0.99955     2.00097    0.01243     3.01295
      C   10   -0.09927      0.99959     2.08841    0.01127     3.09927
      N   11   -0.25516      0.99964     2.74264    0.01287     3.75516
      C   12   -0.18294      0.99962     2.17457    0.00876     3.18294
      C   13    0.34288      0.99963     1.63376    0.02373     2.65712
      O   14   -0.32527      0.99988     3.32027    0.00512     4.32527
      C   15   -0.12809      0.99957     2.11656    0.01197     3.12809
      N   16   -0.33897      0.99966     2.82868    0.01063     3.83897
      C   17    0.40502      0.99970     1.57153    0.02375     2.59498
      O   18   -0.34415      0.99987     3.33845    0.00583     4.34415
      N   19   -0.42096      0.99972     2.91185    0.00939     3.92096
      C   20   -0.29266      0.99963     2.28799    0.00503     3.29266
      H   21    0.12849      0.00000     0.37025    0.00126     0.37151
      H   22    0.09888      0.00000     0.40029    0.00083     0.40112
      H   23    0.09875      0.00000     0.40045    0.00080     0.40125
      H   24    0.10172      0.00000     0.39730    0.00097     0.39828
      H   25    0.11292      0.00000     0.38583    0.00125     0.38708
      H   26    0.10459      0.00000     0.39434    0.00107     0.39541
      H   27    0.08565      0.00000     0.41271    0.00164     0.41435
      H   28    0.09480      0.00000     0.40395    0.00125     0.40520
      H   29    0.09928      0.00000     0.39915    0.00157     0.40072
      H   30    0.11790      0.00000     0.38071    0.00139     0.38210
      H   31    0.10884      0.00000     0.38922    0.00194     0.39116
      H   32    0.10009      0.00000     0.39819    0.00173     0.39991
      H   33    0.10019      0.00000     0.39824    0.00156     0.39981
      H   34    0.11391      0.00000     0.38398    0.00211     0.38609
      H   35    0.10621      0.00000     0.39248    0.00131     0.39379
      H   36    0.20789      0.00000     0.28795    0.00416     0.29211
      H   37    0.19480      0.00000     0.29221    0.01299     0.30520
      H   38    0.19648      0.00000     0.30084    0.00268     0.30352
      H   39    0.10241      0.00000     0.39684    0.00074     0.39759
      H   40    0.10734      0.00000     0.39183    0.00083     0.39266
      H   41    0.10322      0.00000     0.39589    0.00089     0.39678
 =======================================================================
   * Total *    0.00000     19.99232    54.75063    0.25705    75.00000

 Normal termination of Gaussian 16 at Sat Dec 12 18:04:52 2020.
