 Gaussian 16, Revision A.03,

 -----------------------------------------------------------
 # opt freq B3LYP/6-31G(d) empiricaldispersion=gd3bj scf=xqc
 -----------------------------------------------------------

 -------------------------------
 CID_152132599_JID_6604_neutraal
 -------------------------------
 Symbolic Z-matrix:
 Charge =  0 Multiplicity = 1

 SCF Done:  E(RB3LYP) =  -765.215165528     A.U. after   15 cycles
 SCF Done:  E(RB3LYP) =  -765.222738700     A.U. after   12 cycles
 SCF Done:  E(RB3LYP) =  -765.223768864     A.U. after   12 cycles
 SCF Done:  E(RB3LYP) =  -765.224613252     A.U. after   12 cycles
 SCF Done:  E(RB3LYP) =  -765.225056699     A.U. after   12 cycles
 SCF Done:  E(RB3LYP) =  -765.225322750     A.U. after   12 cycles
 SCF Done:  E(RB3LYP) =  -765.225735165     A.U. after   12 cycles
 SCF Done:  E(RB3LYP) =  -765.225486032     A.U. after   12 cycles
 SCF Done:  E(RB3LYP) =  -765.227769361     A.U. after   14 cycles
 SCF Done:  E(RB3LYP) =  -765.227104792     A.U. after   12 cycles
 SCF Done:  E(RB3LYP) =  -765.229546581     A.U. after   10 cycles
 SCF Done:  E(RB3LYP) =  -765.229555407     A.U. after   10 cycles
 SCF Done:  E(RB3LYP) =  -765.229558209     A.U. after    9 cycles
 SCF Done:  E(RB3LYP) =  -765.229559281     A.U. after    9 cycles
 SCF Done:  E(RB3LYP) =  -765.229559350     A.U. after    7 cycles
 SCF Done:  E(RB3LYP) =  -765.229559383     A.U. after    7 cycles
 Optimization completed.
    -- Stationary point found.
 Normal termination of Gaussian 16 at Thu Dec 10 23:56:27 2020.

 --------------------------------------------------------------------
 #N Geom=AllCheck Guess=TCheck SCRF=Check GenChk RB3LYP/6-31G(d) Freq
 --------------------------------------------------------------------

 Structure from the checkpoint file:  "JID_6604.chk"
 -------------------------------
 CID_152132599_JID_6604_neutraal
 -------------------------------
 Charge =  0 Multiplicity = 1

 SCF Done:  E(RB3LYP) =  -765.229559383     A.U. after    1 cycles

  Exact polarizability: 187.767  -7.606 128.905 -18.389  -7.275 103.620
 Approx polarizability: 240.819   1.133 210.010 -35.827 -26.125 163.368

                      1                      2                      3
                      A                      A                      A
 Frequencies --     23.9854                36.2771                38.1841
 Red. masses --      4.3322                 3.9626                 4.2719
 Frc consts  --      0.0015                 0.0031                 0.0037
 IR Inten    --      0.2325                 0.5708                 0.7131

                      4                      5                      6
                      A                      A                      A
 Frequencies --     50.0245                71.7826                98.0055
 Red. masses --      3.9043                 2.3925                 2.3427
 Frc consts  --      0.0058                 0.0073                 0.0133
 IR Inten    --      0.5222                 5.2570                 5.2256

                      7                      8                      9
                      A                      A                      A
 Frequencies --    108.9768               131.7685               157.8758
 Red. masses --      2.6204                 2.6402                 4.6842
 Frc consts  --      0.0183                 0.0270                 0.0688
 IR Inten    --      0.6204                 0.4480                 5.2795

                     10                     11                     12
                      A                      A                      A
 Frequencies --    163.7566               216.4372               235.8917
 Red. masses --      1.8875                 2.1213                 1.9048
 Frc consts  --      0.0298                 0.0585                 0.0624
 IR Inten    --      2.5952                 2.8101                 1.0493

                     13                     14                     15
                      A                      A                      A
 Frequencies --    249.5791               282.3593               317.8201
 Red. masses --      2.9677                 1.9912                 2.4975
 Frc consts  --      0.1089                 0.0935                 0.1486
 IR Inten    --      2.9062                 3.7159                 3.0349

                     16                     17                     18
                      A                      A                      A
 Frequencies --    332.5477               346.4313               362.9744
 Red. masses --      6.7394                 2.3586                 2.5255
 Frc consts  --      0.4391                 0.1668                 0.1960
 IR Inten    --      0.9425                 0.9313                 0.7857

                     19                     20                     21
                      A                      A                      A
 Frequencies --    421.3513               435.9321               485.5158
 Red. masses --      2.9992                 2.9353                 4.4643
 Frc consts  --      0.3137                 0.3287                 0.6200
 IR Inten    --      7.0621                 0.7453                 0.2423

                     22                     23                     24
                      A                      A                      A
 Frequencies --    498.3920               553.7209               578.4096
 Red. masses --      3.4190                 4.5943                 2.9211
 Frc consts  --      0.5004                 0.8300                 0.5758
 IR Inten    --      5.5215                 4.8544                 4.0244

                     25                     26                     27
                      A                      A                      A
 Frequencies --    598.8477               694.0320               722.2122
 Red. masses --      5.9220                 2.4468                 1.7627
 Frc consts  --      1.2513                 0.6944                 0.5417
 IR Inten    --      6.2664                38.5487                27.7045

                     28                     29                     30
                      A                      A                      A
 Frequencies --    730.8222               748.5834               765.4872
 Red. masses --      1.8188                 4.8051                 2.9353
 Frc consts  --      0.5723                 1.5865                 1.0134
 IR Inten    --     20.4168                 6.0203                24.1827

                     31                     32                     33
                      A                      A                      A
 Frequencies --    781.4996               805.9497               879.5152
 Red. masses --      3.0576                 3.0938                 2.1476
 Frc consts  --      1.1002                 1.1840                 0.9788
 IR Inten    --     15.0985                 2.7664                 5.3868

                     34                     35                     36
                      A                      A                      A
 Frequencies --    905.4298               948.4826               967.2765
 Red. masses --      2.1001                 1.4337                 2.1338
 Frc consts  --      1.0144                 0.7599                 1.1763
 IR Inten    --      0.7389                10.8622                14.5107

                     37                     38                     39
                      A                      A                      A
 Frequencies --    994.1228              1020.1111              1027.8230
 Red. masses --      2.2797                 1.8516                 4.0046
 Frc consts  --      1.3274                 1.1353                 2.4925
 IR Inten    --     12.5914                 0.3619                18.1302

                     40                     41                     42
                      A                      A                      A
 Frequencies --   1035.0162              1073.3716              1110.7299
 Red. masses --      3.2611                 2.0052                 1.8337
 Frc consts  --      2.0583                 1.3611                 1.3329
 IR Inten    --     13.6595                23.3282                10.4897

                     43                     44                     45
                      A                      A                      A
 Frequencies --   1129.6950              1168.1551              1178.5267
 Red. masses --      2.3501                 3.0905                 2.3102
 Frc consts  --      1.7671                 2.4847                 1.8905
 IR Inten    --      3.3562                77.2019               133.5180

                     46                     47                     48
                      A                      A                      A
 Frequencies --   1184.7215              1189.3177              1194.1964
 Red. masses --      1.2574                 1.6313                 1.2421
 Frc consts  --      1.0398                 1.3595                 1.0436
 IR Inten    --      6.3858                24.1055                29.5018

                     49                     50                     51
                      A                      A                      A
 Frequencies --   1202.3145              1225.8404              1240.9473
 Red. masses --      1.5182                 1.9883                 2.2780
 Frc consts  --      1.2931                 1.7604                 2.0669
 IR Inten    --     15.4936                 3.9240                60.6836

                     52                     53                     54
                      A                      A                      A
 Frequencies --   1245.0328              1268.3091              1297.4726
 Red. masses --      1.5652                 1.3247                 1.3859
 Frc consts  --      1.4295                 1.2555                 1.3746
 IR Inten    --     11.7364                 9.2455                27.3378

                     55                     56                     57
                      A                      A                      A
 Frequencies --   1306.0813              1320.9256              1345.5736
 Red. masses --      1.6491                 2.4492                 1.1286
 Frc consts  --      1.6575                 2.5178                 1.2039
 IR Inten    --     88.2349               208.9556                 0.4134

                     58                     59                     60
                      A                      A                      A
 Frequencies --   1369.9588              1386.2794              1394.1178
 Red. masses --      1.4444                 1.5376                 2.2576
 Frc consts  --      1.5972                 1.7410                 2.5852
 IR Inten    --      3.5265                14.4600                 0.3970

                     61                     62                     63
                      A                      A                      A
 Frequencies --   1410.7246              1423.0034              1446.7476
 Red. masses --      1.4316                 1.4133                 1.3754
 Frc consts  --      1.6786                 1.6861                 1.6961
 IR Inten    --      5.2249                 1.1897                21.7152

                     64                     65                     66
                      A                      A                      A
 Frequencies --   1479.7476              1504.2056              1506.4962
 Red. masses --      1.4061                 1.1667                 1.1133
 Frc consts  --      1.8141                 1.5554                 1.4886
 IR Inten    --      0.1998                 6.0173                 3.8921

                     67                     68                     69
                      A                      A                      A
 Frequencies --   1511.3408              1514.6711              1515.3670
 Red. masses --      1.5318                 1.0492                 1.3021
 Frc consts  --      2.0614                 1.4182                 1.7617
 IR Inten    --     49.9991                 4.4848                 3.9755

                     70                     71                     72
                      A                      A                      A
 Frequencies --   1519.2437              1526.9413              1527.9302
 Red. masses --      1.0867                 1.1126                 1.0862
 Frc consts  --      1.4778                 1.5283                 1.4941
 IR Inten    --      7.7761                 4.5566                10.2562

                     73                     74                     75
                      A                      A                      A
 Frequencies --   1536.1601              1544.7907              1560.7379
 Red. masses --      1.0757                 1.0514                 1.0882
 Frc consts  --      1.4956                 1.4783                 1.5617
 IR Inten    --      6.6204                24.7260                 3.6281

                     76                     77                     78
                      A                      A                      A
 Frequencies --   1619.8648              1654.2640              1783.2570
 Red. masses --      5.4820                 6.2578                 8.8217
 Frc consts  --      8.4752                10.0898                16.5284
 IR Inten    --     12.1197               180.3812               528.8257

                     79                     80                     81
                      A                      A                      A
 Frequencies --   2967.3259              2987.2182              2995.9844
 Red. masses --      1.0557                 1.0452                 1.0961
 Frc consts  --      5.4769                 5.4951                 5.7965
 IR Inten    --     43.0250                76.0325                85.8171

                     82                     83                     84
                      A                      A                      A
 Frequencies --   3027.7781              3035.8433              3044.4559
 Red. masses --      1.1044                 1.0681                 1.0430
 Frc consts  --      5.9653                 5.8000                 5.6958
 IR Inten    --     67.4688                19.2411                72.0901

                     85                     86                     87
                      A                      A                      A
 Frequencies --   3047.3558              3050.5638              3061.3559
 Red. masses --      1.0685                 1.0676                 1.0631
 Frc consts  --      5.8460                 5.8535                 5.8701
 IR Inten    --     23.8908                41.0966                18.8203

                     88                     89                     90
                      A                      A                      A
 Frequencies --   3087.0565              3094.6914              3109.6265
 Red. masses --      1.0949                 1.1017                 1.0992
 Frc consts  --      6.1475                 6.2164                 6.2622
 IR Inten    --     20.7212                29.5606                45.8656

                     91                     92                     93
                      A                      A                      A
 Frequencies --   3135.2605              3139.4307              3140.0172
 Red. masses --      1.0963                 1.0933                 1.0904
 Frc consts  --      6.3491                 6.3488                 6.3344
 IR Inten    --     34.3363                14.1069                37.2996

                     94                     95                     96
                      A                      A                      A
 Frequencies --   3181.9584              3202.7278              3570.7613
 Red. masses --      1.1081                 1.0913                 1.0773
 Frc consts  --      6.6101                 6.5951                 8.0931
 IR Inten    --      7.5439                19.8923                29.2088

 - Thermochemistry -
 -------------------
 Temperature   298.150 Kelvin.  Pressure   1.00000 Atm.
 Atom     1 has atomic number  6 and mass  12.00000

 Molecular mass:   226.13174 amu.
 Principal axes and moments of inertia in atomic units:
                           1         2         3
     Eigenvalues --  1314.786668972.261149348.95214
           X            0.99995  -0.00494  -0.00849
           Y            0.00525   0.99929   0.03726
           Z            0.00830  -0.03730   0.99927
 This molecule is an asymmetric top.
 Rotational symmetry number  1.
 Warning -- assumption of classical behavior for rotation
           may cause significant error
 Rotational temperatures (Kelvin)      0.06588     0.00965     0.00926
 Rotational constants (GHZ):           1.37265     0.20115     0.19304
 Zero-point vibrational energy     766325.9 (Joules/Mol)
                                  183.15628 (Kcal/Mol)
 Warning -- explicit consideration of  25 degrees of freedom as
           vibrations may cause significant error
 Vibrational temperatures:     34.51    52.19    54.94    71.97   103.28
          (Kelvin)            141.01   156.79   189.59   227.15   235.61
                              311.40   339.40   359.09   406.25   457.27
                              478.46   498.44   522.24   606.23   627.21
                              698.55   717.07   796.68   832.20   861.61
                              998.56  1039.10  1051.49  1077.04  1101.37
                             1124.40  1159.58  1265.43  1302.71  1364.65
                             1391.70  1430.32  1467.71  1478.81  1489.16
                             1544.34  1598.09  1625.38  1680.71  1695.64
                             1704.55  1711.16  1718.18  1729.86  1763.71
                             1785.45  1791.32  1824.81  1866.77  1879.16
                             1900.52  1935.98  1971.07  1994.55  2005.82
                             2029.72  2047.38  2081.55  2129.03  2164.22
                             2167.51  2174.48  2179.27  2180.28  2185.85
                             2196.93  2198.35  2210.19  2222.61  2245.55
                             2330.62  2380.12  2565.71  4269.32  4297.94
                             4310.55  4356.30  4367.90  4380.29  4384.47
                             4389.08  4404.61  4441.59  4452.57  4474.06
                             4510.94  4516.94  4517.78  4578.13  4608.01
                             5137.53

 Zero-point correction=                           0.291878 (Hartree/Particle)
 Thermal correction to Energy=                    0.308723
 Thermal correction to Enthalpy=                  0.309667
 Thermal correction to Gibbs Free Energy=         0.245015
 Sum of electronic and zero-point Energies=           -764.937681
 Sum of electronic and thermal Energies=              -764.920837
 Sum of electronic and thermal Enthalpies=            -764.919893
 Sum of electronic and thermal Free Energies=         -764.984544

                     E (Thermal)             CV                S
                      KCal/Mol        Cal/Mol-Kelvin    Cal/Mol-Kelvin
 Total                  193.726             60.939            136.071
 Electronic               0.000              0.000              0.000
 Translational            0.889              2.981             42.150
 Rotational               0.889              2.981             33.067
 Vibrational            191.949             54.978             60.854
 Vibration     1          0.593              1.985              6.273
 Vibration     2          0.594              1.982              5.453
 Vibration     3          0.594              1.982              5.351
 Vibration     4          0.595              1.978              4.816
 Vibration     5          0.598              1.967              4.104
 Vibration     6          0.603              1.951              3.494
 Vibration     7          0.606              1.942              3.287
 Vibration     8          0.612              1.922              2.920
 Vibration     9          0.621              1.894              2.575
 Vibration    10          0.623              1.887              2.506
 Vibration    11          0.645              1.816              1.989
 Vibration    12          0.655              1.786              1.834
 Vibration    13          0.662              1.763              1.734
 Vibration    14          0.681              1.706              1.519
 Vibration    15          0.704              1.640              1.321
 Vibration    16          0.714              1.611              1.248
 Vibration    17          0.724              1.583              1.182
 Vibration    18          0.737              1.549              1.109
 Vibration    19          0.784              1.424              0.887
 Vibration    20          0.796              1.392              0.839
 Vibration    21          0.842              1.282              0.695
 Vibration    22          0.854              1.254              0.662
 Vibration    23          0.909              1.132              0.537
 Vibration    24          0.935              1.078              0.488
 Vibration    25          0.957              1.034              0.452

                           ! Non-Optimized Parameters !
 Normal termination of Gaussian 16 at Fri Dec 11 00:06:14 2020.

 ----------------------------------------------------------------------
 # B3LYP/6-311++G(d,p) empiricaldispersion=gd3bj scf=xqc pop=npa geom=c
 heck
 ----------------------------------------------------------------------

 ---------------------------------------
 CID_152132599_JID_6604_Energie_neutraal
 ---------------------------------------
 Structure from the checkpoint file:  "JID_6604.chk"
 Charge =  0 Multiplicity = 1

 SCF Done:  E(RB3LYP) =  -765.451239414     A.U. after   15 cycles
 Normal termination of Gaussian 16 at Fri Dec 11 00:10:35 2020.

 ----------------------------------------------------------------------
 # B3LYP/6-311++G(d,p) empiricaldispersion=gd3bj scf=xqc pop=npa geom=c
 heck
 ----------------------------------------------------------------------

 -------------------------------------
 CID_152132599_JID_6604_Energie_kation
 -------------------------------------
 Structure from the checkpoint file:  "JID_6604.chk"
 Charge =  1 Multiplicity = 2

 SCF Done:  E(UB3LYP) =  -765.150345955     A.U. after   30 cycles
 Normal termination of Gaussian 16 at Fri Dec 11 00:22:18 2020.
 Gaussian 16:  ES64L-G16RevA.03 25-Dec-2016

 ----------------------------------------------------------------------
 # B3LYP/6-311++G(d,p) empiricaldispersion=gd3bj scf=xqc pop=npa geom=c
 heck
 ----------------------------------------------------------------------

 ------------------------------------
 CID_152132599_JID_6604_Energie_anion
 ------------------------------------
 Structure from the checkpoint file:  "JID_6604.chk"
 Charge = -1 Multiplicity = 2

                         Standard orientation:
 ---------------------------------------------------------------------
 Center     Atomic      Atomic             Coordinates (Angstroms)
 Number     Number       Type             X           Y           Z
 ---------------------------------------------------------------------
      1          6           0       -5.895354   -0.015954   -0.204327
      2          8           0       -4.613108   -0.306059   -0.711919
      3          6           0       -3.750868   -0.855673    0.268686
      4          6           0       -2.394057   -1.131057   -0.364913
      5          6           0       -1.774281    0.090190   -1.060842
      6          6           0       -1.635283    1.339567   -0.180455
      7          6           0       -0.837031    1.117089    1.122795
      8          6           0        0.514289    0.505739    0.881724
      9          7           0        0.768458   -0.723491    1.234293
     10          6           0        2.010432   -1.216064    0.923708
     11          6           0        2.999867   -0.511497    0.293666
     12          6           0        2.755098    0.875264   -0.089339
     13          8           0        3.528657    1.661121   -0.626978
     14          7           0        1.445721    1.273548    0.236862
     15          8           0        4.219608   -1.083020    0.120038
     16          6           0        4.821727   -0.953877   -1.177272
     17          1           0       -6.482117    0.407446   -1.023688
     18          1           0       -5.851766    0.715144    0.619922
     19          1           0       -6.401321   -0.921682    0.167637
     20          1           0       -3.655842   -0.154310    1.116373
     21          1           0       -4.178087   -1.788223    0.674642
     22          1           0       -1.717044   -1.510295    0.409680
     23          1           0       -2.509507   -1.932306   -1.104747
     24          1           0       -0.787090   -0.194954   -1.446706
     25          1           0       -2.388197    0.353305   -1.928224
     26          1           0       -1.158162    2.134570   -0.769619
     27          1           0       -2.628378    1.718210    0.087029
     28          1           0       -0.722767    2.074541    1.648630
     29          1           0       -1.371439    0.440197    1.792349
     30          1           0        2.209532   -2.241808    1.222129
     31          1           0        1.230460    2.233987   -0.011687
     32          1           0        4.170715   -1.392219   -1.944611
     33          1           0        5.021705    0.091905   -1.413731
     34          1           0        5.751571   -1.522607   -1.123176
 ---------------------------------------------------------------------

 SCF Done:  E(UB3LYP) =  -765.451626766     A.U. after   31 cycles

 The electronic state is 2-A.
 Alpha  occ. eigenvalues --  -19.03210 -19.03083 -18.96777 -14.23691 -14.18272
 Alpha  occ. eigenvalues --  -10.15154 -10.11943 -10.11914 -10.11819 -10.10988
 Alpha  occ. eigenvalues --  -10.09448 -10.07254 -10.06729 -10.06595 -10.06378
 Alpha  occ. eigenvalues --  -10.06086  -0.94969  -0.94551  -0.91833  -0.86097
 Alpha  occ. eigenvalues --   -0.77071  -0.71032  -0.67510  -0.64779  -0.60991
 Alpha  occ. eigenvalues --   -0.58361  -0.56299  -0.54058  -0.52359  -0.49954
 Alpha  occ. eigenvalues --   -0.45786  -0.43277  -0.41692  -0.40051  -0.39537
 Alpha  occ. eigenvalues --   -0.37486  -0.36949  -0.36236  -0.35510  -0.35272
 Alpha  occ. eigenvalues --   -0.33928  -0.33326  -0.31690  -0.30894  -0.29974
 Alpha  occ. eigenvalues --   -0.29171  -0.28571  -0.27080  -0.26264  -0.25047
 Alpha  occ. eigenvalues --   -0.24820  -0.23770  -0.22418  -0.22315  -0.21601
 Alpha  occ. eigenvalues --   -0.20951  -0.17673  -0.16938  -0.15281  -0.14070
 Alpha  occ. eigenvalues --   -0.10494   0.04072
 Alpha virt. eigenvalues --    0.05803   0.07629   0.07721   0.08310   0.08652
 Alpha virt. eigenvalues --    0.09746   0.10198   0.10665   0.10856   0.11432
 Alpha virt. eigenvalues --    0.11492   0.11834   0.12471   0.12869   0.13296

  Beta  occ. eigenvalues --  -19.03203 -19.03070 -18.96729 -14.23486 -14.18385
  Beta  occ. eigenvalues --  -10.15108 -10.11908 -10.11807 -10.11607 -10.10975
  Beta  occ. eigenvalues --  -10.09282 -10.07034 -10.06741 -10.06554 -10.06377
  Beta  occ. eigenvalues --  -10.06084  -0.94861  -0.94541  -0.91692  -0.85814
  Beta  occ. eigenvalues --   -0.76854  -0.70953  -0.67285  -0.64629  -0.60900
  Beta  occ. eigenvalues --   -0.58243  -0.56214  -0.53636  -0.52238  -0.49826
  Beta  occ. eigenvalues --   -0.45719  -0.43145  -0.41525  -0.39992  -0.39508
  Beta  occ. eigenvalues --   -0.37345  -0.36810  -0.36024  -0.35321  -0.35187
  Beta  occ. eigenvalues --   -0.33742  -0.33246  -0.31273  -0.30803  -0.29879
  Beta  occ. eigenvalues --   -0.29094  -0.28467  -0.27008  -0.26127  -0.24830
  Beta  occ. eigenvalues --   -0.24618  -0.23564  -0.22392  -0.22232  -0.21500
  Beta  occ. eigenvalues --   -0.20632  -0.16956  -0.16895  -0.15292  -0.13957
  Beta  occ. eigenvalues --   -0.09549
  Beta virt. eigenvalues --    0.06323   0.07566   0.08004   0.08434   0.08629
  Beta virt. eigenvalues --    0.09281   0.09945   0.10386   0.10798   0.10998
  Beta virt. eigenvalues --    0.11492   0.11757   0.11892   0.12789   0.12971

 Mulliken charges and spin densities:
               1          2
     1  C    0.672640  -0.907410
     2  O   -0.159490   0.057811
     3  C   -0.528005   0.017797
     4  C   -0.276598  -0.161400
     5  C   -0.284379   0.275870
     6  C    0.499398  -0.742666
     7  C   -0.341101  -0.141391
     8  C   -0.605387   0.242210
     9  N    0.018834  -0.070002
    10  C    0.238560   0.262064
    11  C   -0.418075   0.063116
    12  C    0.318807   0.024070
    13  O   -0.417855   0.018794
    14  N   -0.108850   0.074365
    15  O   -0.208833  -0.002697
    16  C   -0.219320  -0.055535
    17  H   -0.132277   0.266478
    18  H   -0.357300   0.488241
    19  H   -0.189056   0.303747
    20  H    0.192590  -0.035887
    21  H    0.061518   0.057799
    22  H    0.170165   0.027743
    23  H    0.165693  -0.011378
    24  H    0.133588   0.007135
    25  H    0.165632   0.029445
    26  H    0.055387   0.067343
    27  H   -0.055319   0.224125
    28  H   -0.315498   0.516831
    29  H    0.107918   0.037905
    30  H    0.174277  -0.006963
    31  H    0.286855   0.024117
    32  H    0.094258   0.012420
    33  H    0.181629   0.001986
    34  H    0.079593   0.033919
 Sum of Mulliken charges =  -1.00000   1.00000

 Dipole moment (field-independent basis, Debye):
    X=              1.3430    Y=             -2.8667    Z=             -1.9450  Tot=              3.7155
 Quadrupole moment (field-independent basis, Debye-Ang):
   XX=           -193.2387   YY=           -124.3574   ZZ=           -117.3349
   XY=              0.1335   XZ=             -1.7286   YZ=              0.5913

 Summary of Natural Population Analysis:

                                       Natural Population
                Natural  -----------------------------------------------
    Atom  No    Charge         Core      Valence    Rydberg      Total
 -----------------------------------------------------------------------
      C    1   -0.09640      0.99962     2.08743    0.00934     3.09640
      O    2   -0.30120      0.99988     3.29132    0.01000     4.30120
      C    3   -0.00965      0.99959     1.99772    0.01235     3.00965
      C    4   -0.20494      0.99962     2.19657    0.00874     3.20494
      C    5   -0.19306      0.99962     2.18448    0.00896     3.19306
      C    6   -0.18637      0.99962     2.17720    0.00954     3.18637
      C    7   -0.21701      0.99960     2.20734    0.01007     3.21701
      C    8    0.27971      0.99961     1.70427    0.01641     2.72029
      N    9   -0.29145      0.99967     2.78217    0.00961     3.79145
      C   10    0.04595      0.99953     1.94111    0.01341     2.95405
      C   11    0.10649      0.99935     1.88117    0.01299     2.89351
      C   12    0.30764      0.99962     1.67112    0.02162     2.69236
      O   13   -0.33989      0.99988     3.33392    0.00609     4.33989
      N   14   -0.27143      0.99963     2.76363    0.00817     3.77143
      O   15   -0.28480      0.99986     3.27368    0.01126     4.28480
      C   16   -0.09952      0.99960     2.09182    0.00810     3.09952
      H   17    0.08899      0.00000     0.40989    0.00112     0.41101
      H   18    0.08018      0.00000     0.41791    0.00191     0.41982
      H   19    0.07532      0.00000     0.42303    0.00165     0.42468
      H   20    0.07885      0.00000     0.41958    0.00157     0.42115
      H   21    0.07744      0.00000     0.42129    0.00126     0.42256
      H   22    0.11166      0.00000     0.38715    0.00119     0.38834
      H   23    0.09576      0.00000     0.40322    0.00102     0.40424
      H   24    0.09904      0.00000     0.39987    0.00109     0.40096
      H   25    0.10114      0.00000     0.39771    0.00115     0.39886
      H   26    0.09346      0.00000     0.40541    0.00113     0.40654
      H   27    0.10121      0.00000     0.39731    0.00148     0.39879
      H   28    0.10725      0.00000     0.39056    0.00219     0.39275
      H   29    0.10823      0.00000     0.39007    0.00170     0.39177
      H   30    0.08621      0.00000     0.41214    0.00165     0.41379
      H   31    0.19538      0.00000     0.30178    0.00284     0.30462
      H   32    0.07579      0.00000     0.42218    0.00203     0.42421
      H   33    0.09887      0.00000     0.39945    0.00168     0.40113
      H   34    0.08116      0.00000     0.41756    0.00127     0.41884
 =======================================================================
   * Total *    0.00000     15.99430    44.80109    0.20461    61.00000

 Normal termination of Gaussian 16 at Fri Dec 11 00:34:34 2020.
