 Gaussian 16, Revision A.03,

 -----------------------------------------------------------
 # opt freq B3LYP/6-31G(d) empiricaldispersion=gd3bj scf=xqc
 -----------------------------------------------------------

 ------------------------------
 CID_80090022_JID_6203_neutraal
 ------------------------------
 Symbolic Z-matrix:
 Charge =  0 Multiplicity = 1

 SCF Done:  E(RB3LYP) =  -663.769700772     A.U. after   13 cycles
 SCF Done:  E(RB3LYP) =  -663.770049009     A.U. after   12 cycles
 SCF Done:  E(RB3LYP) =  -663.771758515     A.U. after   11 cycles
 SCF Done:  E(RB3LYP) =  -663.773054148     A.U. after   11 cycles
 SCF Done:  E(RB3LYP) =  -663.773627348     A.U. after   10 cycles
 SCF Done:  E(RB3LYP) =  -663.773622163     A.U. after   11 cycles
 SCF Done:  E(RB3LYP) =  -663.773850055     A.U. after   11 cycles
 SCF Done:  E(RB3LYP) =  -663.774084902     A.U. after   12 cycles
 SCF Done:  E(RB3LYP) =  -663.773203181     A.U. after   13 cycles
 SCF Done:  E(RB3LYP) =  -663.774467153     A.U. after   10 cycles
 SCF Done:  E(RB3LYP) =  -663.775310537     A.U. after   10 cycles
 SCF Done:  E(RB3LYP) =  -663.775328710     A.U. after    9 cycles
 SCF Done:  E(RB3LYP) =  -663.775337784     A.U. after    9 cycles
 SCF Done:  E(RB3LYP) =  -663.775338337     A.U. after    8 cycles
 SCF Done:  E(RB3LYP) =  -663.775338929     A.U. after    7 cycles
 SCF Done:  E(RB3LYP) =  -663.775338962     A.U. after    6 cycles
 Optimization completed.
    -- Stationary point found.
 Normal termination of Gaussian 16 at Thu Dec 10 21:37:23 2020.

 --------------------------------------------------------------------
 #N Geom=AllCheck Guess=TCheck SCRF=Check GenChk RB3LYP/6-31G(d) Freq
 --------------------------------------------------------------------

 Structure from the checkpoint file:  "JID_6203.chk"
 ------------------------------
 CID_80090022_JID_6203_neutraal
 ------------------------------
 Charge =  0 Multiplicity = 1

 SCF Done:  E(RB3LYP) =  -663.775338962     A.U. after    1 cycles

  Exact polarizability: 173.631  -3.031 157.953   1.148   0.900 132.771
 Approx polarizability: 223.923  -9.510 222.956   4.536  -1.633 207.834

                      1                      2                      3
                      A                      A                      A
 Frequencies --     45.3242                55.8271                67.1306
 Red. masses --      3.2197                 2.7814                 3.6762
 Frc consts  --      0.0039                 0.0051                 0.0098
 IR Inten    --      0.1635                 0.0056                 1.5660

                      4                      5                      6
                      A                      A                      A
 Frequencies --     95.8418               109.4253               142.4808
 Red. masses --      2.9771                 2.7649                 2.6021
 Frc consts  --      0.0161                 0.0195                 0.0311
 IR Inten    --      1.0530                 0.1466                 1.2033

                      7                      8                      9
                      A                      A                      A
 Frequencies --    150.7190               187.4194               195.4356
 Red. masses --      3.4842                 2.3256                 2.3552
 Frc consts  --      0.0466                 0.0481                 0.0530
 IR Inten    --      1.3481                 1.1339                 0.7999

                     10                     11                     12
                      A                      A                      A
 Frequencies --    223.8660               242.3464               250.5921
 Red. masses --      2.2557                 1.0564                 1.0611
 Frc consts  --      0.0666                 0.0366                 0.0393
 IR Inten    --      0.1442                 0.0820                 0.0104

                     13                     14                     15
                      A                      A                      A
 Frequencies --    271.2318               285.1556               295.7753
 Red. masses --      2.8142                 1.7321                 2.0710
 Frc consts  --      0.1220                 0.0830                 0.1067
 IR Inten    --      0.0618                 0.1675                 0.0437

                     16                     17                     18
                      A                      A                      A
 Frequencies --    303.9956               315.1024               326.5644
 Red. masses --      1.7969                 1.4463                 1.2313
 Frc consts  --      0.0978                 0.0846                 0.0774
 IR Inten    --      0.7160                 0.1154                 0.0777

                     19                     20                     21
                      A                      A                      A
 Frequencies --    340.5202               359.8167               369.9783
 Red. masses --      2.1649                 2.4105                 2.0167
 Frc consts  --      0.1479                 0.1839                 0.1626
 IR Inten    --      1.2786                 0.2536                 0.4884

                     22                     23                     24
                      A                      A                      A
 Frequencies --    379.8764               409.0016               437.5479
 Red. masses --      2.2425                 2.2972                 2.5065
 Frc consts  --      0.1907                 0.2264                 0.2827
 IR Inten    --      1.0669                 0.7036                 0.0492

                     25                     26                     27
                      A                      A                      A
 Frequencies --    455.7531               480.6189               522.5415
 Red. masses --      2.1801                 2.5399                 3.2389
 Frc consts  --      0.2668                 0.3457                 0.5211
 IR Inten    --      0.2053                 0.5436                 5.5680

                     28                     29                     30
                      A                      A                      A
 Frequencies --    543.7711               575.7295               638.1951
 Red. masses --      3.2223                 3.0197                 2.9058
 Frc consts  --      0.5614                 0.5897                 0.6973
 IR Inten    --      4.2257                 1.1836                 0.1913

                     31                     32                     33
                      A                      A                      A
 Frequencies --    671.3884               743.3522               762.6525
 Red. masses --      3.3581                 2.0220                 2.4201
 Frc consts  --      0.8918                 0.6583                 0.8293
 IR Inten    --      2.1131                 3.0694                 0.4611

                     34                     35                     36
                      A                      A                      A
 Frequencies --    791.4222               800.5046               826.7831
 Red. masses --      1.8006                 1.3705                 1.9353
 Frc consts  --      0.6645                 0.5174                 0.7795
 IR Inten    --      2.0714                 9.0483                 1.1527

                     37                     38                     39
                      A                      A                      A
 Frequencies --    840.4935               875.9579               916.6967
 Red. masses --      2.3059                 2.1253                 2.1885
 Frc consts  --      0.9597                 0.9608                 1.0836
 IR Inten    --      5.2913                 0.7566                 2.1900

                     40                     41                     42
                      A                      A                      A
 Frequencies --    927.2441               934.7311               946.8730
 Red. masses --      1.8839                 2.3037                 1.7998
 Frc consts  --      0.9543                 1.1859                 0.9507
 IR Inten    --      0.9385                 7.6281                 4.7930

                     43                     44                     45
                      A                      A                      A
 Frequencies --    951.1641               962.6466               971.6163
 Red. masses --      1.6969                 2.3294                 1.2190
 Frc consts  --      0.9045                 1.2718                 0.6780
 IR Inten    --      1.5940                 2.4301                 0.1146

                     46                     47                     48
                      A                      A                      A
 Frequencies --   1006.5475              1026.9790              1038.9879
 Red. masses --      1.8793                 1.8460                 1.4409
 Frc consts  --      1.1218                 1.1471                 0.9164
 IR Inten    --      0.6173                 0.3233                 1.1117

                     49                     50                     51
                      A                      A                      A
 Frequencies --   1043.9206              1058.8809              1066.7157
 Red. masses --      1.6291                 1.4920                 1.8138
 Frc consts  --      1.0460                 0.9857                 1.2160
 IR Inten    --      0.1459                 0.7142                 0.3172

                     52                     53                     54
                      A                      A                      A
 Frequencies --   1076.3589              1080.8006              1121.7115
 Red. masses --      1.9418                 1.8474                 1.3962
 Frc consts  --      1.3255                 1.2714                 1.0350
 IR Inten    --      2.0440                 6.7385                14.1894

                     55                     56                     57
                      A                      A                      A
 Frequencies --   1136.2841              1148.1629              1172.5280
 Red. masses --      2.7306                 2.0753                 2.0915
 Frc consts  --      2.0772                 1.6119                 1.6942
 IR Inten    --     13.4082                 4.8375                 0.7522

                     58                     59                     60
                      A                      A                      A
 Frequencies --   1187.4313              1198.8782              1234.2355
 Red. masses --      1.6406                 1.3829                 2.1751
 Frc consts  --      1.3629                 1.1711                 1.9522
 IR Inten    --      3.8728                 2.8666                 7.0100

                     61                     62                     63
                      A                      A                      A
 Frequencies --   1255.7565              1261.1468              1276.7868
 Red. masses --      2.1830                 1.8815                 1.9714
 Frc consts  --      2.0282                 1.7631                 1.8935
 IR Inten    --      4.0473                 8.3133                21.6283

                     64                     65                     66
                      A                      A                      A
 Frequencies --   1278.9901              1296.6509              1307.6115
 Red. masses --      1.3957                 1.3448                 1.5723
 Frc consts  --      1.3452                 1.3322                 1.5840
 IR Inten    --      1.6741                 0.9629                 1.3241

                     67                     68                     69
                      A                      A                      A
 Frequencies --   1322.4939              1349.6279              1354.6106
 Red. masses --      1.1874                 1.3996                 1.4020
 Frc consts  --      1.2235                 1.5021                 1.5158
 IR Inten    --      2.6368                 5.9544                 1.9647

                     70                     71                     72
                      A                      A                      A
 Frequencies --   1365.6310              1375.1556              1381.9424
 Red. masses --      1.3303                 1.4001                 1.4022
 Frc consts  --      1.4618                 1.5599                 1.5778
 IR Inten    --      7.9736                 1.6247                 1.7742

                     73                     74                     75
                      A                      A                      A
 Frequencies --   1392.9116              1402.4583              1408.8284
 Red. masses --      1.4083                 1.3593                 1.3218
 Frc consts  --      1.6099                 1.5752                 1.5457
 IR Inten    --      6.3837                 5.4649                 3.9038

                     76                     77                     78
                      A                      A                      A
 Frequencies --   1412.8385              1427.7914              1429.9093
 Red. masses --      1.4430                 1.2155                 1.2358
 Frc consts  --      1.6971                 1.4599                 1.4888
 IR Inten    --      0.3369                 5.6297                 1.8318

                     79                     80                     81
                      A                      A                      A
 Frequencies --   1433.5090              1440.8378              1448.0974
 Red. masses --      1.2595                 1.2405                 1.2636
 Frc consts  --      1.5249                 1.5173                 1.5612
 IR Inten    --      4.1349                 2.5853                12.8170

                     82                     83                     84
                      A                      A                      A
 Frequencies --   1465.1225              1500.5542              1513.4666
 Red. masses --      1.2267                 1.0911                 1.0686
 Frc consts  --      1.5515                 1.4475                 1.4421
 IR Inten    --     17.0914                 5.3049                 3.5584

                     85                     86                     87
                      A                      A                      A
 Frequencies --   1516.3620              1517.4851              1519.9601
 Red. masses --      1.0582                 1.0517                 1.0536
 Frc consts  --      1.4336                 1.4269                 1.4342
 IR Inten    --      0.5229                 0.6748                 1.0426

                     88                     89                     90
                      A                      A                      A
 Frequencies --   1524.1094              1524.6596              1530.1332
 Red. masses --      1.0583                 1.0573                 1.0680
 Frc consts  --      1.4484                 1.4481                 1.4732
 IR Inten    --      1.4995                 5.3647                 3.4567

                     91                     92                     93
                      A                      A                      A
 Frequencies --   1531.9533              1537.5213              1542.9123
 Red. masses --      1.0572                 1.0488                 1.0518
 Frc consts  --      1.4618                 1.4608                 1.4752
 IR Inten    --     11.6110                 5.2463                 1.3941

                     94                     95                     96
                      A                      A                      A
 Frequencies --   1545.1975              1546.9229              1549.9630
 Red. masses --      1.0532                 1.0600                 1.0690
 Frc consts  --      1.4816                 1.4945                 1.5131
 IR Inten    --      8.8973                 2.1449                 4.4952

                     97                     98                     99
                      A                      A                      A
 Frequencies --   1554.6684              1803.5180              3013.7067
 Red. masses --      1.0635                10.7536                 1.0818
 Frc consts  --      1.5145                20.6085                 5.7890
 IR Inten    --      5.0999               177.3662                 9.2744

                    100                    101                    102
                      A                      A                      A
 Frequencies --   3037.0785              3041.0104              3044.1783
 Red. masses --      1.0728                 1.0368                 1.0493
 Frc consts  --      5.8300                 5.6493                 5.7290
 IR Inten    --     10.0899                13.2779                14.6661

                    103                    104                    105
                      A                      A                      A
 Frequencies --   3046.1007              3047.3234              3048.2453
 Red. masses --      1.0497                 1.0505                 1.0546
 Frc consts  --      5.7386                 5.7475                 5.7737
 IR Inten    --     37.1162                52.0732                48.0173

                    106                    107                    108
                      A                      A                      A
 Frequencies --   3049.7626              3056.7054              3057.9011
 Red. masses --      1.0582                 1.0474                 1.0427
 Frc consts  --      5.7990                 5.7658                 5.7445
 IR Inten    --      8.9386                 5.0406                23.2557

                    109                    110                    111
                      A                      A                      A
 Frequencies --   3063.6585              3072.0954              3074.9046
 Red. masses --      1.0772                 1.0656                 1.0966
 Frc consts  --      5.9568                 5.9255                 6.1090
 IR Inten    --     16.1898                21.3593                33.1201

                    112                    113                    114
                      A                      A                      A
 Frequencies --   3077.8397              3088.3013              3092.2134
 Red. masses --      1.0940                 1.0941                 1.0875
 Frc consts  --      6.1061                 6.1484                 6.1267
 IR Inten    --     10.4780                20.6850                68.2698

                    115                    116                    117
                      A                      A                      A
 Frequencies --   3103.8668              3108.9571              3109.5155
 Red. masses --      1.1021                 1.1005                 1.1001
 Frc consts  --      6.2556                 6.2673                 6.2673
 IR Inten    --      7.0890                21.0929                34.2050

                    118                    119                    120
                      A                      A                      A
 Frequencies --   3111.3991              3114.5759              3116.3756
 Red. masses --      1.1015                 1.1012                 1.0997
 Frc consts  --      6.2829                 6.2936                 6.2928
 IR Inten    --     49.5866                58.9419                79.8730

                    121                    122                    123
                      A                      A                      A
 Frequencies --   3120.4641              3125.3186              3126.2535
 Red. masses --      1.0909                 1.0998                 1.1031
 Frc consts  --      6.2587                 6.3290                 6.3521
 IR Inten    --     18.2529                71.8622                 8.7849

                    124                    125                    126
                      A                      A                      A
 Frequencies --   3131.7243              3144.1663              3147.0086
 Red. masses --      1.0980                 1.1011                 1.0966
 Frc consts  --      6.3449                 6.4132                 6.3987
 IR Inten    --     13.8165                16.8909                32.2498

 - Thermochemistry -
 -------------------
 Temperature   298.150 Kelvin.  Pressure   1.00000 Atm.
 Atom     1 has atomic number  6 and mass  12.00000

 Molecular mass:   224.21402 amu.
 Principal axes and moments of inertia in atomic units:
                           1         2         3
     Eigenvalues --  2623.969504362.798735862.82523
           X            0.99967   0.02556  -0.00048
           Y           -0.02556   0.99964   0.00793
           Z            0.00069  -0.00791   0.99997
 This molecule is an asymmetric top.
 Rotational symmetry number  1.
 Warning -- assumption of classical behavior for rotation
           may cause significant error
 Rotational temperatures (Kelvin)      0.03301     0.01985     0.01477
 Rotational constants (GHZ):           0.68779     0.41367     0.30783
 Zero-point vibrational energy    1075552.2 (Joules/Mol)
                                  257.06313 (Kcal/Mol)
 Warning -- explicit consideration of  29 degrees of freedom as
           vibrations may cause significant error
 Vibrational temperatures:     65.21    80.32    96.59   137.89   157.44
          (Kelvin)            205.00   216.85   269.65   281.19   322.09
                              348.68   360.55   390.24   410.28   425.55
                              437.38   453.36   469.85   489.93   517.70
                              532.32   546.56   588.46   629.53   655.73
                              691.50   751.82   782.37   828.35   918.22
                              965.98  1069.52  1097.29  1138.68  1151.75
                             1189.56  1209.28  1260.31  1318.92  1334.10
                             1344.87  1362.34  1368.51  1385.03  1397.94
                             1448.20  1477.59  1494.87  1501.97  1523.49
                             1534.77  1548.64  1555.03  1613.89  1634.86
                             1651.95  1687.01  1708.45  1724.92  1775.79
                             1806.75  1814.51  1837.01  1840.18  1865.59
                             1881.36  1902.77  1941.81  1948.98  1964.84
                             1978.54  1988.31  2004.09  2017.82  2026.99
                             2032.76  2054.27  2057.32  2062.50  2073.04
                             2083.49  2107.98  2158.96  2177.54  2181.71
                             2183.32  2186.88  2192.85  2193.65  2201.52
                             2204.14  2212.15  2219.91  2223.19  2225.68
                             2230.05  2236.82  2594.86  4336.05  4369.68
                             4375.34  4379.89  4382.66  4384.42  4385.75
                             4387.93  4397.92  4399.64  4407.92  4420.06
                             4424.10  4428.32  4443.38  4449.01  4465.77
                             4473.10  4473.90  4476.61  4481.18  4483.77
                             4489.65  4496.64  4497.98  4505.85  4523.75
                             4527.84

 Zero-point correction=                           0.409656 (Hartree/Particle)
 Thermal correction to Energy=                    0.427701
 Thermal correction to Enthalpy=                  0.428645
 Thermal correction to Gibbs Free Energy=         0.365395
 Sum of electronic and zero-point Energies=           -663.365683
 Sum of electronic and thermal Energies=              -663.347638
 Sum of electronic and thermal Enthalpies=            -663.346694
 Sum of electronic and thermal Free Energies=         -663.409944

                     E (Thermal)             CV                S
                      KCal/Mol        Cal/Mol-Kelvin    Cal/Mol-Kelvin
 Total                  268.386             71.120            133.120
 Electronic               0.000              0.000              0.000
 Translational            0.889              2.981             42.125
 Rotational               0.889              2.981             32.573
 Vibrational            266.609             65.158             58.422
 Vibration     1          0.595              1.979              5.012
 Vibration     2          0.596              1.975              4.600
 Vibration     3          0.598              1.970              4.236
 Vibration     4          0.603              1.952              3.537
 Vibration     5          0.606              1.942              3.279
 Vibration     6          0.616              1.911              2.770
 Vibration     7          0.618              1.902              2.663
 Vibration     8          0.632              1.857              2.253
 Vibration     9          0.636              1.846              2.176
 Vibration    10          0.649              1.805              1.928
 Vibration    11          0.659              1.775              1.786
 Vibration    12          0.663              1.762              1.726
 Vibration    13          0.675              1.726              1.588
 Vibration    14          0.683              1.701              1.503
 Vibration    15          0.690              1.682              1.441
 Vibration    16          0.695              1.666              1.395
 Vibration    17          0.702              1.645              1.335
 Vibration    18          0.710              1.622              1.277
 Vibration    19          0.720              1.595              1.210
 Vibration    20          0.734              1.555              1.123
 Vibration    21          0.742              1.534              1.080
 Vibration    22          0.750              1.513              1.040
 Vibration    23          0.773              1.451              0.930
 Vibration    24          0.798              1.388              0.834
 Vibration    25          0.814              1.348              0.779
 Vibration    26          0.837              1.293              0.708
 Vibration    27          0.878              1.200              0.604
 Vibration    28          0.899              1.153              0.557
 Vibration    29          0.932              1.084              0.493

 Optimization completed.
    -- Stationary point found.
 Normal termination of Gaussian 16 at Thu Dec 10 21:59:10 2020.

 ----------------------------------------------------------------------
 # B3LYP/6-311++G(d,p) empiricaldispersion=gd3bj scf=xqc pop=npa geom=c
 heck
 ----------------------------------------------------------------------

 --------------------------------------
 CID_80090022_JID_6203_Energie_neutraal
 --------------------------------------
 Structure from the checkpoint file:  "JID_6203.chk"
 Charge =  0 Multiplicity = 1

 SCF Done:  E(RB3LYP) =  -663.959614633     A.U. after   14 cycles
 Normal termination of Gaussian 16 at Thu Dec 10 22:10:30 2020.

 ----------------------------------------------------------------------
 # B3LYP/6-311++G(d,p) empiricaldispersion=gd3bj scf=xqc pop=npa geom=c
 heck
 ----------------------------------------------------------------------

 ------------------------------------
 CID_80090022_JID_6203_Energie_kation
 ------------------------------------
 Structure from the checkpoint file:  "JID_6203.chk"
 Charge =  1 Multiplicity = 2

 SCF Done:  E(UB3LYP) =  -663.644598825     A.U. after   22 cycles
 Normal termination of Gaussian 16 at Thu Dec 10 22:35:24 2020.
 Gaussian 16:  ES64L-G16RevA.03 25-Dec-2016

 ----------------------------------------------------------------------
 # B3LYP/6-311++G(d,p) empiricaldispersion=gd3bj scf=xqc pop=npa geom=c
 heck
 ----------------------------------------------------------------------

 -----------------------------------
 CID_80090022_JID_6203_Energie_anion
 -----------------------------------
 Structure from the checkpoint file:  "JID_6203.chk"
 Charge = -1 Multiplicity = 2

                         Standard orientation:
 ---------------------------------------------------------------------
 Center     Atomic      Atomic             Coordinates (Angstroms)
 Number     Number       Type             X           Y           Z
 ---------------------------------------------------------------------
      1          6           0        2.236251    3.001537   -0.104315
      2          6           0        1.836293    1.782417    0.731343
      3          6           0        1.396478    0.563225   -0.103003
      4          6           0        2.511364    0.069394   -1.051833
      5          6           0        3.802208   -0.393939   -0.368419
      6          6           0        0.859474   -0.555587    0.838620
      7          6           0       -0.498456   -0.240296    1.520061
      8          6           0       -1.814650   -0.490338    0.730907
      9          6           0       -1.748499   -1.877802    0.057753
     10          6           0       -0.447916   -2.125822   -0.733601
     11          6           0        0.767213   -1.910575    0.146067
     12          8           0        1.603303   -2.781435    0.315260
     13          6           0       -2.416740    0.647930   -0.179802
     14          6           0       -3.952796    0.480746   -0.140896
     15          6           0       -2.084714    2.039937    0.383976
     16          6           0       -2.003543    0.604330   -1.663706
     17          1           0        3.134663    2.812474   -0.700710
     18          1           0        2.443337    3.863826    0.538911
     19          1           0        1.432778    3.286795   -0.795058
     20          1           0        2.668375    1.492718    1.385383
     21          1           0        1.019280    2.073945    1.401158
     22          1           0        0.570417    0.894488   -0.740476
     23          1           0        2.120351   -0.754401   -1.662285
     24          1           0        2.741889    0.873747   -1.760727
     25          1           0        3.613838   -1.237957    0.300670
     26          1           0        4.531313   -0.720886   -1.117888
     27          1           0        4.267239    0.411846    0.210463
     28          1           0        1.603061   -0.688694    1.632739
     29          1           0       -0.484285    0.772839    1.928407
     30          1           0       -0.555471   -0.901512    2.394896
     31          1           0       -2.563003   -0.581143    1.529417
     32          1           0       -2.612565   -2.039221   -0.596123
     33          1           0       -1.813868   -2.645171    0.840172
     34          1           0       -0.385126   -1.435175   -1.582062
     35          1           0       -0.411999   -3.146050   -1.125731
     36          1           0       -4.338971    0.623628    0.875151
     37          1           0       -4.440697    1.214998   -0.792102
     38          1           0       -4.259274   -0.515871   -0.478720
     39          1           0       -1.022578    2.282434    0.283027
     40          1           0       -2.650666    2.809152   -0.154262
     41          1           0       -2.349999    2.116480    1.445225
     42          1           0       -0.929783    0.737039   -1.814233
     43          1           0       -2.300511   -0.334652   -2.141647
     44          1           0       -2.505972    1.414869   -2.204581
 ---------------------------------------------------------------------

 SCF Done:  E(UB3LYP) =  -663.948056266     A.U. after   32 cycles

 The electronic state is 2-A.
 Alpha  occ. eigenvalues --  -19.00824 -10.15023 -10.08683 -10.08260 -10.08011
 Alpha  occ. eigenvalues --  -10.07791 -10.07504 -10.07340 -10.07336 -10.07325
 Alpha  occ. eigenvalues --  -10.07258 -10.06806 -10.06297 -10.05690 -10.05605
 Alpha  occ. eigenvalues --  -10.05535  -0.94025  -0.75139  -0.72641  -0.69569
 Alpha  occ. eigenvalues --   -0.65647  -0.65572  -0.62567  -0.58793  -0.58520
 Alpha  occ. eigenvalues --   -0.57682  -0.53325  -0.52530  -0.50151  -0.46298
 Alpha  occ. eigenvalues --   -0.44077  -0.41001  -0.39505  -0.37878  -0.37143
 Alpha  occ. eigenvalues --   -0.35964  -0.35485  -0.34705  -0.33809  -0.33156
 Alpha  occ. eigenvalues --   -0.32542  -0.31858  -0.31528  -0.31497  -0.29569
 Alpha  occ. eigenvalues --   -0.28766  -0.28592  -0.27845  -0.27281  -0.27122
 Alpha  occ. eigenvalues --   -0.26924  -0.26732  -0.25921  -0.25475  -0.24624
 Alpha  occ. eigenvalues --   -0.23956  -0.22863  -0.22515  -0.21836  -0.20879
 Alpha  occ. eigenvalues --   -0.20803  -0.20042  -0.14241   0.04231
 Alpha virt. eigenvalues --    0.06250   0.06832   0.07147   0.07608   0.08257
 Alpha virt. eigenvalues --    0.08478   0.08740   0.09354   0.09721   0.10731
 Alpha virt. eigenvalues --    0.10791   0.11068   0.11246   0.11631   0.12488

  Beta  occ. eigenvalues --  -19.00762 -10.14953 -10.08680 -10.08249 -10.08015
  Beta  occ. eigenvalues --  -10.07781 -10.07478 -10.07327 -10.07324 -10.07321
  Beta  occ. eigenvalues --  -10.07252 -10.06782 -10.06287 -10.05654 -10.05572
  Beta  occ. eigenvalues --  -10.05500  -0.93902  -0.75107  -0.72617  -0.69526
  Beta  occ. eigenvalues --   -0.65625  -0.65542  -0.62513  -0.58731  -0.58453
  Beta  occ. eigenvalues --   -0.57630  -0.53280  -0.52488  -0.50072  -0.46247
  Beta  occ. eigenvalues --   -0.44008  -0.40929  -0.39475  -0.37827  -0.37099
  Beta  occ. eigenvalues --   -0.35903  -0.35446  -0.34662  -0.33766  -0.33096
  Beta  occ. eigenvalues --   -0.32509  -0.31830  -0.31486  -0.31431  -0.29544
  Beta  occ. eigenvalues --   -0.28699  -0.28566  -0.27810  -0.27203  -0.27097
  Beta  occ. eigenvalues --   -0.26864  -0.26695  -0.25839  -0.25419  -0.24589
  Beta  occ. eigenvalues --   -0.23873  -0.22838  -0.22483  -0.21809  -0.20841
  Beta  occ. eigenvalues --   -0.20771  -0.20001  -0.14189
  Beta virt. eigenvalues --    0.06252   0.06895   0.07397   0.07613   0.08166
  Beta virt. eigenvalues --    0.08586   0.08954   0.09050   0.09776   0.10028
  Beta virt. eigenvalues --    0.11031   0.11079   0.11341   0.11548   0.11758

 Mulliken charges and spin densities:
               1          2
     1  C    0.436941  -1.114944
     2  C   -0.708726   0.482925
     3  C    0.478260  -0.231657
     4  C   -0.262616  -0.059986
     5  C   -0.281925  -0.352990
     6  C   -0.174625   0.756714
     7  C   -0.109029  -0.644224
     8  C    1.327072  -0.917186
     9  C    0.548182  -1.210679
    10  C   -0.210662   0.191914
    11  C   -0.977732   0.256174
    12  O   -0.220008   0.023718
    13  C   -1.835151   2.352662
    14  C    0.431152  -1.028876
    15  C    0.934913  -1.628425
    16  C    0.038420  -0.683379
    17  H   -0.016668   0.158008
    18  H   -0.077792   0.215497
    19  H   -0.235119   0.388604
    20  H   -0.044965   0.188812
    21  H   -0.051142   0.160813
    22  H    0.523772  -0.421981
    23  H    0.130467   0.052454
    24  H   -0.064187   0.233707
    25  H    0.130395   0.057171
    26  H    0.013449   0.122257
    27  H    0.133902  -0.005764
    28  H    0.306893  -0.049249
    29  H    0.097281   0.048105
    30  H   -0.106581   0.288564
    31  H   -0.027950   0.263508
    32  H   -0.046508   0.221867
    33  H    0.087690   0.069622
    34  H    0.094036   0.008071
    35  H   -0.022462   0.235590
    36  H   -0.215856   0.355824
    37  H   -0.119894   0.259479
    38  H   -0.253057   0.388638
    39  H    0.510526  -0.379826
    40  H   -0.141342   0.292094
    41  H   -0.348836   0.525570
    42  H   -0.379758   0.495826
    43  H   -0.222633   0.401897
    44  H   -0.068129   0.233084
 Sum of Mulliken charges =  -1.00000   1.00000

 Dipole moment (field-independent basis, Debye):
    X=              3.8029    Y=             -1.1070    Z=              0.7487  Tot=              4.0309
 Quadrupole moment (field-independent basis, Debye-Ang):
   XX=           -174.9919   YY=           -162.1241   ZZ=           -142.9503
   XY=              5.3235   XZ=              0.3849   YZ=              0.0712

 Summary of Natural Population Analysis:

                                       Natural Population
                Natural  -----------------------------------------------
    Atom  No    Charge         Core      Valence    Rydberg      Total
 -----------------------------------------------------------------------
      C    1   -0.28572      0.99966     2.28095    0.00510     3.28572
      C    2   -0.19063      0.99962     2.18221    0.00881     3.19063
      C    3   -0.10887      0.99956     2.09886    0.01045     3.10887
      C    4   -0.19186      0.99962     2.18359    0.00864     3.19186
      C    5   -0.29171      0.99966     2.28744    0.00462     3.29171
      C    6   -0.15126      0.99952     2.14036    0.01138     3.15126
      C    7   -0.18763      0.99959     2.17786    0.01018     3.18763
      C    8   -0.10578      0.99954     2.09325    0.01300     3.10578
      C    9   -0.18755      0.99960     2.17912    0.00883     3.18755
      C   10   -0.24186      0.99956     2.23277    0.00952     3.24186
      C   11    0.31672      0.99961     1.66148    0.02219     2.68328
      O   12   -0.28990      0.99987     3.28331    0.00672     4.28990
      C   13   -0.04576      0.99957     2.03273    0.01346     3.04576
      C   14   -0.28214      0.99962     2.27501    0.00750     3.28214
      C   15   -0.28578      0.99962     2.27839    0.00777     3.28578
      C   16   -0.28602      0.99962     2.27889    0.00751     3.28602
      H   17    0.09561      0.00000     0.40350    0.00089     0.40439
      H   18    0.09889      0.00000     0.40040    0.00071     0.40111
      H   19    0.09891      0.00000     0.39992    0.00118     0.40109
      H   20    0.09418      0.00000     0.40469    0.00113     0.40582
      H   21    0.09923      0.00000     0.39950    0.00127     0.40077
      H   22    0.09892      0.00000     0.39778    0.00330     0.40108
      H   23    0.09836      0.00000     0.40058    0.00107     0.40164
      H   24    0.09743      0.00000     0.40160    0.00097     0.40257
      H   25    0.10796      0.00000     0.39093    0.00111     0.39204
      H   26    0.09686      0.00000     0.40240    0.00074     0.40314
      H   27    0.09308      0.00000     0.40605    0.00087     0.40692
      H   28    0.10589      0.00000     0.39236    0.00176     0.39411
      H   29    0.10661      0.00000     0.39200    0.00139     0.39339
      H   30    0.09978      0.00000     0.39921    0.00101     0.40022
      H   31    0.10328      0.00000     0.39494    0.00178     0.39672
      H   32    0.10525      0.00000     0.39347    0.00128     0.39475
      H   33    0.09806      0.00000     0.40078    0.00116     0.40194
      H   34    0.11060      0.00000     0.38749    0.00191     0.38940
      H   35    0.10744      0.00000     0.39142    0.00113     0.39256
      H   36    0.09948      0.00000     0.39919    0.00132     0.40052
      H   37    0.09936      0.00000     0.39956    0.00108     0.40064
      H   38    0.10002      0.00000     0.39868    0.00130     0.39998
      H   39    0.09892      0.00000     0.39949    0.00159     0.40108
      H   40    0.10159      0.00000     0.39734    0.00107     0.39841
      H   41    0.10097      0.00000     0.39780    0.00123     0.39903
      H   42    0.09549      0.00000     0.40301    0.00149     0.40451
      H   43    0.10123      0.00000     0.39757    0.00120     0.39877
      H   44    0.10234      0.00000     0.39662    0.00104     0.39766
 =======================================================================
   * Total *   -0.00000     15.99385    46.81446    0.19169    63.00000

 Normal termination of Gaussian 16 at Thu Dec 10 23:12:22 2020.
