 Gaussian 16, Revision A.03,

 -----------------------------------------------------------
 # opt freq B3LYP/6-31G(d) empiricaldispersion=gd3bj scf=xqc
 -----------------------------------------------------------

 ------------------------------
 CID_81731685_JID_6877_neutraal
 ------------------------------
 Symbolic Z-matrix:
 Charge =  0 Multiplicity = 1

 SCF Done:  E(RB3LYP) =  -672.297725877     A.U. after   14 cycles
 SCF Done:  E(RB3LYP) =  -672.306294376     A.U. after   12 cycles
 SCF Done:  E(RB3LYP) =  -672.303063509     A.U. after   13 cycles
 SCF Done:  E(RB3LYP) =  -672.308059100     A.U. after   11 cycles
 SCF Done:  E(RB3LYP) =  -672.309583845     A.U. after   12 cycles
 SCF Done:  E(RB3LYP) =  -672.311283892     A.U. after   12 cycles
 SCF Done:  E(RB3LYP) =  -672.312248757     A.U. after   12 cycles
 SCF Done:  E(RB3LYP) =  -672.312460249     A.U. after   11 cycles
 SCF Done:  E(RB3LYP) =  -672.312854645     A.U. after   11 cycles
 SCF Done:  E(RB3LYP) =  -672.312967922     A.U. after   11 cycles
 SCF Done:  E(RB3LYP) =  -672.313127836     A.U. after    7 cycles
 SCF Done:  E(RB3LYP) =  -672.313127915     A.U. after    7 cycles
 SCF Done:  E(RB3LYP) =  -672.313128007     A.U. after    8 cycles
 SCF Done:  E(RB3LYP) =  -672.313128092     A.U. after    8 cycles
 SCF Done:  E(RB3LYP) =  -672.313128181     A.U. after    9 cycles
 Optimization completed.
    -- Stationary point found.
 Normal termination of Gaussian 16 at Sun Dec 13 12:44:21 2020.

 --------------------------------------------------------------------
 #N Geom=AllCheck Guess=TCheck SCRF=Check GenChk RB3LYP/6-31G(d) Freq
 --------------------------------------------------------------------

 Structure from the checkpoint file:  "JID_6877.chk"
 ------------------------------
 CID_81731685_JID_6877_neutraal
 ------------------------------
 Charge =  0 Multiplicity = 1

 SCF Done:  E(RB3LYP) =  -672.313128181     A.U. after    1 cycles

  Exact polarizability: 200.722   8.607 168.503   6.337   4.071 103.753
 Approx polarizability: 261.867  15.198 265.711  14.062   7.555 158.842

 ******    1 imaginary frequencies (negative Signs) ******

                      1                      2                      3
                      A                      A                      A
 Frequencies --     -8.3706                26.8105                59.9837
 Red. masses --      2.3903                 3.1888                 3.2043
 Frc consts  --      0.0001                 0.0014                 0.0068
 IR Inten    --      0.7765                 0.6124                 1.4934

                      4                      5                      6
                      A                      A                      A
 Frequencies --     77.2606               101.1027               133.1720
 Red. masses --      3.3676                 3.0870                 1.0409
 Frc consts  --      0.0118                 0.0186                 0.0109
 IR Inten    --      0.7175                 1.9070                 0.1106

                      7                      8                      9
                      A                      A                      A
 Frequencies --    144.2432               160.7797               165.3414
 Red. masses --      2.2330                 3.0824                 2.1616
 Frc consts  --      0.0274                 0.0469                 0.0348
 IR Inten    --      0.8999                 4.8675                 3.1001

                     10                     11                     12
                      A                      A                      A
 Frequencies --    209.6788               215.0779               243.4300
 Red. masses --      3.3508                 2.9610                 1.6308
 Frc consts  --      0.0868                 0.0807                 0.0569
 IR Inten    --      4.6316                 3.8050                 4.6816

                     13                     14                     15
                      A                      A                      A
 Frequencies --    263.7775               303.6389               313.9522
 Red. masses --      3.4105                 1.8413                 2.0610
 Frc consts  --      0.1398                 0.1000                 0.1197
 IR Inten    --      1.1033                21.2091                 7.2424

                     16                     17                     18
                      A                      A                      A
 Frequencies --    363.2696               366.4718               395.5075
 Red. masses --      3.0171                 2.8450                 2.2252
 Frc consts  --      0.2346                 0.2251                 0.2051
 IR Inten    --      5.3443                 0.3933                 2.5810

                     19                     20                     21
                      A                      A                      A
 Frequencies --    420.5954               444.6606               507.7133
 Red. masses --      2.2984                 2.2887                 4.2707
 Frc consts  --      0.2396                 0.2666                 0.6486
 IR Inten    --      1.3472                 5.7635                 1.0493

                     22                     23                     24
                      A                      A                      A
 Frequencies --    532.2302               580.0425               592.5340
 Red. masses --      4.1066                 4.1395                 3.6350
 Frc consts  --      0.6854                 0.8206                 0.7519
 IR Inten    --      2.3021                 4.4940                 1.8844

                     25                     26                     27
                      A                      A                      A
 Frequencies --    618.3408               647.6035               681.8169
 Red. masses --      4.2125                 2.1987                 4.0494
 Frc consts  --      0.9490                 0.5433                 1.1091
 IR Inten    --      6.0655                 4.6619                 7.8322

                     28                     29                     30
                      A                      A                      A
 Frequencies --    769.7194               791.1635               805.4784
 Red. masses --      1.5646                 7.3096                 1.3033
 Frc consts  --      0.5462                 2.6957                 0.4982
 IR Inten    --      1.8255                 1.8151                 2.0957

                     31                     32                     33
                      A                      A                      A
 Frequencies --    816.4476               837.4876               858.7160
 Red. masses --      1.2296                 2.3996                 2.4232
 Frc consts  --      0.4829                 0.9916                 1.0528
 IR Inten    --     15.6422                50.3071                24.3991

                     34                     35                     36
                      A                      A                      A
 Frequencies --    886.1620               893.2112               916.9188
 Red. masses --      1.9026                 2.0574                 1.8056
 Frc consts  --      0.8803                 0.9671                 0.8944
 IR Inten    --     29.9167                19.0115                 8.8380

                     37                     38                     39
                      A                      A                      A
 Frequencies --    942.6296               965.1543               972.1538
 Red. masses --      2.2600                 1.3689                 1.7031
 Frc consts  --      1.1832                 0.7513                 0.9483
 IR Inten    --      1.6048                 0.6268                13.0362

                     40                     41                     42
                      A                      A                      A
 Frequencies --    983.5678              1010.7353              1021.0012
 Red. masses --      1.7246                 2.2117                 1.5669
 Frc consts  --      0.9830                 1.3312                 0.9624
 IR Inten    --      1.7161                29.2800                24.6025

                     43                     44                     45
                      A                      A                      A
 Frequencies --   1039.4773              1069.1647              1072.3286
 Red. masses --      2.8451                 1.5347                 2.1100
 Frc consts  --      1.8113                 1.0336                 1.4295
 IR Inten    --     15.3084                 8.0242                 0.0771

                     46                     47                     48
                      A                      A                      A
 Frequencies --   1096.6412              1119.9975              1127.5618
 Red. masses --      1.8518                 2.5967                 2.3156
 Frc consts  --      1.3121                 1.9191                 1.7346
 IR Inten    --     40.7451                 4.9322                 6.2233

                     49                     50                     51
                      A                      A                      A
 Frequencies --   1144.6697              1170.8318              1183.9863
 Red. masses --      1.7688                 1.2811                 1.4098
 Frc consts  --      1.3655                 1.0347                 1.1644
 IR Inten    --      6.9816                27.3834                25.6333

                     52                     53                     54
                      A                      A                      A
 Frequencies --   1206.0948              1213.8822              1217.5533
 Red. masses --      2.2809                 1.3353                 2.0721
 Frc consts  --      1.9549                 1.1592                 1.8098
 IR Inten    --      4.8358                 0.9649                 0.1347

                     55                     56                     57
                      A                      A                      A
 Frequencies --   1246.1410              1255.8520              1268.7727
 Red. masses --      2.5121                 1.6440                 1.3003
 Frc consts  --      2.2984                 1.5277                 1.2332
 IR Inten    --     16.6764                34.4284                 4.3343

                     58                     59                     60
                      A                      A                      A
 Frequencies --   1278.6447              1289.1542              1298.4404
 Red. masses --      1.2167                 1.8229                 1.8646
 Frc consts  --      1.1720                 1.7849                 1.8522
 IR Inten    --      1.2872                 1.3099                 5.2028

                     61                     62                     63
                      A                      A                      A
 Frequencies --   1301.0701              1304.7531              1325.5420
 Red. masses --      1.5396                 1.3437                 1.4746
 Frc consts  --      1.5356                 1.3477                 1.5265
 IR Inten    --      2.5426                 5.8524                29.1698

                     64                     65                     66
                      A                      A                      A
 Frequencies --   1340.0626              1388.3249              1408.6527
 Red. masses --      2.2907                 1.3559                 1.8994
 Frc consts  --      2.4237                 1.5398                 2.2206
 IR Inten    --     16.3248                41.8367                16.9603

                     67                     68                     69
                      A                      A                      A
 Frequencies --   1435.0383              1442.9888              1444.0836
 Red. masses --      1.3829                 1.6240                 1.2412
 Frc consts  --      1.6779                 1.9923                 1.5251
 IR Inten    --     10.5936                19.5239                 1.8090

                     70                     71                     72
                      A                      A                      A
 Frequencies --   1477.4219              1494.9258              1504.0363
 Red. masses --      1.9682                 1.2033                 1.5971
 Frc consts  --      2.5312                 1.5844                 2.1286
 IR Inten    --    208.4688                14.0216                31.4017

                     73                     74                     75
                      A                      A                      A
 Frequencies --   1512.2366              1518.7682              1519.1953
 Red. masses --      1.0897                 1.1270                 1.2304
 Frc consts  --      1.4683                 1.5317                 1.6732
 IR Inten    --      1.4743                 0.2054                12.5055

                     76                     77                     78
                      A                      A                      A
 Frequencies --   1522.3642              1527.0814              1545.6846
 Red. masses --      1.0799                 1.2699                 1.1348
 Frc consts  --      1.4746                 1.7448                 1.5974
 IR Inten    --     10.6918                25.2211                 5.3792

                     79                     80                     81
                      A                      A                      A
 Frequencies --   1550.1662              1564.0763              1575.0945
 Red. masses --      1.2400                 1.1070                 1.0932
 Frc consts  --      1.7556                 1.5955                 1.5980
 IR Inten    --     43.9003                13.8593                18.0344

                     82                     83                     84
                      A                      A                      A
 Frequencies --   1620.1294              1638.3428              1684.6566
 Red. masses --      5.9486                 5.8039                 1.0920
 Frc consts  --      9.1994                 9.1786                 1.8260
 IR Inten    --     56.9952               216.2010                25.5475

                     85                     86                     87
                      A                      A                      A
 Frequencies --   2996.0529              2998.2271              3012.9321
 Red. masses --      1.0726                 1.0727                 1.0405
 Frc consts  --      5.6726                 5.6814                 5.5649
 IR Inten    --     56.0350                77.0656                91.7149

                     88                     89                     90
                      A                      A                      A
 Frequencies --   3047.0093              3047.7018              3055.0474
 Red. masses --      1.0891                 1.0438                 1.0639
 Frc consts  --      5.9573                 5.7126                 5.8504
 IR Inten    --     46.7036                31.4644                32.2738

                     91                     92                     93
                      A                      A                      A
 Frequencies --   3059.8181              3064.0410              3080.1431
 Red. masses --      1.0895                 1.0603                 1.0649
 Frc consts  --      6.0102                 5.8650                 5.9527
 IR Inten    --     45.9768                55.0706                34.7199

                     94                     95                     96
                      A                      A                      A
 Frequencies --   3095.5671              3102.3489              3105.7109
 Red. masses --      1.0885                 1.1059                 1.0938
 Frc consts  --      6.1453                 6.2713                 6.2159
 IR Inten    --     21.3097                29.6409                20.5234

                     97                     98                     99
                      A                      A                      A
 Frequencies --   3116.1048              3135.5441              3144.1212
 Red. masses --      1.1082                 1.1020                 1.0915
 Frc consts  --      6.3401                 6.3836                 6.3571
 IR Inten    --     51.1669                17.9567                 4.4125

                    100                    101                    102
                      A                      A                      A
 Frequencies --   3150.4560              3155.7099              3158.3156
 Red. masses --      1.1010                 1.1000                 1.0890
 Frc consts  --      6.4386                 6.4540                 6.4000
 IR Inten    --     34.6762                23.9317                27.2535

                    103                    104                    105
                      A                      A                      A
 Frequencies --   3203.3961              3465.6611              3558.3152
 Red. masses --      1.0936                 1.0496                 1.0929
 Frc consts  --      6.6121                 7.4275                 8.1527
 IR Inten    --     23.7731                 3.2893                 0.6587

 - Thermochemistry -
 -------------------
 Temperature   298.150 Kelvin.  Pressure   1.00000 Atm.
 Atom     1 has atomic number  6 and mass  12.00000

 Molecular mass:   219.17355 amu.
 Principal axes and moments of inertia in atomic units:
                           1         2         3
     Eigenvalues --  1827.146715741.408877007.82353
           X            0.99999  -0.00492   0.00027
           Y            0.00492   0.99998   0.00299
           Z           -0.00028  -0.00299   1.00000
 This molecule is an asymmetric top.
 Rotational symmetry number  1.
 Warning -- assumption of classical behavior for rotation
           may cause significant error
 Rotational temperatures (Kelvin)      0.04740     0.01509     0.01236
 Rotational constants (GHZ):           0.98774     0.31434     0.25753
    1 imaginary frequencies ignored.
 Zero-point vibrational energy     865711.7 (Joules/Mol)
                                  206.91006 (Kcal/Mol)
 Warning -- explicit consideration of  24 degrees of freedom as
           vibrations may cause significant error
 Vibrational temperatures:     38.57    86.30   111.16   145.46   191.60
          (Kelvin)            207.53   231.33   237.89   301.68   309.45
                              350.24   379.52   436.87   451.71   522.66
                              527.27   569.05   605.14   639.77   730.49
                              765.76   834.55   852.52   889.65   931.76
                              980.98  1107.45  1138.31  1158.90  1174.69
                             1204.96  1235.50  1274.99  1285.13  1319.24
                             1356.23  1388.64  1398.71  1415.13  1454.22
                             1468.99  1495.58  1538.29  1542.84  1577.82
                             1611.43  1622.31  1646.92  1684.57  1703.49
                             1735.30  1746.51  1751.79  1792.92  1806.89
                             1825.48  1839.68  1854.81  1868.17  1871.95
                             1877.25  1907.16  1928.05  1997.49  2026.74
                             2064.70  2076.14  2077.71  2125.68  2150.86
                             2163.97  2175.77  2185.17  2185.78  2190.34
                             2197.13  2223.90  2230.34  2250.36  2266.21
                             2331.00  2357.21  2423.85  4310.65  4313.78
                             4334.94  4383.97  4384.96  4395.53  4402.40
                             4408.47  4431.64  4453.83  4463.59  4468.43
                             4483.38  4511.35  4523.69  4532.80  4540.36
                             4544.11  4608.97  4986.31  5119.62

 Zero-point correction=                           0.329732 (Hartree/Particle)
 Thermal correction to Energy=                    0.345258
 Thermal correction to Enthalpy=                  0.346203
 Thermal correction to Gibbs Free Energy=         0.286783
 Sum of electronic and zero-point Energies=           -671.983396
 Sum of electronic and thermal Energies=              -671.967870
 Sum of electronic and thermal Enthalpies=            -671.966926
 Sum of electronic and thermal Free Energies=         -672.026345

                     E (Thermal)             CV                S
                      KCal/Mol        Cal/Mol-Kelvin    Cal/Mol-Kelvin
 Total                  216.653             60.281            125.059
 Electronic               0.000              0.000              0.000
 Translational            0.889              2.981             42.057
 Rotational               0.889              2.981             32.664
 Vibrational            214.875             54.319             50.338
 Vibration     1          0.593              1.984              6.052
 Vibration     2          0.597              1.973              4.458
 Vibration     3          0.599              1.964              3.959
 Vibration     4          0.604              1.948              3.433
 Vibration     5          0.613              1.920              2.900
 Vibration     6          0.616              1.909              2.747
 Vibration     7          0.622              1.890              2.541
 Vibration     8          0.624              1.885              2.488
 Vibration     9          0.642              1.826              2.046
 Vibration    10          0.645              1.818              2.000
 Vibration    11          0.659              1.774              1.778
 Vibration    12          0.670              1.739              1.637
 Vibration    13          0.695              1.667              1.397
 Vibration    14          0.702              1.647              1.341
 Vibration    15          0.737              1.548              1.108
 Vibration    16          0.739              1.541              1.095
 Vibration    17          0.762              1.480              0.979
 Vibration    18          0.783              1.425              0.890
 Vibration    19          0.804              1.373              0.812
 Vibration    20          0.863              1.233              0.639
 Vibration    21          0.887              1.179              0.582
 Vibration    22          0.937              1.074              0.485
 Vibration    23          0.950              1.048              0.463
 Vibration    24          0.978              0.993              0.419

                           ! Non-Optimized Parameters !
 Normal termination of Gaussian 16 at Sun Dec 13 12:57:36 2020.

 ----------------------------------------------------------------------
 # B3LYP/6-311++G(d,p) empiricaldispersion=gd3bj scf=xqc pop=npa geom=c
 heck
 ----------------------------------------------------------------------

 --------------------------------------
 CID_81731685_JID_6877_Energie_neutraal
 --------------------------------------
 Structure from the checkpoint file:  "JID_6877.chk"
 Charge =  0 Multiplicity = 1

 SCF Done:  E(RB3LYP) =  -672.496341050     A.U. after   14 cycles
 Normal termination of Gaussian 16 at Sun Dec 13 13:04:13 2020.

 ----------------------------------------------------------------------
 # B3LYP/6-311++G(d,p) empiricaldispersion=gd3bj scf=xqc pop=npa geom=c
 heck
 ----------------------------------------------------------------------

 ------------------------------------
 CID_81731685_JID_6877_Energie_kation
 ------------------------------------
 Structure from the checkpoint file:  "JID_6877.chk"
 Charge =  1 Multiplicity = 2

 SCF Done:  E(UB3LYP) =  -672.238947195     A.U. after   19 cycles
 Normal termination of Gaussian 16 at Sun Dec 13 13:17:02 2020.
 Gaussian 16:  ES64L-G16RevA.03 25-Dec-2016

 ----------------------------------------------------------------------
 # B3LYP/6-311++G(d,p) empiricaldispersion=gd3bj scf=xqc pop=npa geom=c
 heck
 ----------------------------------------------------------------------

 -----------------------------------
 CID_81731685_JID_6877_Energie_anion
 -----------------------------------
 Structure from the checkpoint file:  "JID_6877.chk"
 Charge = -1 Multiplicity = 2

                         Standard orientation:
 ---------------------------------------------------------------------
 Center     Atomic      Atomic             Coordinates (Angstroms)
 Number     Number       Type             X           Y           Z
 ---------------------------------------------------------------------
      1          6           0        4.204673    0.865637    0.103300
      2          6           0        2.699849    0.996782    0.025598
      3          6           0        1.873045   -0.115876   -0.188940
      4          6           0        0.463906    0.105072   -0.272052
      5          7           0       -0.051656    1.350172   -0.278651
      6          6           0        0.762852    2.390618   -0.111967
      7          6           0        2.129562    2.273505    0.092318
      8          7           0       -0.447720   -0.928037   -0.439521
      9          6           0       -0.361337   -2.183843    0.293433
     10          6           0       -1.759965   -0.645091   -1.023444
     11          6           0       -2.926455   -0.546290   -0.042990
     12          6           0       -2.955626    0.585427    1.019348
     13          6           0       -4.474799    0.743847    0.749800
     14          6           0       -4.272560   -0.000027   -0.596557
     15          6           0        2.510092   -1.464731   -0.435218
     16          7           0        2.759505   -2.204636    0.818954
     17          1           0        4.526097    0.019191    0.718069
     18          1           0        4.638611    0.718557   -0.894284
     19          1           0        4.648380    1.773092    0.522249
     20          1           0        0.287748    3.370881   -0.130284
     21          1           0        2.745985    3.151679    0.257561
     22          1           0       -1.155948   -2.242239    1.049949
     23          1           0       -0.486866   -3.037796   -0.387440
     24          1           0        0.595703   -2.280738    0.806434
     25          1           0       -1.678382    0.289110   -1.580077
     26          1           0       -1.977019   -1.450174   -1.743830
     27          1           0       -3.105125   -1.515411    0.438407
     28          1           0       -2.638194    0.331591    2.036014
     29          1           0       -2.376766    1.445552    0.676905
     30          1           0       -4.881962    1.759180    0.710960
     31          1           0       -5.078656    0.154026    1.448066
     32          1           0       -4.102680    0.702147   -1.421534
     33          1           0       -5.033039   -0.724439   -0.906170
     34          1           0        1.844179   -2.072149   -1.055968
     35          1           0        3.427739   -1.310873   -1.023646
     36          1           0        3.342604   -3.019099    0.630183
     37          1           0        3.277261   -1.614776    1.467188
 ---------------------------------------------------------------------

 SCF Done:  E(UB3LYP) =  -672.484746836     A.U. after   33 cycles
 SCF Done:  E(UB3LYP) =  -672.484746836     a.u. after    1 cycles

 The electronic state is 2-A.
 Alpha  occ. eigenvalues --  -14.22000 -14.18717 -14.18238 -10.13448 -10.09477
 Alpha  occ. eigenvalues --  -10.09210 -10.08677 -10.08176 -10.08095 -10.07782
 Alpha  occ. eigenvalues --  -10.07762 -10.07692 -10.06827 -10.06449 -10.06343
 Alpha  occ. eigenvalues --  -10.05926  -0.86251  -0.80276  -0.77452  -0.75233
 Alpha  occ. eigenvalues --   -0.70768  -0.65769  -0.62686  -0.60427  -0.58673
 Alpha  occ. eigenvalues --   -0.56500  -0.55140  -0.52852  -0.48918  -0.46921
 Alpha  occ. eigenvalues --   -0.45159  -0.41003  -0.40785  -0.38912  -0.38212
 Alpha  occ. eigenvalues --   -0.37950  -0.36067  -0.34753  -0.33898  -0.33024
 Alpha  occ. eigenvalues --   -0.31720  -0.31335  -0.30463  -0.29699  -0.29478
 Alpha  occ. eigenvalues --   -0.28388  -0.28115  -0.27765  -0.26618  -0.26150
 Alpha  occ. eigenvalues --   -0.25271  -0.23982  -0.23140  -0.21595  -0.21010
 Alpha  occ. eigenvalues --   -0.17961  -0.16070  -0.15025  -0.13633  -0.09710
 Alpha  occ. eigenvalues --    0.04475
 Alpha virt. eigenvalues --    0.05963   0.07098   0.07514   0.07855   0.08089
 Alpha virt. eigenvalues --    0.08284   0.09200   0.09701   0.10005   0.10072
 Alpha virt. eigenvalues --    0.10622   0.11010   0.11222   0.12005   0.12410

  Beta  occ. eigenvalues --  -14.22000 -14.18683 -14.18163 -10.13451 -10.09472
  Beta  occ. eigenvalues --  -10.09135 -10.08660 -10.08096 -10.08077 -10.07775
  Beta  occ. eigenvalues --  -10.07755 -10.07686 -10.06799 -10.06447 -10.06304
  Beta  occ. eigenvalues --  -10.05946  -0.86214  -0.80222  -0.77329  -0.75221
  Beta  occ. eigenvalues --   -0.70639  -0.65700  -0.62655  -0.60336  -0.58629
  Beta  occ. eigenvalues --   -0.56485  -0.55058  -0.52808  -0.48838  -0.46858
  Beta  occ. eigenvalues --   -0.45132  -0.40961  -0.40731  -0.38875  -0.38140
  Beta  occ. eigenvalues --   -0.37926  -0.36008  -0.34703  -0.33826  -0.32994
  Beta  occ. eigenvalues --   -0.31620  -0.31273  -0.30418  -0.29641  -0.29461
  Beta  occ. eigenvalues --   -0.28335  -0.28044  -0.27641  -0.26571  -0.26118
  Beta  occ. eigenvalues --   -0.25248  -0.23935  -0.23117  -0.21580  -0.20997
  Beta  occ. eigenvalues --   -0.17835  -0.15770  -0.14951  -0.13564  -0.09630
  Beta virt. eigenvalues --    0.06115   0.07156   0.07344   0.07784   0.08104
  Beta virt. eigenvalues --    0.08445   0.08633   0.09625   0.10053   0.10159
  Beta virt. eigenvalues --    0.10317   0.10755   0.11138   0.11361   0.12302

 Mulliken charges and spin densities:
               1          2
     1  C    2.229767  -2.541777
     2  C   -0.898335   1.651845
     3  C    0.464415   0.495865
     4  C   -1.167772   0.178590
     5  N   -0.010917   0.031380
     6  C    0.107893  -0.125053
     7  C   -0.395842  -0.454302
     8  N    0.381861   0.020510
     9  C    0.199526  -0.475667
    10  C   -0.731392  -0.044274
    11  C    0.474524   0.238635
    12  C   -0.190594  -0.265719
    13  C   -0.225114  -0.024346
    14  C   -0.224886  -0.358926
    15  C   -0.375971  -1.104524
    16  N   -0.256379   0.025937
    17  H   -0.576175   0.736278
    18  H    0.131084   0.047539
    19  H   -0.364877   0.515203
    20  H    0.082383   0.056927
    21  H    0.006605   0.118904
    22  H    0.007591   0.136575
    23  H   -0.175721   0.307360
    24  H    0.331035  -0.092124
    25  H    0.133958   0.057785
    26  H    0.051090   0.091463
    27  H    0.121176   0.037188
    28  H    0.045496   0.089605
    29  H    0.275439  -0.103194
    30  H    0.038648   0.096178
    31  H    0.012408   0.108920
    32  H    0.124320  -0.012844
    33  H   -0.084130   0.219041
    34  H    0.072619   0.142185
    35  H   -0.323062   0.459103
    36  H   -0.392841   0.629711
    37  H    0.102170   0.110023
 Sum of Mulliken charges =  -1.00000   1.00000

 Dipole moment (field-independent basis, Debye):
    X=             -7.5735    Y=              4.2993    Z=             -1.9402  Tot=              8.9222
 Quadrupole moment (field-independent basis, Debye-Ang):
   XX=           -193.3364   YY=           -144.0528   ZZ=           -124.2632
   XY=             12.8011   XZ=             -6.9561   YZ=              1.2307

 Summary of Natural Population Analysis:

                                       Natural Population
                Natural  -----------------------------------------------
    Atom  No    Charge         Core      Valence    Rydberg      Total
 -----------------------------------------------------------------------
      C    1   -0.29929      0.99963     2.29338    0.00628     3.29929
      C    2    0.02387      0.99948     1.96715    0.00950     2.97613
      C    3   -0.05284      0.99943     2.04285    0.01056     3.05284
      C    4    0.22016      0.99947     1.76650    0.01388     2.77984
      N    5   -0.26780      0.99967     2.75777    0.01037     3.76780
      C    6    0.04690      0.99959     1.93985    0.01366     2.95310
      C    7   -0.15142      0.99950     2.14225    0.00967     3.15142
      N    8   -0.25628      0.99965     2.74636    0.01026     3.75628
      C    9   -0.18597      0.99962     2.17810    0.00825     3.18597
      C   10   -0.08210      0.99958     2.07032    0.01219     3.08210
      C   11   -0.11521      0.99960     2.10475    0.01087     3.11521
      C   12   -0.19119      0.99962     2.18394    0.00763     3.19119
      C   13   -0.18993      0.99965     2.18321    0.00706     3.18993
      C   14   -0.18692      0.99963     2.17894    0.00834     3.18692
      C   15   -0.10171      0.99960     2.08999    0.01212     3.10171
      N   16   -0.42492      0.99977     2.91415    0.01100     3.92492
      H   17    0.10894      0.00000     0.38816    0.00290     0.39106
      H   18    0.10577      0.00000     0.39324    0.00099     0.39423
      H   19    0.10273      0.00000     0.39613    0.00114     0.39727
      H   20    0.08313      0.00000     0.41586    0.00101     0.41687
      H   21    0.09921      0.00000     0.39992    0.00087     0.40079
      H   22    0.08558      0.00000     0.41320    0.00122     0.41442
      H   23    0.08811      0.00000     0.41082    0.00107     0.41189
      H   24    0.12418      0.00000     0.37373    0.00209     0.37582
      H   25    0.10841      0.00000     0.39023    0.00135     0.39159
      H   26    0.08992      0.00000     0.40911    0.00097     0.41008
      H   27    0.09482      0.00000     0.40390    0.00129     0.40518
      H   28    0.09536      0.00000     0.40374    0.00091     0.40464
      H   29    0.11142      0.00000     0.38713    0.00145     0.38858
      H   30    0.09174      0.00000     0.40715    0.00111     0.40826
      H   31    0.09258      0.00000     0.40595    0.00147     0.40742
      H   32    0.09333      0.00000     0.40556    0.00111     0.40667
      H   33    0.09432      0.00000     0.40463    0.00104     0.40568
      H   34    0.09682      0.00000     0.40130    0.00188     0.40318
      H   35    0.08939      0.00000     0.40854    0.00207     0.41061
      H   36    0.18170      0.00000     0.31036    0.00794     0.31830
      H   37    0.17718      0.00000     0.31991    0.00291     0.32282
 =======================================================================
   * Total *    0.00000     15.99350    43.80804    0.19846    60.00000

 Normal termination of Gaussian 16 at Sun Dec 13 13:39:21 2020.
