 Gaussian 16, Revision A.03,

 -----------------------------------------------------------
 # opt freq B3LYP/6-31G(d) empiricaldispersion=gd3bj scf=xqc
 -----------------------------------------------------------

 -------------------------------
 CID_116092771_JID_5845_neutraal
 -------------------------------
 Symbolic Z-matrix:
 Charge =  0 Multiplicity = 1

 SCF Done:  E(RB3LYP) =  -1411.58635222     A.U. after   15 cycles
 SCF Done:  E(RB3LYP) =  -1411.59170061     A.U. after   12 cycles
 SCF Done:  E(RB3LYP) =  -1411.59221477     A.U. after   12 cycles
 SCF Done:  E(RB3LYP) =  -1411.59249775     A.U. after   13 cycles
 SCF Done:  E(RB3LYP) =  -1411.59319971     A.U. after   12 cycles
 SCF Done:  E(RB3LYP) =  -1411.59477936     A.U. after   15 cycles
 SCF Done:  E(RB3LYP) =  -1411.59588479     A.U. after   12 cycles
 SCF Done:  E(RB3LYP) =  -1411.59671638     A.U. after   12 cycles
 SCF Done:  E(RB3LYP) =  -1411.59639238     A.U. after   13 cycles
 SCF Done:  E(RB3LYP) =  -1411.59715312     A.U. after   12 cycles
 SCF Done:  E(RB3LYP) =  -1411.59814537     A.U. after    8 cycles
 SCF Done:  E(RB3LYP) =  -1411.59814544     A.U. after    7 cycles
 SCF Done:  E(RB3LYP) =  -1411.59814557     A.U. after    7 cycles
 SCF Done:  E(RB3LYP) =  -1411.59814564     A.U. after    7 cycles
 SCF Done:  E(RB3LYP) =  -1411.59814568     A.U. after    7 cycles
 SCF Done:  E(RB3LYP) =  -1411.59814569     A.U. after    7 cycles
 Optimization completed.
    -- Stationary point found.
 Normal termination of Gaussian 16 at Thu Dec 10 17:32:59 2020.

 --------------------------------------------------------------------
 #N Geom=AllCheck Guess=TCheck SCRF=Check GenChk RB3LYP/6-31G(d) Freq
 --------------------------------------------------------------------

 Structure from the checkpoint file:  "JID_5845.chk"
 -------------------------------
 CID_116092771_JID_5845_neutraal
 -------------------------------
 Charge =  0 Multiplicity = 1

 SCF Done:  E(RB3LYP) =  -1411.59814569     A.U. after    1 cycles

  Exact polarizability: 178.680  -3.483 177.929  -0.188   0.455  88.211
 Approx polarizability: 263.581  10.450 275.014  -3.986   1.150 140.401

                      1                      2                      3
                      A                      A                      A
 Frequencies --     23.6517                31.9478                54.6022
 Red. masses --      4.2326                 5.7205                 3.3944
 Frc consts  --      0.0014                 0.0034                 0.0060
 IR Inten    --      0.8548                 0.7164                 1.8066

                      4                      5                      6
                      A                      A                      A
 Frequencies --     71.5134                74.6059                83.2953
 Red. masses --      4.0791                 1.1769                 2.8160
 Frc consts  --      0.0123                 0.0039                 0.0115
 IR Inten    --      1.0283                 0.4243                 0.8253

                      7                      8                      9
                      A                      A                      A
 Frequencies --    105.9411               112.5131               124.2180
 Red. masses --      4.6715                 4.6349                 1.4754
 Frc consts  --      0.0309                 0.0346                 0.0134
 IR Inten    --      0.1831                 1.4774                 2.8942

                     10                     11                     12
                      A                      A                      A
 Frequencies --    143.7754               170.6356               221.8720
 Red. masses --      3.3882                 5.9138                 3.3788
 Frc consts  --      0.0413                 0.1015                 0.0980
 IR Inten    --      3.2391                 3.7112                 0.9145

                     13                     14                     15
                      A                      A                      A
 Frequencies --    247.7753               269.5053               288.1338
 Red. masses --      3.3834                 3.4855                 2.4301
 Frc consts  --      0.1224                 0.1492                 0.1189
 IR Inten    --      1.9862                 3.1169                 2.3478

                     16                     17                     18
                      A                      A                      A
 Frequencies --    332.9101               338.8461               355.1625
 Red. masses --      4.2180                 4.4527                 4.0959
 Frc consts  --      0.2754                 0.3012                 0.3044
 IR Inten    --      1.2028                 3.4021                 1.6483

                     19                     20                     21
                      A                      A                      A
 Frequencies --    386.5620               463.2032               499.6750
 Red. masses --      6.9645                 2.7617                 5.9285
 Frc consts  --      0.6132                 0.3491                 0.8721
 IR Inten    --      2.1814                 0.8737                 4.8362

                     22                     23                     24
                      A                      A                      A
 Frequencies --    506.6075               587.6895               607.0762
 Red. masses --      5.1705                 1.3989                 5.1883
 Frc consts  --      0.7819                 0.2847                 1.1266
 IR Inten    --      6.3223                48.8532                29.3663

                     25                     26                     27
                      A                      A                      A
 Frequencies --    611.8859               665.7685               699.5227
 Red. masses --      3.0399                 4.1530                 4.6848
 Frc consts  --      0.6706                 1.0846                 1.3507
 IR Inten    --     19.5165                 3.1598                 5.6646

                     28                     29                     30
                      A                      A                      A
 Frequencies --    712.4981               719.7389               725.6940
 Red. masses --      4.1286                 4.5480                 4.2160
 Frc consts  --      1.2349                 1.3881                 1.3081
 IR Inten    --     16.7434                 6.4284                26.6756

                     31                     32                     33
                      A                      A                      A
 Frequencies --    769.0651               775.6010               842.9248
 Red. masses --      6.2246                 1.6125                 1.5146
 Frc consts  --      2.1691                 0.5715                 0.6341
 IR Inten    --     29.2606                 8.5783                13.4414

                     34                     35                     36
                      A                      A                      A
 Frequencies --    905.0135               909.1661               991.9359
 Red. masses --      2.8995                 2.1889                 1.4451
 Frc consts  --      1.3992                 1.0660                 0.8378
 IR Inten    --      6.2974                16.2762                19.6726

                     37                     38                     39
                      A                      A                      A
 Frequencies --   1002.9359              1014.4345              1037.7881
 Red. masses --      1.2902                 1.8291                 2.2312
 Frc consts  --      0.7647                 1.1090                 1.4158
 IR Inten    --     17.0379                20.6421                59.1904

                     40                     41                     42
                      A                      A                      A
 Frequencies --   1066.2069              1068.8736              1070.2095
 Red. masses --      2.8535                 1.4394                 1.7777
 Frc consts  --      1.9112                 0.9689                 1.1996
 IR Inten    --    113.3452                 3.0771                 3.1973

                     43                     44                     45
                      A                      A                      A
 Frequencies --   1105.9901              1115.4438              1166.1723
 Red. masses --      3.4365                 3.3153                 2.1907
 Frc consts  --      2.4767                 2.4303                 1.7553
 IR Inten    --     19.8937                60.2805                 2.0873

                     46                     47                     48
                      A                      A                      A
 Frequencies --   1209.7887              1217.2898              1245.2462
 Red. masses --      1.2700                 1.9723                 1.4565
 Frc consts  --      1.0951                 1.7219                 1.3306
 IR Inten    --      9.3774               103.3390               116.6684

                     49                     50                     51
                      A                      A                      A
 Frequencies --   1255.6662              1316.3800              1339.2865
 Red. masses --      1.5632                 1.1810                 1.1765
 Frc consts  --      1.4522                 1.2057                 1.2434
 IR Inten    --     88.9906                 4.9469                17.5323

                     52                     53                     54
                      A                      A                      A
 Frequencies --   1380.0751              1392.4899              1406.0145
 Red. masses --      2.8416                 1.1776                 1.4559
 Frc consts  --      3.1888                 1.3453                 1.6957
 IR Inten    --     16.6172                10.6063                46.8346

                     55                     56                     57
                      A                      A                      A
 Frequencies --   1425.2291              1443.0588              1469.2470
 Red. masses --      1.7541                 1.2335                 2.8503
 Frc consts  --      2.0992                 1.5134                 3.6252
 IR Inten    --    152.9222                 0.9822               173.2102

                     58                     59                     60
                      A                      A                      A
 Frequencies --   1492.1190              1498.1846              1502.0043
 Red. masses --      1.0748                 1.0701                 1.1250
 Frc consts  --      1.4099                 1.4152                 1.4954
 IR Inten    --      8.1663                 7.1850                 2.5813

                     61                     62                     63
                      A                      A                      A
 Frequencies --   1506.9602              1507.6897              1517.9679
 Red. masses --      2.0205                 1.1114                 1.0631
 Frc consts  --      2.7035                 1.4885                 1.4433
 IR Inten    --     79.5008                17.6491                11.2758

                     64                     65                     66
                      A                      A                      A
 Frequencies --   1526.1448              1545.1398              1608.8167
 Red. masses --      1.3538                 1.3144                 5.4704
 Frc consts  --      1.8577                 1.8489                 8.3422
 IR Inten    --     65.9681                18.6639                80.5801

                     67                     68                     69
                      A                      A                      A
 Frequencies --   1798.6624              3051.8113              3053.4727
 Red. masses --      9.3355                 1.0364                 1.0609
 Frc consts  --     17.7945                 5.6871                 5.8277
 IR Inten    --    438.6849                25.1429                16.8018

                     70                     71                     72
                      A                      A                      A
 Frequencies --   3054.9084              3068.4346              3082.6639
 Red. masses --      1.0638                 1.0316                 1.0623
 Frc consts  --      5.8493                 5.7229                 5.9477
 IR Inten    --     24.4222                21.8958                14.0129

                     73                     74                     75
                      A                      A                      A
 Frequencies --   3098.2202              3106.5755              3127.5203
 Red. masses --      1.0997                 1.1016                 1.1014
 Frc consts  --      6.2194                 6.2636                 6.3475
 IR Inten    --     29.0911                10.4857                22.2366

                     76                     77                     78
                      A                      A                      A
 Frequencies --   3136.1517              3137.0830              3147.7850
 Red. masses --      1.1062                 1.1015                 1.1046
 Frc consts  --      6.4100                 6.3871                 6.4486
 IR Inten    --     13.1706                10.6103                10.5360

                     79                     80                     81
                      A                      A                      A
 Frequencies --   3172.6022              3226.8951              3691.4348
 Red. masses --      1.1049                 1.0937                 1.0640
 Frc consts  --      6.5522                 6.7098                 8.5422
 IR Inten    --      7.5472                 5.5408                79.5385

 - Thermochemistry -
 -------------------
 Temperature   298.150 Kelvin.  Pressure   1.00000 Atm.
 Atom     1 has atomic number  6 and mass  12.00000

 Molecular mass:   246.03844 amu.
 Principal axes and moments of inertia in atomic units:
                           1         2         3
     Eigenvalues --  2514.735586609.473538887.50587
           X            0.99971  -0.02390  -0.00395
           Y            0.02389   0.99970  -0.00446
           Z            0.00406   0.00437   0.99998
 This molecule is an asymmetric top.
 Rotational symmetry number  1.
 Warning -- assumption of classical behavior for rotation
           may cause significant error
 Rotational temperatures (Kelvin)      0.03444     0.01310     0.00975
 Rotational constants (GHZ):           0.71767     0.27305     0.20306
 Zero-point vibrational energy     603142.8 (Joules/Mol)
                                  144.15460 (Kcal/Mol)
 Warning -- explicit consideration of  25 degrees of freedom as
           vibrations may cause significant error
 Vibrational temperatures:     34.03    45.97    78.56   102.89   107.34
          (Kelvin)            119.84   152.43   161.88   178.72   206.86
                              245.51   319.22   356.49   387.76   414.56
                              478.98   487.52   511.00   556.18   666.45
                              718.92   728.90   845.55   873.45   880.37
                              957.89  1006.46  1025.13  1035.54  1044.11
                             1106.51  1115.92  1212.78  1302.11  1308.09
                             1427.17  1443.00  1459.55  1493.15  1534.03
                             1537.87  1539.79  1591.27  1604.87  1677.86
                             1740.62  1751.41  1791.63  1806.62  1893.98
                             1926.93  1985.62  2003.48  2022.94  2050.59
                             2076.24  2113.92  2146.83  2155.55  2161.05
                             2168.18  2169.23  2184.02  2195.78  2223.11
                             2314.73  2587.87  4390.88  4393.27  4395.33
                             4414.79  4435.27  4457.65  4469.67  4499.80
                             4512.22  4513.56  4528.96  4564.67  4642.78
                             5311.15

 Zero-point correction=                           0.229725 (Hartree/Particle)
 Thermal correction to Energy=                    0.246749
 Thermal correction to Enthalpy=                  0.247693
 Thermal correction to Gibbs Free Energy=         0.182372
 Sum of electronic and zero-point Energies=          -1411.368421
 Sum of electronic and thermal Energies=             -1411.351396
 Sum of electronic and thermal Enthalpies=           -1411.350452
 Sum of electronic and thermal Free Energies=        -1411.415774

                     E (Thermal)             CV                S
                      KCal/Mol        Cal/Mol-Kelvin    Cal/Mol-Kelvin
 Total                  154.837             60.048            137.480
 Electronic               0.000              0.000              0.000
 Translational            0.889              2.981             42.402
 Rotational               0.889              2.981             33.357
 Vibrational            153.060             54.087             61.722
 Vibration     1          0.593              1.985              6.301
 Vibration     2          0.594              1.983              5.705
 Vibration     3          0.596              1.976              4.643
 Vibration     4          0.598              1.968              4.111
 Vibration     5          0.599              1.966              4.028
 Vibration     6          0.600              1.961              3.812
 Vibration     7          0.605              1.944              3.342
 Vibration     8          0.607              1.939              3.225
 Vibration     9          0.610              1.929              3.034
 Vibration    10          0.616              1.909              2.753
 Vibration    11          0.626              1.879              2.428
 Vibration    12          0.648              1.808              1.944
 Vibration    13          0.661              1.766              1.746
 Vibration    14          0.674              1.729              1.599
 Vibration    15          0.685              1.696              1.485
 Vibration    16          0.715              1.610              1.246
 Vibration    17          0.719              1.598              1.218
 Vibration    18          0.731              1.565              1.143
 Vibration    19          0.755              1.499              1.013
 Vibration    20          0.821              1.332              0.757
 Vibration    21          0.855              1.251              0.659
 Vibration    22          0.862              1.235              0.642
 Vibration    23          0.945              1.058              0.471
 Vibration    24          0.966              1.017              0.438
 Vibration    25          0.971              1.007              0.430

                           ! Non-Optimized Parameters !
 Normal termination of Gaussian 16 at Thu Dec 10 17:42:29 2020.

 ----------------------------------------------------------------------
 # B3LYP/6-311++G(d,p) empiricaldispersion=gd3bj scf=xqc pop=npa geom=c
 heck
 ----------------------------------------------------------------------

 ---------------------------------------
 CID_116092771_JID_5845_Energie_neutraal
 ---------------------------------------
 Structure from the checkpoint file:  "JID_5845.chk"
 Charge =  0 Multiplicity = 1

 SCF Done:  E(RB3LYP) =  -1411.83318524     A.U. after   16 cycles
 Normal termination of Gaussian 16 at Thu Dec 10 17:46:23 2020.

 ----------------------------------------------------------------------
 # B3LYP/6-311++G(d,p) empiricaldispersion=gd3bj scf=xqc pop=npa geom=c
 heck
 ----------------------------------------------------------------------

 -------------------------------------
 CID_116092771_JID_5845_Energie_kation
 -------------------------------------
 Structure from the checkpoint file:  "JID_5845.chk"
 Charge =  1 Multiplicity = 2

 SCF Done:  E(UB3LYP) =  -1411.54032761     A.U. after   29 cycles
 Normal termination of Gaussian 16 at Thu Dec 10 17:56:12 2020.
 Gaussian 16:  ES64L-G16RevA.03 25-Dec-2016

 ----------------------------------------------------------------------
 # B3LYP/6-311++G(d,p) empiricaldispersion=gd3bj scf=xqc pop=npa geom=c
 heck
 ----------------------------------------------------------------------

 ------------------------------------
 CID_116092771_JID_5845_Energie_anion
 ------------------------------------
 Structure from the checkpoint file:  "JID_5845.chk"
 Charge = -1 Multiplicity = 2

                         Standard orientation:
 ---------------------------------------------------------------------
 Center     Atomic      Atomic             Coordinates (Angstroms)
 Number     Number       Type             X           Y           Z
 ---------------------------------------------------------------------
      1          6           0       -3.028541    3.200770    0.091780
      2          6           0       -2.342536    1.871924    0.009129
      3          6           0       -1.000263    1.629038   -0.133670
      4          6           0       -0.679483    0.241160   -0.169204
      5          6           0       -1.797026   -0.572509   -0.052965
      6         16           0       -3.248893    0.390002    0.105177
      7          6           0       -1.959788   -2.019377   -0.102445
      8          8           0       -3.032058   -2.592924   -0.029631
      9          8           0       -0.789556   -2.700653   -0.243177
     10          8           0        0.596337   -0.189789   -0.350815
     11          6           0        1.260513   -0.741207    0.809666
     12          6           0        2.432462   -1.574325    0.328980
     13          6           0        3.438676   -0.822286   -0.548629
     14         16           0        4.249547    0.614631    0.268805
     15          6           0        3.223205    1.985836   -0.373471
     16          1           0       -3.766393    3.323670   -0.709471
     17          1           0       -3.555121    3.323743    1.045334
     18          1           0       -2.293949    4.006274    0.003468
     19          1           0       -0.249549    2.406856   -0.215942
     20          1           0       -1.050368   -3.640115   -0.270789
     21          1           0        1.596931    0.086060    1.446807
     22          1           0        0.557846   -1.362091    1.370532
     23          1           0        2.942813   -1.974375    1.213657
     24          1           0        2.039474   -2.425649   -0.240446
     25          1           0        4.243933   -1.500714   -0.845296
     26          1           0        2.958400   -0.463796   -1.463069
     27          1           0        3.370001    2.110507   -1.450221
     28          1           0        2.164977    1.812594   -0.171262
     29          1           0        3.549451    2.895695    0.136950
 ---------------------------------------------------------------------

 SCF Done:  E(UB3LYP) =  -1411.84090577     A.U. after   32 cycles

 The electronic state is 2-A.
 Alpha  occ. eigenvalues --  -88.74555 -88.70697 -19.01341 -19.00461 -18.93345
 Alpha  occ. eigenvalues --  -10.12220 -10.10358 -10.09979 -10.09915 -10.07115
 Alpha  occ. eigenvalues --  -10.06584 -10.05015 -10.03772 -10.02768 -10.01969
 Alpha  occ. eigenvalues --   -7.83158  -7.79344  -5.79559  -5.79194  -5.78521
 Alpha  occ. eigenvalues --   -5.75651  -5.75297  -5.74924  -0.94811  -0.91986
 Alpha  occ. eigenvalues --   -0.85070  -0.72611  -0.71497  -0.66337  -0.62570
 Alpha  occ. eigenvalues --   -0.60073  -0.57371  -0.55116  -0.52449  -0.48589
 Alpha  occ. eigenvalues --   -0.46511  -0.41609  -0.40511  -0.38562  -0.36809
 Alpha  occ. eigenvalues --   -0.35934  -0.33835  -0.33134  -0.32235  -0.31597
 Alpha  occ. eigenvalues --   -0.30935  -0.30230  -0.29946  -0.29472  -0.28300
 Alpha  occ. eigenvalues --   -0.27349  -0.26409  -0.25288  -0.24081  -0.23471
 Alpha  occ. eigenvalues --   -0.22419  -0.21405  -0.20157  -0.19054  -0.17141
 Alpha  occ. eigenvalues --   -0.14681  -0.13194  -0.12006  -0.09812  -0.08404
 Alpha  occ. eigenvalues --    0.05198
 Alpha virt. eigenvalues --    0.07244   0.07576   0.08646   0.09215   0.09763
 Alpha virt. eigenvalues --    0.11033   0.11118   0.11786   0.12099   0.12431
 Alpha virt. eigenvalues --    0.12661   0.13369   0.13659   0.14512   0.15060

  Beta  occ. eigenvalues --  -88.74555 -88.70644 -19.01266 -19.00447 -18.93061
  Beta  occ. eigenvalues --  -10.11927 -10.10357 -10.09978 -10.09859 -10.07115
  Beta  occ. eigenvalues --  -10.06236 -10.05056 -10.03247 -10.02657 -10.02102
  Beta  occ. eigenvalues --   -7.83158  -7.79297  -5.79559  -5.79194  -5.78520
  Beta  occ. eigenvalues --   -5.75633  -5.75279  -5.74740  -0.94508  -0.91836
  Beta  occ. eigenvalues --   -0.84625  -0.72298  -0.71357  -0.66283  -0.62135
  Beta  occ. eigenvalues --   -0.59934  -0.57175  -0.54725  -0.52374  -0.48306
  Beta  occ. eigenvalues --   -0.46287  -0.41419  -0.40205  -0.38325  -0.36627
  Beta  occ. eigenvalues --   -0.35852  -0.33809  -0.32967  -0.32057  -0.31379
  Beta  occ. eigenvalues --   -0.30631  -0.30110  -0.29491  -0.28763  -0.27798
  Beta  occ. eigenvalues --   -0.27214  -0.26194  -0.25145  -0.23901  -0.23258
  Beta  occ. eigenvalues --   -0.22163  -0.21317  -0.19520  -0.18683  -0.15933
  Beta  occ. eigenvalues --   -0.14516  -0.13167  -0.11737  -0.08931  -0.06315
  Beta virt. eigenvalues --    0.07187   0.07541   0.08593   0.09125   0.09737
  Beta virt. eigenvalues --    0.10896   0.10980   0.11129   0.12001   0.12246
  Beta virt. eigenvalues --    0.12640   0.12841   0.13316   0.13589   0.14444

 Mulliken charges and spin densities:
               1          2
     1  C   -0.304672  -0.072355
     2  C    0.134102   0.272418
     3  C    0.306871  -0.054925
     4  C   -0.531438   0.283666
     5  C    0.314756  -0.002647
     6  S   -0.741238   0.138053
     7  C    0.024250   0.187068
     8  O   -0.430345   0.101408
     9  O   -0.287292   0.015458
    10  O   -0.039967   0.003761
    11  C   -0.347898  -0.087586
    12  C   -0.414182   0.014043
    13  C   -0.102801   0.008359
    14  S    0.095668   0.005827
    15  C   -0.637064  -0.020264
    16  H    0.115707   0.032443
    17  H    0.067756   0.086802
    18  H    0.119541   0.005343
    19  H    0.017019   0.009243
    20  H    0.281788  -0.000396
    21  H    0.112524   0.034124
    22  H    0.155975   0.021542
    23  H    0.105203   0.002295
    24  H    0.164352  -0.004008
    25  H    0.237465   0.001244
    26  H    0.161227  -0.000010
    27  H    0.173476   0.002264
    28  H    0.128621  -0.002129
    29  H    0.120597   0.018958
 Sum of Mulliken charges =  -1.00000   1.00000

 Dipole moment (field-independent basis, Debye):
    X=              8.0148    Y=              1.5105    Z=             -0.4297  Tot=              8.1672
 Quadrupole moment (field-independent basis, Debye-Ang):
   XX=           -166.6827   YY=           -120.0948   ZZ=           -114.6745
   XY=            -11.3929   XZ=             -1.8321   YZ=             -1.3950

 Summary of Natural Population Analysis:

                                       Natural Population
                Natural  -----------------------------------------------
    Atom  No    Charge         Core      Valence    Rydberg      Total
 -----------------------------------------------------------------------
      C    1   -0.30096      0.99962     2.29583    0.00550     3.30096
      C    2   -0.00040      0.99953     1.98816    0.01271     3.00040
      C    3   -0.18945      0.99943     2.18150    0.00851     3.18945
      C    4    0.20869      0.99929     1.77608    0.01594     2.79131
      C    5   -0.17273      0.99940     2.16005    0.01329     3.17273
      S    6    0.22208      4.99942     2.75664    0.02186     7.77792
      C    7    0.41364      0.99960     1.56191    0.02485     2.58636
      O    8   -0.31055      0.99987     3.30477    0.00590     4.31055
      O    9   -0.35517      0.99988     3.34750    0.00779     4.35517
      O   10   -0.29873      0.99985     3.28813    0.01075     4.29873
      C   11   -0.00365      0.99955     1.99296    0.01114     3.00365
      C   12   -0.20449      0.99961     2.19655    0.00833     3.20449
      C   13   -0.24687      0.99959     2.23849    0.00879     3.24687
      S   14    0.06642      4.99965     2.91333    0.02059     7.93358
      C   15   -0.34847      0.99961     2.34355    0.00531     3.34847
      H   16    0.10270      0.00000     0.39642    0.00088     0.39730
      H   17    0.10325      0.00000     0.39543    0.00132     0.39675
      H   18    0.09767      0.00000     0.40156    0.00077     0.40233
      H   19    0.09393      0.00000     0.40446    0.00161     0.40607
      H   20    0.22693      0.00000     0.26834    0.00473     0.27307
      H   21    0.07796      0.00000     0.41887    0.00317     0.42204
      H   22    0.09643      0.00000     0.40163    0.00194     0.40357
      H   23    0.09493      0.00000     0.40402    0.00105     0.40507
      H   24    0.10686      0.00000     0.39183    0.00131     0.39314
      H   25    0.09853      0.00000     0.40031    0.00117     0.40147
      H   26    0.10995      0.00000     0.38888    0.00117     0.39005
      H   27    0.09696      0.00000     0.40187    0.00117     0.40304
      H   28    0.11384      0.00000     0.38364    0.00251     0.38616
      H   29    0.10068      0.00000     0.39788    0.00144     0.39932
 =======================================================================
   * Total *    0.00000     22.99390    41.80060    0.20550    65.00000

 Normal termination of Gaussian 16 at Thu Dec 10 18:06:05 2020.
