 Gaussian 16, Revision A.03,

 -----------------------------------------------------------
 # opt freq B3LYP/6-31G(d) empiricaldispersion=gd3bj scf=xqc
 -----------------------------------------------------------

 -------------------------------
 CID_123918462_JID_6334_neutraal
 -------------------------------
 Symbolic Z-matrix:
 Charge =  0 Multiplicity = 1

 SCF Done:  E(RB3LYP) =  -724.511801421     A.U. after   15 cycles
 SCF Done:  E(RB3LYP) =  -724.515179824     A.U. after   12 cycles
 SCF Done:  E(RB3LYP) =  -724.515513970     A.U. after   11 cycles
 SCF Done:  E(RB3LYP) =  -724.515513100     A.U. after   11 cycles
 SCF Done:  E(RB3LYP) =  -724.515548523     A.U. after   11 cycles
 SCF Done:  E(RB3LYP) =  -724.515591876     A.U. after   10 cycles
 SCF Done:  E(RB3LYP) =  -724.515614215     A.U. after   11 cycles
 SCF Done:  E(RB3LYP) =  -724.515624349     A.U. after   11 cycles
 SCF Done:  E(RB3LYP) =  -724.515627445     A.U. after    9 cycles
 SCF Done:  E(RB3LYP) =  -724.515628551     A.U. after    8 cycles
 SCF Done:  E(RB3LYP) =  -724.515628837     A.U. after    7 cycles
 SCF Done:  E(RB3LYP) =  -724.515628949     A.U. after    7 cycles
 SCF Done:  E(RB3LYP) =  -724.515629023     A.U. after    7 cycles
 SCF Done:  E(RB3LYP) =  -724.515629070     A.U. after    7 cycles
 SCF Done:  E(RB3LYP) =  -724.515629086     A.U. after    7 cycles
 Optimization completed.
    -- Stationary point found.
 Normal termination of Gaussian 16 at Thu Dec 10 22:13:02 2020.

 --------------------------------------------------------------------
 #N Geom=AllCheck Guess=TCheck SCRF=Check GenChk RB3LYP/6-31G(d) Freq
 --------------------------------------------------------------------

 Structure from the checkpoint file:  "JID_6334.chk"
 -------------------------------
 CID_123918462_JID_6334_neutraal
 -------------------------------
 Charge =  0 Multiplicity = 1

 SCF Done:  E(RB3LYP) =  -724.515629086     A.U. after    1 cycles

  Exact polarizability: 197.054   2.947 139.271   2.584 -13.385  80.805
 Approx polarizability: 275.369  13.800 230.383   6.315 -28.290 131.623

                      1                      2                      3
                      A                      A                      A
 Frequencies --     24.8385                38.9273                59.6325
 Red. masses --      3.7229                 6.4048                 5.5318
 Frc consts  --      0.0014                 0.0057                 0.0116
 IR Inten    --      0.3243                 0.4339                 0.2976

                      4                      5                      6
                      A                      A                      A
 Frequencies --     88.7864               122.3734               131.8885
 Red. masses --      5.5946                 1.1520                 1.3284
 Frc consts  --      0.0260                 0.0102                 0.0136
 IR Inten    --      0.8298                 0.8390                 1.2360

                      7                      8                      9
                      A                      A                      A
 Frequencies --    151.4354               168.0162               220.7968
 Red. masses --      1.6584                 5.0481                 4.4381
 Frc consts  --      0.0224                 0.0840                 0.1275
 IR Inten    --      1.1536                 1.6983                 0.2413

                     10                     11                     12
                      A                      A                      A
 Frequencies --    225.8135               284.0425               298.4876
 Red. masses --      4.3456                 5.7486                 3.2356
 Frc consts  --      0.1306                 0.2733                 0.1698
 IR Inten    --      1.4261                 4.6017                 4.5249

                     13                     14                     15
                      A                      A                      A
 Frequencies --    342.5953               388.1674               412.0816
 Red. masses --      3.9448                 6.8289                 4.6316
 Frc consts  --      0.2728                 0.6062                 0.4634
 IR Inten    --      0.4105                 2.9769                 0.7656

                     16                     17                     18
                      A                      A                      A
 Frequencies --    422.9901               505.2804               535.0645
 Red. masses --      3.1169                 3.7480                 1.6797
 Frc consts  --      0.3286                 0.5638                 0.2833
 IR Inten    --      0.1489                 6.3555                44.4533

                     19                     20                     21
                      A                      A                      A
 Frequencies --    536.1904               584.8901               620.8856
 Red. masses --      3.1573                 5.7821                 4.6571
 Frc consts  --      0.5348                 1.1654                 1.0578
 IR Inten    --     16.0255                11.4593                 1.1503

                     22                     23                     24
                      A                      A                      A
 Frequencies --    631.2603               665.7699               682.4306
 Red. masses --      6.3861                 3.4086                 3.7096
 Frc consts  --      1.4993                 0.8902                 1.0179
 IR Inten    --      1.3065                19.9244                11.0331

                     25                     26                     27
                      A                      A                      A
 Frequencies --    700.5841               756.2944               772.0625
 Red. masses --      2.4321                 1.8533                 6.1595
 Frc consts  --      0.7033                 0.6246                 2.1632
 IR Inten    --     13.5318                24.1210                25.7329

                     28                     29                     30
                      A                      A                      A
 Frequencies --    784.9942               833.3215               839.1566
 Red. masses --      4.8607                 5.2263                 1.3043
 Frc consts  --      1.7647                 2.1383                 0.5411
 IR Inten    --      2.7486                 0.2003                 0.7499

                     31                     32                     33
                      A                      A                      A
 Frequencies --    849.9453               919.1474               959.4240
 Red. masses --      4.4343                 1.5910                 1.3346
 Frc consts  --      1.8874                 0.7919                 0.7238
 IR Inten    --     10.4364                 6.0225                 0.1032

                     34                     35                     36
                      A                      A                      A
 Frequencies --    986.6184              1009.8029              1024.0936
 Red. masses --      1.2399                 1.5575                 6.0674
 Frc consts  --      0.7111                 0.9357                 3.7491
 IR Inten    --      0.1634                27.7178                 7.4834

                     37                     38                     39
                      A                      A                      A
 Frequencies --   1031.1967              1053.1925              1065.8844
 Red. masses --      1.8629                 2.6430                 2.9815
 Frc consts  --      1.1671                 1.7273                 1.9958
 IR Inten    --      8.5448                28.2536               177.2208

                     40                     41                     42
                      A                      A                      A
 Frequencies --   1071.7269              1081.8941              1105.7856
 Red. masses --      1.4541                 1.5189                 4.1981
 Frc consts  --      0.9840                 1.0475                 3.0244
 IR Inten    --      1.7380                 3.2943               252.7784

                     43                     44                     45
                      A                      A                      A
 Frequencies --   1110.9733              1156.4541              1191.5628
 Red. masses --      1.5871                 4.9858                 1.1058
 Frc consts  --      1.1542                 3.9286                 0.9250
 IR Inten    --     30.7278                 5.5922                 2.3325

                     46                     47                     48
                      A                      A                      A
 Frequencies --   1201.1076              1246.1073              1307.9743
 Red. masses --      1.1730                 4.0531                 3.1795
 Frc consts  --      0.9971                 3.7080                 3.2048
 IR Inten    --     30.4611               385.8050                72.2577

                     49                     50                     51
                      A                      A                      A
 Frequencies --   1336.9155              1347.1391              1366.6990
 Red. masses --      2.9038                 1.7624                 3.2409
 Frc consts  --      3.0579                 1.8844                 3.5666
 IR Inten    --     79.7727                 6.1256                 9.5694

                     52                     53                     54
                      A                      A                      A
 Frequencies --   1430.6933              1445.3040              1458.0408
 Red. masses --      1.6756                 1.3639                 1.7485
 Frc consts  --      2.0207                 1.6787                 2.1900
 IR Inten    --      8.2772                 7.9856                 6.5805

                     55                     56                     57
                      A                      A                      A
 Frequencies --   1495.9126              1499.8217              1505.0251
 Red. masses --      1.4747                 1.0453                 2.2728
 Frc consts  --      1.9443                 1.3854                 3.0332
 IR Inten    --    112.2994                 7.9825                 2.9493

                     58                     59                     60
                      A                      A                      A
 Frequencies --   1505.7072              1509.6131              1528.3553
 Red. masses --      1.0458                 1.8388                 1.9996
 Frc consts  --      1.3969                 2.4690                 2.7519
 IR Inten    --      7.0881               176.0257                71.2422

                     61                     62                     63
                      A                      A                      A
 Frequencies --   1546.2234              1553.5241              1616.7591
 Red. masses --      2.4238                 2.4282                 4.6520
 Frc consts  --      3.4142                 3.4527                 7.1644
 IR Inten    --     29.1305                16.6463                34.7266

                     64                     65                     66
                      A                      A                      A
 Frequencies --   1655.0172              1662.4923              1811.3396
 Red. masses --      6.0115                 5.9352                12.7474
 Frc consts  --      9.7015                 9.6651                24.6418
 IR Inten    --      8.8322                16.4354               296.1679

                     67                     68                     69
                      A                      A                      A
 Frequencies --   3063.6970              3067.4489              3125.3205
 Red. masses --      1.0364                 1.0354                 1.1004
 Frc consts  --      5.7316                 5.7401                 6.3328
 IR Inten    --     20.7653                11.4288                 9.1506

                     70                     71                     72
                      A                      A                      A
 Frequencies --   3133.7473              3136.5959              3154.2431
 Red. masses --      1.1019                 1.1017                 1.1041
 Frc consts  --      6.3758                 6.3858                 6.4724
 IR Inten    --     15.4072                11.4985                15.9504

                     73                     74                     75
                      A                      A                      A
 Frequencies --   3188.5015              3198.0597              3209.9921
 Red. masses --      1.0853                 1.0896                 1.0935
 Frc consts  --      6.5008                 6.5659                 6.6384
 IR Inten    --      0.3973                13.7101                32.9348

                     76                     77                     78
                      A                      A                      A
 Frequencies --   3218.3024              3249.7040              3654.2714
 Red. masses --      1.0964                 1.0932                 1.0812
 Frc consts  --      6.6908                 6.8022                 8.5067
 IR Inten    --     10.5948                 2.1354                80.4107

 - Thermochemistry -
 -------------------
 Temperature   298.150 Kelvin.  Pressure   1.00000 Atm.
 Atom     1 has atomic number  6 and mass  12.00000

 Molecular mass:   216.08988 amu.
 Principal axes and moments of inertia in atomic units:
                           1         2         3
     Eigenvalues --  1409.301676297.002597369.87290
           X            1.00000  -0.00293   0.00001
           Y            0.00293   0.99998  -0.00526
           Z            0.00001   0.00526   0.99999
 This molecule is an asymmetric top.
 Rotational symmetry number  1.
 Warning -- assumption of classical behavior for rotation
           may cause significant error
 Rotational temperatures (Kelvin)      0.06146     0.01375     0.01175
 Rotational constants (GHZ):           1.28059     0.28660     0.24488
 Zero-point vibrational energy     585431.0 (Joules/Mol)
                                  139.92136 (Kcal/Mol)
 Warning -- explicit consideration of  20 degrees of freedom as
           vibrations may cause significant error
 Vibrational temperatures:     35.74    56.01    85.80   127.74   176.07
          (Kelvin)            189.76   217.88   241.74   317.68   324.90
                              408.67   429.46   492.92   558.49   592.89
                              608.59   726.99   769.84   771.46   841.53
                              893.32   908.24   957.89   981.87  1007.98
                             1088.14  1110.83  1129.43  1198.96  1207.36
                             1222.88  1322.45  1380.40  1419.52  1452.88
                             1473.44  1483.66  1515.31  1533.57  1541.98
                             1556.60  1590.98  1598.44  1663.88  1714.39
                             1728.13  1792.87  1881.88  1923.52  1938.23
                             1966.38  2058.45  2079.47  2097.80  2152.28
                             2157.91  2165.40  2166.38  2172.00  2198.96
                             2224.67  2235.17  2326.16  2381.20  2391.96
                             2606.11  4407.98  4413.37  4496.64  4508.76
                             4512.86  4538.25  4587.54  4601.29  4618.46
                             4630.42  4675.60  5257.68

 Zero-point correction=                           0.222979 (Hartree/Particle)
 Thermal correction to Energy=                    0.237408
 Thermal correction to Enthalpy=                  0.238353
 Thermal correction to Gibbs Free Energy=         0.179985
 Sum of electronic and zero-point Energies=           -724.292650
 Sum of electronic and thermal Energies=              -724.278221
 Sum of electronic and thermal Enthalpies=            -724.277277
 Sum of electronic and thermal Free Energies=         -724.335644

                     E (Thermal)             CV                S
                      KCal/Mol        Cal/Mol-Kelvin    Cal/Mol-Kelvin
 Total                  148.976             53.953            122.845
 Electronic               0.000              0.000              0.000
 Translational            0.889              2.981             42.015
 Rotational               0.889              2.981             32.547
 Vibrational            147.199             47.991             48.282
 Vibration     1          0.593              1.985              6.204
 Vibration     2          0.594              1.981              5.313
 Vibration     3          0.597              1.974              4.469
 Vibration     4          0.602              1.957              3.687
 Vibration     5          0.610              1.930              3.063
 Vibration     6          0.612              1.921              2.918
 Vibration     7          0.619              1.901              2.654
 Vibration     8          0.625              1.882              2.458
 Vibration     9          0.648              1.809              1.953
 Vibration    10          0.650              1.802              1.912
 Vibration    11          0.682              1.703              1.509
 Vibration    12          0.692              1.677              1.425
 Vibration    13          0.722              1.590              1.200
 Vibration    14          0.756              1.495              1.007
 Vibration    15          0.776              1.444              0.919
 Vibration    16          0.785              1.420              0.882
 Vibration    17          0.861              1.238              0.645
 Vibration    18          0.890              1.172              0.576
 Vibration    19          0.891              1.170              0.574
 Vibration    20          0.942              1.064              0.476

 Optimization completed.
    -- Stationary point found.
 Normal termination of Gaussian 16 at Thu Dec 10 22:21:11 2020.

 ----------------------------------------------------------------------
 # B3LYP/6-311++G(d,p) empiricaldispersion=gd3bj scf=xqc pop=npa geom=c
 heck
 ----------------------------------------------------------------------

 ---------------------------------------
 CID_123918462_JID_6334_Energie_neutraal
 ---------------------------------------
 Structure from the checkpoint file:  "JID_6334.chk"
 Charge =  0 Multiplicity = 1

 SCF Done:  E(RB3LYP) =  -724.712391241     A.U. after   16 cycles
 Normal termination of Gaussian 16 at Thu Dec 10 22:25:23 2020.

 ----------------------------------------------------------------------
 # B3LYP/6-311++G(d,p) empiricaldispersion=gd3bj scf=xqc pop=npa geom=c
 heck
 ----------------------------------------------------------------------

 -------------------------------------
 CID_123918462_JID_6334_Energie_kation
 -------------------------------------
 Structure from the checkpoint file:  "JID_6334.chk"
 Charge =  1 Multiplicity = 2

 SCF Done:  E(UB3LYP) =  -724.403200147     A.U. after   32 cycles
 Normal termination of Gaussian 16 at Thu Dec 10 22:36:37 2020.
 Gaussian 16:  ES64L-G16RevA.03 25-Dec-2016

 ----------------------------------------------------------------------
 # B3LYP/6-311++G(d,p) empiricaldispersion=gd3bj scf=xqc pop=npa geom=c
 heck
 ----------------------------------------------------------------------

 ------------------------------------
 CID_123918462_JID_6334_Energie_anion
 ------------------------------------
 Structure from the checkpoint file:  "JID_6334.chk"
 Charge = -1 Multiplicity = 2

                         Standard orientation:
 ---------------------------------------------------------------------
 Center     Atomic      Atomic             Coordinates (Angstroms)
 Number     Number       Type             X           Y           Z
 ---------------------------------------------------------------------
      1          6           0        1.448796    2.543078    0.389129
      2          6           0        2.173682    1.253816    0.186697
      3          6           0        1.741656   -0.060373   -0.016710
      4          6           0        2.933929   -0.841338   -0.141038
      5          7           0        4.013319   -0.076699   -0.025067
      6          7           0        3.521186    1.178853    0.171537
      7          6           0        3.054296   -2.312427   -0.370345
      8          6           0        0.384071   -0.575504   -0.090491
      9          8           0        0.075104   -1.735309   -0.261475
     10          8           0       -0.535117    0.445287    0.057870
     11          6           0       -1.899534    0.170334    0.029332
     12          6           0       -2.680603    1.010026   -0.760908
     13          6           0       -4.065351    0.846284   -0.773294
     14          6           0       -4.659652   -0.154652   -0.003787
     15          6           0       -3.862075   -0.988314    0.782370
     16          6           0       -2.476672   -0.831181    0.809030
     17          1           0        0.810433    2.770021   -0.469750
     18          1           0        0.795302    2.489522    1.264480
     19          1           0        2.153958    3.369201    0.528324
     20          1           0        4.172234    1.941312    0.289884
     21          1           0        2.563815   -2.874564    0.430643
     22          1           0        2.559454   -2.604952   -1.301837
     23          1           0        4.109876   -2.591234   -0.416356
     24          1           0       -2.195219    1.779129   -1.353062
     25          1           0       -4.677181    1.500869   -1.387279
     26          1           0       -5.737676   -0.284852   -0.016249
     27          1           0       -4.318884   -1.769382    1.383266
     28          1           0       -1.852803   -1.478471    1.411571
 ---------------------------------------------------------------------

 SCF Done:  E(UB3LYP) =  -724.704113412     A.U. after   33 cycles
 SCF Done:  E(UB3LYP) =  -724.704113412     a.u. after    1 cycles

 The electronic state is 2-A.
 Alpha  occ. eigenvalues --  -19.06263 -18.99122 -14.27716 -14.22409 -10.18480
 Alpha  occ. eigenvalues --  -10.13362 -10.11543 -10.09812 -10.08351 -10.08293
 Alpha  occ. eigenvalues --  -10.07895 -10.07739 -10.07687 -10.06986 -10.06717
 Alpha  occ. eigenvalues --  -10.06562  -0.99749  -0.94125  -0.91282  -0.76179
 Alpha  occ. eigenvalues --   -0.73656  -0.70213  -0.65792  -0.65491  -0.61807
 Alpha  occ. eigenvalues --   -0.60811  -0.56535  -0.52291  -0.50708  -0.47046
 Alpha  occ. eigenvalues --   -0.46004  -0.41515  -0.40784  -0.38824  -0.37909
 Alpha  occ. eigenvalues --   -0.36917  -0.35540  -0.34650  -0.33437  -0.33068
 Alpha  occ. eigenvalues --   -0.32382  -0.31691  -0.31068  -0.29874  -0.28984
 Alpha  occ. eigenvalues --   -0.28847  -0.27548  -0.26876  -0.26536  -0.25378
 Alpha  occ. eigenvalues --   -0.21797  -0.19339  -0.17514  -0.16042  -0.15463
 Alpha  occ. eigenvalues --   -0.14847  -0.14126   0.04451
 Alpha virt. eigenvalues --    0.06102   0.06437   0.07644   0.07868   0.08411
 Alpha virt. eigenvalues --    0.08640   0.09086   0.09753   0.10287   0.11231
 Alpha virt. eigenvalues --    0.11436   0.11741   0.12870   0.13186   0.13759

  Beta  occ. eigenvalues --  -19.06275 -18.98999 -14.27652 -14.22433 -10.18330
  Beta  occ. eigenvalues --  -10.13279 -10.11428 -10.09777 -10.08355 -10.08278
  Beta  occ. eigenvalues --  -10.07889 -10.07720 -10.07619 -10.06940 -10.06719
  Beta  occ. eigenvalues --  -10.06582  -0.99636  -0.94058  -0.91101  -0.76099
  Beta  occ. eigenvalues --   -0.73562  -0.70077  -0.65715  -0.65371  -0.61753
  Beta  occ. eigenvalues --   -0.60727  -0.56348  -0.52241  -0.50591  -0.46961
  Beta  occ. eigenvalues --   -0.45937  -0.41436  -0.40686  -0.38673  -0.37790
  Beta  occ. eigenvalues --   -0.36709  -0.35395  -0.34569  -0.33381  -0.32978
  Beta  occ. eigenvalues --   -0.32166  -0.31601  -0.30916  -0.29773  -0.28917
  Beta  occ. eigenvalues --   -0.28750  -0.27367  -0.26835  -0.26454  -0.25283
  Beta  occ. eigenvalues --   -0.21494  -0.19337  -0.17404  -0.15920  -0.15209
  Beta  occ. eigenvalues --   -0.14551  -0.13889
  Beta virt. eigenvalues --    0.06289   0.07584   0.07662   0.07830   0.07986
  Beta virt. eigenvalues --    0.08632   0.09023   0.09808   0.10289   0.10500
  Beta virt. eigenvalues --    0.11568   0.11632   0.12056   0.12998   0.13268

 Mulliken charges and spin densities:
               1          2
     1  C    2.143490  -2.653308
     2  C   -1.501026   2.386563
     3  C    1.542687  -0.556401
     4  C    0.357477  -0.430716
     5  N   -0.170729   0.082137
     6  N    0.003293  -0.182562
     7  C   -0.468417  -0.070721
     8  C   -1.789609  -0.039410
     9  O   -0.250715   0.036102
    10  O    0.011713   0.010898
    11  C    0.084767  -0.209652
    12  C    0.096058   0.088533
    13  C    0.298876  -0.326957
    14  C   -0.022149  -0.401951
    15  C    0.018392  -0.003695
    16  C   -0.558533   0.384317
    17  H   -0.032037   0.199910
    18  H   -0.172857   0.373257
    19  H   -0.919344   1.068815
    20  H   -0.223428   0.571898
    21  H    0.144047   0.013516
    22  H    0.150771   0.013467
    23  H    0.148907  -0.010939
    24  H    0.048072   0.104452
    25  H   -0.133740   0.293800
    26  H   -0.016092   0.139849
    27  H    0.042864   0.115699
    28  H    0.167263   0.003099
 Sum of Mulliken charges =  -1.00000   1.00000

 Dipole moment (field-independent basis, Debye):
    X=             -4.0781    Y=             -5.2135    Z=             -0.8579  Tot=              6.6744
 Quadrupole moment (field-independent basis, Debye-Ang):
   XX=           -169.2126   YY=           -141.4345   ZZ=           -111.2047
   XY=            -17.3239   XZ=             -4.9535   YZ=             -8.2609

 Summary of Natural Population Analysis:

                                       Natural Population
                Natural  -----------------------------------------------
    Atom  No    Charge         Core      Valence    Rydberg      Total
 -----------------------------------------------------------------------
      C    1   -0.30231      0.99963     2.29668    0.00601     3.30231
      C    2    0.13919      0.99953     1.84974    0.01153     2.86081
      C    3   -0.14362      0.99937     2.13416    0.01009     3.14362
      C    4    0.10578      0.99958     1.87990    0.01474     2.89422
      N    5   -0.17405      0.99970     2.66136    0.01299     3.67405
      N    6   -0.16294      0.99964     2.65010    0.01320     3.66294
      C    7   -0.29860      0.99963     2.29455    0.00441     3.29860
      C    8    0.41637      0.99959     1.55961    0.02444     2.58363
      O    9   -0.29762      0.99987     3.29316    0.00459     4.29762
      O   10   -0.28449      0.99985     3.27492    0.00972     4.28449
      C   11    0.16575      0.99934     1.82143    0.01347     2.83425
      C   12   -0.11795      0.99951     2.10839    0.01005     3.11795
      C   13   -0.09897      0.99957     2.09008    0.00931     3.09897
      C   14   -0.10441      0.99957     2.09489    0.00995     3.10441
      C   15   -0.10182      0.99957     2.09258    0.00967     3.10182
      C   16   -0.11169      0.99951     2.10371    0.00846     3.11169
      H   17    0.11156      0.00000     0.38723    0.00121     0.38844
      H   18    0.11657      0.00000     0.38167    0.00176     0.38343
      H   19    0.10823      0.00000     0.38725    0.00452     0.39177
      H   20    0.20267      0.00000     0.29033    0.00701     0.29733
      H   21    0.10838      0.00000     0.39068    0.00094     0.39162
      H   22    0.10859      0.00000     0.39050    0.00091     0.39141
      H   23    0.10246      0.00000     0.39663    0.00092     0.39754
      H   24    0.10665      0.00000     0.39229    0.00106     0.39335
      H   25    0.09903      0.00000     0.40012    0.00085     0.40097
      H   26    0.09749      0.00000     0.40165    0.00086     0.40251
      H   27    0.09808      0.00000     0.40113    0.00079     0.40192
      H   28    0.11167      0.00000     0.38742    0.00092     0.38833
 =======================================================================
   * Total *   -0.00000     15.99346    40.81215    0.19438    57.00000

 Normal termination of Gaussian 16 at Thu Dec 10 22:48:18 2020.
