 Gaussian 16, Revision A.03,

 -----------------------------------------------------------
 # opt freq B3LYP/6-31G(d) empiricaldispersion=gd3bj scf=xqc
 -----------------------------------------------------------

 ------------------------------
 CID_131549825_JID_511_neutraal
 ------------------------------
 Symbolic Z-matrix:
 Charge =  0 Multiplicity = 1

 SCF Done:  E(RB3LYP) =  -445.068909151     A.U. after   13 cycles
 SCF Done:  E(RB3LYP) =  -445.072344894     A.U. after   11 cycles
 SCF Done:  E(RB3LYP) =  -445.072761294     A.U. after   11 cycles
 SCF Done:  E(RB3LYP) =  -445.072932279     A.U. after   11 cycles
 SCF Done:  E(RB3LYP) =  -445.073105366     A.U. after   10 cycles
 SCF Done:  E(RB3LYP) =  -445.073122033     A.U. after    8 cycles
 SCF Done:  E(RB3LYP) =  -445.073123269     A.U. after    8 cycles
 SCF Done:  E(RB3LYP) =  -445.073123585     A.U. after    7 cycles
 SCF Done:  E(RB3LYP) =  -445.073123675     A.U. after    7 cycles
 SCF Done:  E(RB3LYP) =  -445.073123721     A.U. after    7 cycles
 SCF Done:  E(RB3LYP) =  -445.073123746     A.U. after    7 cycles
 Optimization completed.
    -- Stationary point found.
 Normal termination of Gaussian 16 at Tue Dec  8 12:19:51 2020.

 --------------------------------------------------------------------
 #N Geom=AllCheck Guess=TCheck SCRF=Check GenChk RB3LYP/6-31G(d) Freq
 --------------------------------------------------------------------

 Structure from the checkpoint file:  "JID_511.chk"
 ------------------------------
 CID_131549825_JID_511_neutraal
 ------------------------------
 Charge =  0 Multiplicity = 1

 SCF Done:  E(RB3LYP) =  -445.073123746     A.U. after    1 cycles

  Exact polarizability: 119.439  -4.820  87.129  -5.568  -0.654  84.134
 Approx polarizability: 150.770  -9.937 120.934 -12.662  -0.067 123.948

                      1                      2                      3
                      A                      A                      A
 Frequencies --     47.7404                52.1209               105.1683
 Red. masses --      2.6501                 3.0616                 3.0343
 Frc consts  --      0.0036                 0.0049                 0.0198
 IR Inten    --      0.1114                 0.0096                 1.2758

                      4                      5                      6
                      A                      A                      A
 Frequencies --    149.1219               197.5235               213.0352
 Red. masses --      1.3813                 3.3700                 1.4739
 Frc consts  --      0.0181                 0.0775                 0.0394
 IR Inten    --      0.2780                 0.6664                 2.4201

                      7                      8                      9
                      A                      A                      A
 Frequencies --    228.9683               237.8897               249.2077
 Red. masses --      1.1380                 1.8601                 1.5217
 Frc consts  --      0.0352                 0.0620                 0.0557
 IR Inten    --      1.0082                 6.6630                 3.5524

                     10                     11                     12
                      A                      A                      A
 Frequencies --    270.7451               293.7891               309.0835
 Red. masses --      1.6443                 2.6277                 1.1479
 Frc consts  --      0.0710                 0.1336                 0.0646
 IR Inten    --     18.0274                 5.4493               102.9383

                     13                     14                     15
                      A                      A                      A
 Frequencies --    313.8104               326.2397               371.7931
 Red. masses --      2.0409                 2.2755                 2.8757
 Frc consts  --      0.1184                 0.1427                 0.2342
 IR Inten    --     11.3153                14.2749                11.7022

                     16                     17                     18
                      A                      A                      A
 Frequencies --    406.5449               460.2547               549.5911
 Red. masses --      2.2749                 3.2687                 2.7782
 Frc consts  --      0.2215                 0.4080                 0.4944
 IR Inten    --      1.9329                 5.4326                13.1816

                     19                     20                     21
                      A                      A                      A
 Frequencies --    574.5985               697.1334               763.5523
 Red. masses --      2.3827                 3.0895                 3.0856
 Frc consts  --      0.4635                 0.8846                 1.0599
 IR Inten    --      6.6744                16.2060                10.0745

                     22                     23                     24
                      A                      A                      A
 Frequencies --    817.2911               899.8400               912.1045
 Red. masses --      1.6893                 1.7156                 2.2094
 Frc consts  --      0.6648                 0.8184                 1.0829
 IR Inten    --      2.1144               151.1231                34.7732

                     25                     26                     27
                      A                      A                      A
 Frequencies --    941.6430               950.7027               979.3014
 Red. masses --      1.1843                 1.6066                 1.4914
 Frc consts  --      0.6187                 0.8556                 0.8427
 IR Inten    --      5.6981                18.2451                 1.6598

                     28                     29                     30
                      A                      A                      A
 Frequencies --   1003.0159              1018.7774              1041.0011
 Red. masses --      2.3789                 1.0990                 1.9113
 Frc consts  --      1.4101                 0.6721                 1.2203
 IR Inten    --     41.7369                35.0723                10.8725

                     31                     32                     33
                      A                      A                      A
 Frequencies --   1061.7228              1079.8873              1107.1401
 Red. masses --      1.9394                 1.5351                 2.7471
 Frc consts  --      1.2881                 1.0548                 1.9840
 IR Inten    --     58.4459                 0.5512                 0.9636

                     34                     35                     36
                      A                      A                      A
 Frequencies --   1124.7732              1161.4411              1178.6081
 Red. masses --      2.0132                 2.0528                 2.1089
 Frc consts  --      1.5006                 1.6315                 1.7260
 IR Inten    --      4.4897                25.1291                11.3756

                     37                     38                     39
                      A                      A                      A
 Frequencies --   1213.6073              1236.9513              1261.8657
 Red. masses --      1.7963                 1.5739                 1.1687
 Frc consts  --      1.5588                 1.4188                 1.0964
 IR Inten    --      3.3048                 2.9701                42.3620

                     40                     41                     42
                      A                      A                      A
 Frequencies --   1295.3468              1343.0723              1355.1444
 Red. masses --      1.3023                 1.3143                 1.3416
 Frc consts  --      1.2875                 1.3968                 1.4516
 IR Inten    --      9.4909                 3.4900                13.9627

                     43                     44                     45
                      A                      A                      A
 Frequencies --   1363.6534              1395.1954              1408.1811
 Red. masses --      1.3194                 1.3804                 1.3293
 Frc consts  --      1.4456                 1.5832                 1.5530
 IR Inten    --      1.4853                12.3121                 4.9746

                     46                     47                     48
                      A                      A                      A
 Frequencies --   1411.0092              1429.3244              1438.0479
 Red. masses --      1.2825                 1.2868                 1.4157
 Frc consts  --      1.5044                 1.5489                 1.7249
 IR Inten    --      9.6593                 8.9753                 2.4288

                     49                     50                     51
                      A                      A                      A
 Frequencies --   1442.8774              1455.3521              1509.5855
 Red. masses --      1.3145                 1.2807                 1.0453
 Frc consts  --      1.6124                 1.5982                 1.4034
 IR Inten    --      1.4822                10.3282                 5.9867

                     52                     53                     54
                      A                      A                      A
 Frequencies --   1517.0491              1521.2491              1526.5479
 Red. masses --      1.0441                 1.0553                 1.0503
 Frc consts  --      1.4158                 1.4389                 1.4420
 IR Inten    --      0.9472                10.5772                 2.4598

                     55                     56                     57
                      A                      A                      A
 Frequencies --   1537.4080              1544.6604              1681.6482
 Red. masses --      1.0458                 1.0547                 1.0914
 Frc consts  --      1.4563                 1.4826                 1.8185
 IR Inten    --      7.7110                 6.2104                29.1990

                     58                     59                     60
                      A                      A                      A
 Frequencies --   1756.2277              3011.1298              3023.7145
 Red. masses --      5.8813                 1.0839                 1.0830
 Frc consts  --     10.6877                 5.7901                 5.8339
 IR Inten    --      9.5834                20.7289                27.9130

                     61                     62                     63
                      A                      A                      A
 Frequencies --   3031.7378              3033.5896              3036.2468
 Red. masses --      1.0829                 1.0378                 1.0377
 Frc consts  --      5.8644                 5.6270                 5.6365
 IR Inten    --     53.8349                29.7428                32.9055

                     64                     65                     66
                      A                      A                      A
 Frequencies --   3048.6579              3080.4590              3096.2710
 Red. masses --      1.0399                 1.1000                 1.1004
 Frc consts  --      5.6947                 6.1500                 6.2157
 IR Inten    --     34.0920                23.0685                17.2050

                     67                     68                     69
                      A                      A                      A
 Frequencies --   3102.9428              3111.5198              3117.5023
 Red. masses --      1.1011                 1.1017                 1.0977
 Frc consts  --      6.2461                 6.2843                 6.2856
 IR Inten    --     57.0361                44.7600                 6.2791

                     70                     71                     72
                      A                      A                      A
 Frequencies --   3138.8419              3156.0326              3157.7664
 Red. masses --      1.0918                 1.0895                 1.0962
 Frc consts  --      6.3379                 6.3938                 6.4400
 IR Inten    --     28.1268                23.8197                16.7263

                     73                     74                     75
                      A                      A                      A
 Frequencies --   3484.3625              3574.9529              3750.1956
 Red. masses --      1.0485                 1.0929                 1.0664
 Frc consts  --      7.5000                 8.2295                 8.8368
 IR Inten    --      4.3623                 1.3644                14.6841

 - Thermochemistry -
 -------------------
 Temperature   298.150 Kelvin.  Pressure   1.00000 Atm.
 Atom     1 has atomic number  6 and mass  12.00000

 Molecular mass:   143.13101 amu.
 Principal axes and moments of inertia in atomic units:
                           1         2         3
     Eigenvalues --   993.178072479.858112778.26580
           X            0.99999   0.00234  -0.00355
           Y           -0.00237   0.99997  -0.00761
           Z            0.00353   0.00762   0.99996
 This molecule is an asymmetric top.
 Rotational symmetry number  1.
 Warning -- assumption of classical behavior for rotation
           may cause significant error
 Rotational temperatures (Kelvin)      0.08721     0.03493     0.03118
 Rotational constants (GHZ):           1.81714     0.72776     0.64959
 Zero-point vibrational energy     644159.7 (Joules/Mol)
                                  153.95786 (Kcal/Mol)
 Warning -- explicit consideration of  19 degrees of freedom as
           vibrations may cause significant error
 Vibrational temperatures:     68.69    74.99   151.31   214.55   284.19
          (Kelvin)            306.51   329.43   342.27   358.55   389.54
                              422.70   444.70   451.50   469.39   534.93
                              584.93   662.20   790.74   826.72  1003.02
                             1098.58  1175.90  1294.67  1312.31  1354.81
                             1367.85  1409.00  1443.12  1465.79  1497.77
                             1527.58  1553.72  1592.93  1618.30  1671.05
                             1695.75  1746.11  1779.70  1815.54  1863.72
                             1932.38  1949.75  1961.99  2007.38  2026.06
                             2030.13  2056.48  2069.03  2075.98  2093.93
                             2171.96  2182.70  2188.74  2196.36  2211.99
                             2222.42  2419.52  2526.82  4332.34  4350.45
                             4361.99  4364.66  4368.48  4386.34  4432.09
                             4454.84  4464.44  4476.78  4485.39  4516.09
                             4540.83  4543.32  5013.22  5143.56  5395.70

 Zero-point correction=                           0.245347 (Hartree/Particle)
 Thermal correction to Energy=                    0.258095
 Thermal correction to Enthalpy=                  0.259039
 Thermal correction to Gibbs Free Energy=         0.206972
 Sum of electronic and zero-point Energies=           -444.827776
 Sum of electronic and thermal Energies=              -444.815029
 Sum of electronic and thermal Enthalpies=            -444.814085
 Sum of electronic and thermal Free Energies=         -444.866151

                     E (Thermal)             CV                S
                      KCal/Mol        Cal/Mol-Kelvin    Cal/Mol-Kelvin
 Total                  161.957             46.989            109.583
 Electronic               0.000              0.000              0.000
 Translational            0.889              2.981             40.787
 Rotational               0.889              2.981             30.304
 Vibrational            160.180             41.027             38.492
 Vibration     1          0.595              1.978              4.909
 Vibration     2          0.596              1.977              4.735
 Vibration     3          0.605              1.945              3.356
 Vibration     4          0.618              1.904              2.683
 Vibration     5          0.637              1.843              2.156
 Vibration     6          0.644              1.821              2.018
 Vibration     7          0.652              1.797              1.887
 Vibration     8          0.656              1.783              1.819
 Vibration     9          0.662              1.764              1.736
 Vibration    10          0.674              1.727              1.591
 Vibration    11          0.689              1.685              1.452
 Vibration    12          0.698              1.656              1.367
 Vibration    13          0.702              1.647              1.342
 Vibration    14          0.710              1.623              1.279
 Vibration    15          0.743              1.530              1.072
 Vibration    16          0.771              1.456              0.939
 Vibration    17          0.818              1.338              0.765
 Vibration    18          0.905              1.141              0.545
 Vibration    19          0.931              1.086              0.495

 Optimization completed.
    -- Stationary point found.
 Normal termination of Gaussian 16 at Tue Dec  8 12:29:21 2020.

 ----------------------------------------------------------------------
 # B3LYP/6-311++G(d,p) empiricaldispersion=gd3bj scf=xqc pop=npa geom=c
 heck
 ----------------------------------------------------------------------

 --------------------------------------
 CID_131549825_JID_511_Energie_neutraal
 --------------------------------------
 Structure from the checkpoint file:  "JID_511.chk"
 Charge =  0 Multiplicity = 1

 SCF Done:  E(RB3LYP) =  -445.219587308     A.U. after   14 cycles
 Normal termination of Gaussian 16 at Tue Dec  8 12:40:05 2020.

 ----------------------------------------------------------------------
 # B3LYP/6-311++G(d,p) empiricaldispersion=gd3bj scf=xqc pop=npa geom=c
 heck
 ----------------------------------------------------------------------

 ------------------------------------
 CID_131549825_JID_511_Energie_kation
 ------------------------------------
 Structure from the checkpoint file:  "JID_511.chk"
 Charge =  1 Multiplicity = 2

 SCF Done:  E(UB3LYP) =  -444.908503088     A.U. after   19 cycles
 Normal termination of Gaussian 16 at Tue Dec  8 12:50:22 2020.
 Gaussian 16:  ES64L-G16RevA.03 25-Dec-2016

 ----------------------------------------------------------------------
 # B3LYP/6-311++G(d,p) empiricaldispersion=gd3bj scf=xqc pop=npa geom=c
 heck
 ----------------------------------------------------------------------

 -----------------------------------
 CID_131549825_JID_511_Energie_anion
 -----------------------------------
 Structure from the checkpoint file:  "JID_511.chk"
 Charge = -1 Multiplicity = 2

                         Standard orientation:
 ---------------------------------------------------------------------
 Center     Atomic      Atomic             Coordinates (Angstroms)
 Number     Number       Type             X           Y           Z
 ---------------------------------------------------------------------
      1          6           0        3.853313   -1.007792    0.046223
      2          6           0        2.733186   -0.116927   -0.403172
      3          6           0        1.572533    0.045199    0.236806
      4          6           0        0.466550    0.941549   -0.241953
      5          6           0       -0.788039    0.195332   -0.737645
      6          6           0       -1.344202   -0.890164    0.226997
      7          6           0       -1.926618   -0.332377    1.531785
      8          6           0       -2.385526   -1.757164   -0.495655
      9          7           0       -1.741082    1.218174   -1.177482
     10          8           0        0.055612    1.835531    0.807925
     11          1           0        3.613659   -1.508621    0.989954
     12          1           0        4.782250   -0.438944    0.185929
     13          1           0        4.069046   -1.780435   -0.703801
     14          1           0        2.895913    0.429130   -1.334557
     15          1           0        1.391780   -0.479634    1.174933
     16          1           0        0.821023    1.531368   -1.100174
     17          1           0       -0.453110   -0.341273   -1.637029
     18          1           0       -0.500811   -1.548084    0.479014
     19          1           0       -2.762585    0.346585    1.323292
     20          1           0       -2.312626   -1.146170    2.156906
     21          1           0       -1.182792    0.229544    2.099680
     22          1           0       -1.982475   -2.185309   -1.421367
     23          1           0       -2.714913   -2.583970    0.143464
     24          1           0       -3.280357   -1.176702   -0.755362
     25          1           0       -2.616592    0.787907   -1.466668
     26          1           0       -1.946685    1.831097   -0.391349
     27          1           0        0.834769    2.356110    1.055794
 ---------------------------------------------------------------------

 SCF Done:  E(UB3LYP) =  -445.203713670     A.U. after   31 cycles

 The electronic state is 2-A.
 Alpha  occ. eigenvalues --  -19.01757 -14.18427 -10.11680 -10.09189 -10.07243
 Alpha  occ. eigenvalues --  -10.06762 -10.06266 -10.06196 -10.05640 -10.04721
 Alpha  occ. eigenvalues --   -0.91962  -0.78278  -0.69847  -0.68160  -0.62913
 Alpha  occ. eigenvalues --   -0.57956  -0.57033  -0.50876  -0.46567  -0.43896
 Alpha  occ. eigenvalues --   -0.42058  -0.38080  -0.36332  -0.35675  -0.33421
 Alpha  occ. eigenvalues --   -0.31645  -0.31329  -0.30822  -0.30527  -0.28570
 Alpha  occ. eigenvalues --   -0.27758  -0.26207  -0.25606  -0.25020  -0.23315
 Alpha  occ. eigenvalues --   -0.22594  -0.21113  -0.18081  -0.15082  -0.13630
 Alpha  occ. eigenvalues --    0.04631
 Alpha virt. eigenvalues --    0.06601   0.07478   0.08199   0.08915   0.09451
 Alpha virt. eigenvalues --    0.09667   0.10393   0.10788   0.11293   0.11716
 Alpha virt. eigenvalues --    0.12376   0.12521   0.13285   0.14112   0.14684

  Beta  occ. eigenvalues --  -19.01722 -14.18407 -10.11670 -10.09184 -10.07217
  Beta  occ. eigenvalues --  -10.06758 -10.06224 -10.06193 -10.05607 -10.04700
  Beta  occ. eigenvalues --   -0.91884  -0.78239  -0.69803  -0.68131  -0.62858
  Beta  occ. eigenvalues --   -0.57904  -0.56975  -0.50816  -0.46502  -0.43841
  Beta  occ. eigenvalues --   -0.42003  -0.38045  -0.36297  -0.35645  -0.33387
  Beta  occ. eigenvalues --   -0.31603  -0.31271  -0.30770  -0.30490  -0.28516
  Beta  occ. eigenvalues --   -0.27730  -0.26167  -0.25574  -0.24968  -0.23287
  Beta  occ. eigenvalues --   -0.22565  -0.21079  -0.18043  -0.15018  -0.13602
  Beta virt. eigenvalues --    0.06809   0.07589   0.08287   0.08668   0.09492
  Beta virt. eigenvalues --    0.09824   0.10294   0.10598   0.11242   0.11560
  Beta virt. eigenvalues --    0.12227   0.12668   0.12868   0.13452   0.14378

 Mulliken charges and spin densities:
               1          2
     1  C    2.574775  -3.401137
     2  C   -1.422401   1.403232
     3  C   -0.266843   0.022210
     4  C   -0.193473   0.424137
     5  C    1.595793  -2.057847
     6  C   -1.456049   1.814415
     7  C    0.312189  -1.094015
     8  C    0.525925  -1.201079
     9  N   -0.331260   0.055576
    10  O   -0.252920   0.032040
    11  H   -0.346437   0.483712
    12  H   -0.447784   0.596773
    13  H   -0.276675   0.423027
    14  H   -0.520375   0.653655
    15  H   -0.266884   0.445790
    16  H    0.117451   0.110937
    17  H    0.093678   0.124047
    18  H    0.145077   0.012980
    19  H    0.078404   0.076750
    20  H   -0.247075   0.381401
    21  H    0.150183   0.020541
    22  H   -0.269292   0.407881
    23  H   -0.152875   0.289795
    24  H   -0.171779   0.287316
    25  H    0.107648   0.108926
    26  H    0.049555   0.198665
    27  H   -0.128558   0.380273
 Sum of Mulliken charges =  -1.00000   1.00000

 Dipole moment (field-independent basis, Debye):
    X=             -3.6132    Y=              0.9582    Z=             -0.1870  Tot=              3.7428
 Quadrupole moment (field-independent basis, Debye-Ang):
   XX=           -135.8973   YY=           -104.7655   ZZ=            -98.7352
   XY=             -0.2626   XZ=             -2.1293   YZ=             -1.2640

 Summary of Natural Population Analysis:

                                       Natural Population
                Natural  -----------------------------------------------
    Atom  No    Charge         Core      Valence    Rydberg      Total
 -----------------------------------------------------------------------
      C    1   -0.29829      0.99965     2.29340    0.00524     3.29829
      C    2   -0.07219      0.99952     2.06315    0.00953     3.07219
      C    3   -0.11602      0.99948     2.10513    0.01142     3.11602
      C    4    0.04968      0.99950     1.93457    0.01625     2.95032
      C    5   -0.01123      0.99955     1.99792    0.01376     3.01123
      C    6   -0.12308      0.99959     2.11259    0.01090     3.12308
      C    7   -0.28931      0.99964     2.28404    0.00563     3.28931
      C    8   -0.28532      0.99965     2.27915    0.00652     3.28532
      N    9   -0.42615      0.99977     2.91598    0.01041     3.92615
      O   10   -0.37830      0.99989     3.37168    0.00673     4.37830
      H   11    0.10032      0.00000     0.39808    0.00160     0.39968
      H   12    0.10509      0.00000     0.39201    0.00291     0.39491
      H   13    0.10289      0.00000     0.39560    0.00151     0.39711
      H   14    0.08975      0.00000     0.40877    0.00148     0.41025
      H   15    0.09533      0.00000     0.40297    0.00169     0.40467
      H   16    0.08462      0.00000     0.41285    0.00253     0.41538
      H   17    0.09426      0.00000     0.40401    0.00173     0.40574
      H   18    0.09800      0.00000     0.39981    0.00218     0.40200
      H   19    0.09406      0.00000     0.40466    0.00127     0.40594
      H   20    0.09531      0.00000     0.40365    0.00105     0.40469
      H   21    0.11042      0.00000     0.38806    0.00152     0.38958
      H   22    0.09935      0.00000     0.39955    0.00110     0.40065
      H   23    0.10017      0.00000     0.39886    0.00098     0.39983
      H   24    0.09240      0.00000     0.40626    0.00134     0.40760
      H   25    0.17361      0.00000     0.32469    0.00170     0.32639
      H   26    0.18043      0.00000     0.31728    0.00230     0.31957
      H   27    0.23422      0.00000     0.26123    0.00455     0.26578
 =======================================================================
   * Total *    0.00000      9.99625    29.87593    0.12782    40.00000

 Normal termination of Gaussian 16 at Tue Dec  8 13:05:16 2020.
