 Gaussian 16, Revision A.03,

 -----------------------------------------------------------
 # opt freq B3LYP/6-31G(d) empiricaldispersion=gd3bj scf=xqc
 -----------------------------------------------------------

 ------------------------------
 CID_43213456_JID_6523_neutraal
 ------------------------------
 Symbolic Z-matrix:
 Charge =  0 Multiplicity = 1

 SCF Done:  E(RB3LYP) =  -1033.83192805     A.U. after   15 cycles
 SCF Done:  E(RB3LYP) =  -1033.82741788     A.U. after   13 cycles
 SCF Done:  E(RB3LYP) =  -1033.83488083     A.U. after   12 cycles
 SCF Done:  E(RB3LYP) =  -1033.83588029     A.U. after   12 cycles
 SCF Done:  E(RB3LYP) =  -1033.83629244     A.U. after   12 cycles
 SCF Done:  E(RB3LYP) =  -1033.83642715     A.U. after   12 cycles
 SCF Done:  E(RB3LYP) =  -1033.83651355     A.U. after   11 cycles
 SCF Done:  E(RB3LYP) =  -1033.83655428     A.U. after   10 cycles
 SCF Done:  E(RB3LYP) =  -1033.83655983     A.U. after   10 cycles
 SCF Done:  E(RB3LYP) =  -1033.83656214     A.U. after    9 cycles
 SCF Done:  E(RB3LYP) =  -1033.83656257     A.U. after    8 cycles
 SCF Done:  E(RB3LYP) =  -1033.83656270     A.U. after    8 cycles
 SCF Done:  E(RB3LYP) =  -1033.83656271     A.U. after    7 cycles
 Optimization completed.
    -- Stationary point found.
 Normal termination of Gaussian 16 at Thu Dec 10 23:24:59 2020.

 --------------------------------------------------------------------
 #N Geom=AllCheck Guess=TCheck SCRF=Check GenChk RB3LYP/6-31G(d) Freq
 --------------------------------------------------------------------

 Structure from the checkpoint file:  "JID_6523.chk"
 ------------------------------
 CID_43213456_JID_6523_neutraal
 ------------------------------
 Charge =  0 Multiplicity = 1

 SCF Done:  E(RB3LYP) =  -1033.83656271     A.U. after    1 cycles

  Exact polarizability: 197.648  38.596 145.384   1.852  -7.027 136.475
 Approx polarizability: 291.132  75.092 212.593  -0.359 -20.956 233.889

                      1                      2                      3
                      A                      A                      A
 Frequencies --     17.3347                26.5155                36.5372
 Red. masses --      5.3343                 2.7791                 3.8235
 Frc consts  --      0.0009                 0.0012                 0.0030
 IR Inten    --      0.4899                 0.0048                 0.6640

                      4                      5                      6
                      A                      A                      A
 Frequencies --     57.0466                78.7300               101.5713
 Red. masses --      4.2940                 3.1057                 2.7170
 Frc consts  --      0.0082                 0.0113                 0.0165
 IR Inten    --      0.5567                 0.6383                 0.6549

                      7                      8                      9
                      A                      A                      A
 Frequencies --    110.5635               138.2936               177.1193
 Red. masses --      7.0028                 7.7349                 4.7420
 Frc consts  --      0.0504                 0.0872                 0.0876
 IR Inten    --      6.1718                 3.8808                 1.7935

                     10                     11                     12
                      A                      A                      A
 Frequencies --    208.2716               231.2768               254.2445
 Red. masses --      2.3221                 1.2051                 2.5903
 Frc consts  --      0.0593                 0.0380                 0.0987
 IR Inten    --      3.4892                 0.1749                 0.7625

                     13                     14                     15
                      A                      A                      A
 Frequencies --    257.4600               289.3471               324.2886
 Red. masses --      2.3901                 2.8010                 2.8541
 Frc consts  --      0.0933                 0.1382                 0.1768
 IR Inten    --      0.6869                 2.5045                 0.4525

                     16                     17                     18
                      A                      A                      A
 Frequencies --    340.6030               369.3321               384.2936
 Red. masses --      2.2947                 5.2881                 3.3072
 Frc consts  --      0.1568                 0.4250                 0.2878
 IR Inten    --      0.5191                 0.7234                 0.8644

                     19                     20                     21
                      A                      A                      A
 Frequencies --    418.6847               422.5121               470.9968
 Red. masses --      2.9220                 2.2941                 4.1195
 Frc consts  --      0.3018                 0.2413                 0.5384
 IR Inten    --      0.2163                 0.2802                 2.8377

                     22                     23                     24
                      A                      A                      A
 Frequencies --    485.1418               509.4297               560.9073
 Red. masses --      3.3953                 3.8832                 5.4895
 Frc consts  --      0.4708                 0.5938                 1.0176
 IR Inten    --      3.5833                 3.7181                 4.0102

                     25                     26                     27
                      A                      A                      A
 Frequencies --    567.9548               652.9414               664.7712
 Red. masses --      3.4966                 4.8136                 5.7193
 Frc consts  --      0.6645                 1.2091                 1.4892
 IR Inten    --     14.6765                 0.5950                 1.6070

                     28                     29                     30
                      A                      A                      A
 Frequencies --    687.3269               703.0267               724.0873
 Red. masses --      3.4063                 5.0913                 4.5511
 Frc consts  --      0.9481                 1.4826                 1.4059
 IR Inten    --      6.3979                11.2878                 1.9406

                     31                     32                     33
                      A                      A                      A
 Frequencies --    792.7189               821.3919               832.7995
 Red. masses --      1.2577                 2.9852                 1.3914
 Frc consts  --      0.4656                 1.1866                 0.5686
 IR Inten    --      1.4201                 6.4639                 4.8674

                     34                     35                     36
                      A                      A                      A
 Frequencies --    851.9382               856.9537               876.6737
 Red. masses --      1.6772                 2.1714                 2.4158
 Frc consts  --      0.7172                 0.9395                 1.0939
 IR Inten    --     58.8572                 1.0898                 3.9166

                     37                     38                     39
                      A                      A                      A
 Frequencies --    960.7784               967.1768               970.5065
 Red. masses --      1.3082                 1.2922                 2.2294
 Frc consts  --      0.7115                 0.7122                 1.2372
 IR Inten    --      0.8202                 0.0367                 9.0183

                     40                     41                     42
                      A                      A                      A
 Frequencies --    984.4083              1004.5801              1034.4326
 Red. masses --      1.4787                 1.3820                 2.7277
 Frc consts  --      0.8443                 0.8217                 1.7197
 IR Inten    --      1.8292                 3.5380                 0.3646

                     43                     44                     45
                      A                      A                      A
 Frequencies --   1040.1171              1044.5019              1086.3798
 Red. masses --      2.0473                 1.9591                 3.4381
 Frc consts  --      1.3050                 1.2593                 2.3907
 IR Inten    --      3.7520                39.8959                34.7411

                     46                     47                     48
                      A                      A                      A
 Frequencies --   1091.9918              1149.7845              1157.4420
 Red. masses --      1.6340                 1.2965                 2.2064
 Frc consts  --      1.1480                 1.0099                 1.7415
 IR Inten    --     10.0244                 6.8069                 3.1091

                     49                     50                     51
                      A                      A                      A
 Frequencies --   1191.4947              1209.7182              1240.2949
 Red. masses --      1.8559                 1.2723                 2.5833
 Frc consts  --      1.5524                 1.0970                 2.3414
 IR Inten    --     11.3340                56.0701                 0.4705

                     52                     53                     54
                      A                      A                      A
 Frequencies --   1244.6758              1273.9781              1284.4407
 Red. masses --      1.3355                 1.5595                 1.2508
 Frc consts  --      1.2190                 1.4913                 1.2158
 IR Inten    --     23.7105                98.5443                23.5538

                     55                     56                     57
                      A                      A                      A
 Frequencies --   1309.1039              1320.6077              1344.0728
 Red. masses --      1.8733                 1.2521                 1.5849
 Frc consts  --      1.8915                 1.2866                 1.6869
 IR Inten    --    125.0454                35.1191                 3.2203

                     58                     59                     60
                      A                      A                      A
 Frequencies --   1345.6094              1371.1623              1383.2472
 Red. masses --      2.2621                 1.6895                 1.2833
 Frc consts  --      2.4133                 1.8714                 1.4467
 IR Inten    --      8.2247                97.0347                 1.6060

                     61                     62                     63
                      A                      A                      A
 Frequencies --   1401.9727              1424.8866              1436.0636
 Red. masses --      1.3972                 1.3086                 1.2641
 Frc consts  --      1.6180                 1.5654                 1.5359
 IR Inten    --      0.3949                13.0376                 6.7323

                     64                     65                     66
                      A                      A                      A
 Frequencies --   1443.1123              1469.1293              1478.0732
 Red. masses --      1.2207                 3.1608                 1.0877
 Frc consts  --      1.4978                 4.0195                 1.4001
 IR Inten    --      2.1466                 1.9091                 9.6095

                     67                     68                     69
                      A                      A                      A
 Frequencies --   1513.3184              1523.4835              1528.1948
 Red. masses --      1.0603                 1.0558                 1.0426
 Frc consts  --      1.4307                 1.4438                 1.4346
 IR Inten    --      1.3379                 3.3717                 4.7005

                     70                     71                     72
                      A                      A                      A
 Frequencies --   1533.6398              1538.0568              1548.7621
 Red. masses --      1.0951                 1.0657                 1.0438
 Frc consts  --      1.5176                 1.4853                 1.4751
 IR Inten    --      8.9390                 5.3986                 4.9525

                     73                     74                     75
                      A                      A                      A
 Frequencies --   1559.9726              1617.8750              1668.9833
 Red. masses --      2.5083                 6.6110                 5.6541
 Frc consts  --      3.5964                10.1955                 9.2794
 IR Inten    --    120.2635                10.1651               139.2957

                     76                     77                     78
                      A                      A                      A
 Frequencies --   2346.7814              3042.7592              3051.1680
 Red. masses --     12.6769                 1.0597                 1.0363
 Frc consts  --     41.1346                 5.7806                 5.6844
 IR Inten    --     62.5556                16.2013                18.4657

                     79                     80                     81
                      A                      A                      A
 Frequencies --   3057.2766              3057.8393              3076.4211
 Red. masses --      1.0398                 1.0607                 1.0692
 Frc consts  --      5.7261                 5.8436                 5.9621
 IR Inten    --     12.6058                45.9712                26.9807

                     82                     83                     84
                      A                      A                      A
 Frequencies --   3076.7283              3105.6811              3118.1166
 Red. masses --      1.0941                 1.0896                 1.1026
 Frc consts  --      6.1022                 6.1921                 6.3161
 IR Inten    --     17.0110                 1.8232                 4.7926

                     85                     86                     87
                      A                      A                      A
 Frequencies --   3119.2710              3121.9244              3127.0572
 Red. masses --      1.1018                 1.0987                 1.1008
 Frc consts  --      6.3162                 6.3091                 6.3420
 IR Inten    --     33.4624                34.5719                24.6431

                     88                     89                     90
                      A                      A                      A
 Frequencies --   3132.9522              3141.9141              3213.9552
 Red. masses --      1.1020                 1.1002                 1.0884
 Frc consts  --      6.3728                 6.3988                 6.6240
 IR Inten    --     20.5528                21.6174                 3.6700

                     91                     92                     93
                      A                      A                      A
 Frequencies --   3216.3957              3228.7740              3241.3256
 Red. masses --      1.0902                 1.0955                 1.0924
 Frc consts  --      6.6450                 6.7285                 6.7622
 IR Inten    --      2.5777                 3.4617                 1.1498

 - Thermochemistry -
 -------------------
 Temperature   298.150 Kelvin.  Pressure   1.00000 Atm.
 Atom     1 has atomic number  6 and mass  12.00000

 Molecular mass:   235.10309 amu.
 Principal axes and moments of inertia in atomic units:
                           1         2         3
     Eigenvalues --  2767.449466024.153797418.22098
           X            0.99991  -0.01269  -0.00532
           Y            0.01280   0.99971   0.02030
           Z            0.00506  -0.02036   0.99978
 This molecule is an asymmetric top.
 Rotational symmetry number  1.
 Warning -- assumption of classical behavior for rotation
           may cause significant error
 Rotational temperatures (Kelvin)      0.03130     0.01438     0.01168
 Rotational constants (GHZ):           0.65213     0.29958     0.24328
 Zero-point vibrational energy     726584.6 (Joules/Mol)
                                  173.65788 (Kcal/Mol)
 Warning -- explicit consideration of  25 degrees of freedom as
           vibrations may cause significant error
 Vibrational temperatures:     24.94    38.15    52.57    82.08   113.27
          (Kelvin)            146.14   159.08   198.97   254.84   299.66
                              332.76   365.80   370.43   416.31   466.58
                              490.05   531.39   552.91   602.39   607.90
                              677.66   698.01   732.96   807.02   817.16
                              939.44   956.46   988.91  1011.50  1041.80
                             1140.55  1181.80  1198.21  1225.75  1232.97
                             1261.34  1382.35  1391.55  1396.34  1416.34
                             1445.37  1488.32  1496.50  1502.81  1563.06
                             1571.13  1654.28  1665.30  1714.30  1740.51
                             1784.51  1790.81  1832.97  1848.02  1883.51
                             1900.06  1933.82  1936.03  1972.80  1990.18
                             2017.13  2050.09  2066.18  2076.32  2113.75
                             2126.62  2177.33  2191.95  2198.73  2206.57
                             2212.92  2228.32  2244.45  2327.76  2401.29
                             3376.50  4377.85  4389.95  4398.74  4399.55
                             4426.28  4426.73  4468.38  4486.27  4487.94
                             4491.75  4499.14  4507.62  4520.51  4624.16
                             4627.68  4645.49  4663.54

 Zero-point correction=                           0.276741 (Hartree/Particle)
 Thermal correction to Energy=                    0.293657
 Thermal correction to Enthalpy=                  0.294602
 Thermal correction to Gibbs Free Energy=         0.229656
 Sum of electronic and zero-point Energies=          -1033.559821
 Sum of electronic and thermal Energies=             -1033.542905
 Sum of electronic and thermal Enthalpies=           -1033.541961
 Sum of electronic and thermal Free Energies=        -1033.606907

                     E (Thermal)             CV                S
                      KCal/Mol        Cal/Mol-Kelvin    Cal/Mol-Kelvin
 Total                  184.273             62.357            136.690
 Electronic               0.000              0.000              0.000
 Translational            0.889              2.981             42.266
 Rotational               0.889              2.981             33.180
 Vibrational            182.495             56.396             61.243
 Vibration     1          0.593              1.986              6.918
 Vibration     2          0.593              1.984              6.074
 Vibration     3          0.594              1.982              5.439
 Vibration     4          0.596              1.975              4.557
 Vibration     5          0.600              1.963              3.922
 Vibration     6          0.604              1.948              3.424
 Vibration     7          0.606              1.941              3.259
 Vibration     8          0.614              1.915              2.827
 Vibration     9          0.628              1.871              2.359
 Vibration    10          0.642              1.828              2.059
 Vibration    11          0.653              1.793              1.869
 Vibration    12          0.665              1.756              1.701
 Vibration    13          0.667              1.750              1.679
 Vibration    14          0.686              1.694              1.478
 Vibration    15          0.709              1.627              1.288
 Vibration    16          0.720              1.594              1.209
 Vibration    17          0.742              1.535              1.083
 Vibration    18          0.753              1.504              1.022
 Vibration    19          0.782              1.430              0.896
 Vibration    20          0.785              1.421              0.883
 Vibration    21          0.828              1.314              0.735
 Vibration    22          0.841              1.283              0.696
 Vibration    23          0.865              1.229              0.635
 Vibration    24          0.917              1.116              0.522
 Vibration    25          0.924              1.101              0.508

                           ! Non-Optimized Parameters !
 Normal termination of Gaussian 16 at Thu Dec 10 23:36:02 2020.

 ----------------------------------------------------------------------
 # B3LYP/6-311++G(d,p) empiricaldispersion=gd3bj scf=xqc pop=npa geom=c
 heck
 ----------------------------------------------------------------------

 --------------------------------------
 CID_43213456_JID_6523_Energie_neutraal
 --------------------------------------
 Structure from the checkpoint file:  "JID_6523.chk"
 Charge =  0 Multiplicity = 1

 SCF Done:  E(RB3LYP) =  -1034.03574923     A.U. after   15 cycles
 Normal termination of Gaussian 16 at Thu Dec 10 23:41:00 2020.

 ----------------------------------------------------------------------
 # B3LYP/6-311++G(d,p) empiricaldispersion=gd3bj scf=xqc pop=npa geom=c
 heck
 ----------------------------------------------------------------------

 ------------------------------------
 CID_43213456_JID_6523_Energie_kation
 ------------------------------------
 Structure from the checkpoint file:  "JID_6523.chk"
 Charge =  1 Multiplicity = 2

 SCF Done:  E(UB3LYP) =  -1033.73689609     A.U. after   24 cycles
 Normal termination of Gaussian 16 at Thu Dec 10 23:51:58 2020.
 Gaussian 16:  ES64L-G16RevA.03 25-Dec-2016

 ----------------------------------------------------------------------
 # B3LYP/6-311++G(d,p) empiricaldispersion=gd3bj scf=xqc pop=npa geom=c
 heck
 ----------------------------------------------------------------------

 -----------------------------------
 CID_43213456_JID_6523_Energie_anion
 -----------------------------------
 Structure from the checkpoint file:  "JID_6523.chk"
 Charge = -1 Multiplicity = 2

                         Standard orientation:
 ---------------------------------------------------------------------
 Center     Atomic      Atomic             Coordinates (Angstroms)
 Number     Number       Type             X           Y           Z
 ---------------------------------------------------------------------
      1          6           0       -1.027198    3.479928    0.423348
      2          6           0       -1.897154    2.479494   -0.344833
      3          6           0       -1.789139    1.047385    0.203660
      4          6           0       -2.417584    0.879847    1.583310
      5         16           0       -2.579307   -0.030639   -1.086001
      6          6           0       -2.693918   -1.688801   -0.318664
      7          6           0       -1.409889   -2.504337   -0.241322
      8          8           0       -0.500640   -1.986469    0.736229
      9          6           0        0.649235   -1.358984    0.372818
     10          6           0        0.926750   -0.863251   -0.909280
     11          6           0        2.131591   -0.210755   -1.147299
     12          6           0        3.070565   -0.037990   -0.119703
     13          6           0        2.779501   -0.529924    1.165743
     14          6           0        1.582687   -1.183958    1.406574
     15          6           0        4.303833    0.639704   -0.372909
     16          7           0        5.307229    1.192495   -0.577662
     17          1           0       -1.341193    3.580590    1.467505
     18          1           0       -1.086970    4.472665   -0.035123
     19          1           0        0.024847    3.171107    0.417031
     20          1           0       -2.948171    2.794729   -0.325873
     21          1           0       -1.589217    2.480938   -1.398349
     22          1           0       -0.730103    0.782403    0.252485
     23          1           0       -3.497267    1.063443    1.549610
     24          1           0       -2.240722   -0.121839    1.984069
     25          1           0       -1.969710    1.589410    2.287615
     26          1           0       -3.146912   -1.613446    0.673547
     27          1           0       -3.402928   -2.232328   -0.953701
     28          1           0       -1.654225   -3.516208    0.103638
     29          1           0       -0.928643   -2.587734   -1.219084
     30          1           0        0.193088   -0.931755   -1.702378
     31          1           0        2.343383    0.182266   -2.136102
     32          1           0        3.499792   -0.397141    1.966008
     33          1           0        1.342703   -1.572724    2.390257
 ---------------------------------------------------------------------

 SCF Done:  E(UB3LYP) =  -1034.03655678     A.U. after   30 cycles

 The electronic state is 2-A.
 Alpha  occ. eigenvalues --  -88.73959 -19.04722 -14.17645 -10.13165 -10.11555
 Alpha  occ. eigenvalues --  -10.10689 -10.10458 -10.08428 -10.07840 -10.07643
 Alpha  occ. eigenvalues --  -10.07402 -10.07192 -10.07105 -10.06762 -10.06385
 Alpha  occ. eigenvalues --  -10.06248  -7.82588  -5.78984  -5.78606  -5.77963
 Alpha  occ. eigenvalues --   -0.96386  -0.78022  -0.74849  -0.73461  -0.69663
 Alpha  occ. eigenvalues --   -0.65601  -0.64550  -0.63715  -0.59984  -0.56296
 Alpha  occ. eigenvalues --   -0.52487  -0.51373  -0.49213  -0.46569  -0.44211
 Alpha  occ. eigenvalues --   -0.42533  -0.38904  -0.37981  -0.36766  -0.36045
 Alpha  occ. eigenvalues --   -0.34309  -0.33958  -0.32907  -0.32283  -0.31971
 Alpha  occ. eigenvalues --   -0.30503  -0.29773  -0.28899  -0.28527  -0.28274
 Alpha  occ. eigenvalues --   -0.26546  -0.25472  -0.25384  -0.24805  -0.23970
 Alpha  occ. eigenvalues --   -0.23521  -0.22410  -0.20802  -0.20735  -0.19920
 Alpha  occ. eigenvalues --   -0.15575  -0.13245  -0.11927   0.03996
 Alpha virt. eigenvalues --    0.06117   0.06531   0.07878   0.08278   0.08803
 Alpha virt. eigenvalues --    0.09050   0.09139   0.09769   0.10001   0.10877
 Alpha virt. eigenvalues --    0.11440   0.12195   0.12542   0.12984   0.13176

  Beta  occ. eigenvalues --  -88.73956 -19.04684 -14.17446 -10.13141 -10.11231
  Beta  occ. eigenvalues --  -10.10690 -10.10422 -10.08426 -10.07826 -10.07633
  Beta  occ. eigenvalues --  -10.07220 -10.07113 -10.07089 -10.06604 -10.06452
  Beta  occ. eigenvalues --  -10.06284  -7.82586  -5.78981  -5.78601  -5.77961
  Beta  occ. eigenvalues --   -0.96227  -0.77709  -0.74579  -0.73440  -0.69567
  Beta  occ. eigenvalues --   -0.65368  -0.64351  -0.63569  -0.59899  -0.56211
  Beta  occ. eigenvalues --   -0.52336  -0.51078  -0.49064  -0.46526  -0.44090
  Beta  occ. eigenvalues --   -0.42387  -0.38801  -0.37949  -0.36709  -0.35876
  Beta  occ. eigenvalues --   -0.34191  -0.33905  -0.32782  -0.32231  -0.31920
  Beta  occ. eigenvalues --   -0.30417  -0.29714  -0.28716  -0.28327  -0.27886
  Beta  occ. eigenvalues --   -0.26450  -0.25369  -0.24855  -0.24625  -0.23650
  Beta  occ. eigenvalues --   -0.23486  -0.22309  -0.20655  -0.20515  -0.19501
  Beta  occ. eigenvalues --   -0.15003  -0.13149  -0.10938
  Beta virt. eigenvalues --    0.06282   0.07149   0.08011   0.08281   0.08692
  Beta virt. eigenvalues --    0.08986   0.09066   0.09393   0.09996   0.10045
  Beta virt. eigenvalues --    0.10822   0.11529   0.12173   0.12531   0.13078

 Mulliken charges and spin densities:
               1          2
     1  C   -0.280940  -0.300312
     2  C   -0.219847  -0.019162
     3  C    0.137625   0.495610
     4  C   -0.250835  -0.590428
     5  S   -0.307392   0.056976
     6  C    0.460871  -0.727044
     7  C    0.303309  -0.555916
     8  O    0.012485  -0.002134
     9  C   -0.970670   0.411374
    10  C    0.883621  -0.378607
    11  C   -0.276067   0.078498
    12  C    1.667780   0.018488
    13  C   -0.198613   0.187473
    14  C   -0.524778   0.325948
    15  C   -1.657866  -0.205126
    16  N   -0.291320   0.112896
    17  H    0.048802   0.085456
    18  H    0.078525   0.059012
    19  H    0.090515   0.064598
    20  H    0.080487   0.050428
    21  H    0.092785   0.046202
    22  H    0.334237  -0.224850
    23  H   -0.037276   0.206812
    24  H    0.116477   0.027548
    25  H    0.070348   0.028930
    26  H    0.119042   0.081255
    27  H   -0.560422   0.784507
    28  H   -0.526181   0.709741
    29  H    0.057195   0.071870
    30  H    0.145748  -0.003052
    31  H    0.159277   0.020922
    32  H    0.151647   0.018179
    33  H    0.091431   0.063908
 Sum of Mulliken charges =  -1.00000   1.00000

 Dipole moment (field-independent basis, Debye):
    X=             -4.1382    Y=              1.8644    Z=              1.1906  Tot=              4.6923
 Quadrupole moment (field-independent basis, Debye-Ang):
   XX=           -200.6984   YY=           -144.8125   ZZ=           -122.1679
   XY=            -23.3433   XZ=              3.7368   YZ=             -0.5423

 Summary of Natural Population Analysis:

                                       Natural Population
                Natural  -----------------------------------------------
    Atom  No    Charge         Core      Valence    Rydberg      Total
 -----------------------------------------------------------------------
      C    1   -0.28561      0.99966     2.28143    0.00451     3.28561
      C    2   -0.19351      0.99961     2.18632    0.00758     3.19351
      C    3   -0.17103      0.99956     2.15784    0.01363     3.17103
      C    4   -0.29400      0.99963     2.28789    0.00648     3.29400
      S    5    0.08342      4.99960     2.90006    0.01692     7.91658
      C    6   -0.26680      0.99957     2.25537    0.01185     3.26680
      C    7   -0.01310      0.99953     1.99978    0.01378     3.01310
      O    8   -0.27964      0.99985     3.26943    0.01036     4.27964
      C    9    0.21496      0.99938     1.77243    0.01323     2.78504
      C   10   -0.16607      0.99952     2.15938    0.00717     3.16607
      C   11   -0.03953      0.99955     2.03036    0.00962     3.03953
      C   12   -0.08624      0.99942     2.07755    0.00927     3.08624
      C   13   -0.05910      0.99955     2.04949    0.01007     3.05910
      C   14   -0.13601      0.99953     2.12748    0.00901     3.13601
      C   15    0.15246      0.99964     1.82995    0.01795     2.84754
      N   16   -0.17821      0.99979     2.66756    0.01086     3.67821
      H   17    0.09548      0.00000     0.40354    0.00098     0.40452
      H   18    0.09709      0.00000     0.40211    0.00080     0.40291
      H   19    0.10295      0.00000     0.39608    0.00097     0.39705
      H   20    0.09539      0.00000     0.40341    0.00120     0.40461
      H   21    0.10072      0.00000     0.39816    0.00112     0.39928
      H   22    0.10877      0.00000     0.38829    0.00294     0.39123
      H   23    0.09809      0.00000     0.40083    0.00108     0.40191
      H   24    0.10710      0.00000     0.39171    0.00119     0.39290
      H   25    0.10096      0.00000     0.39807    0.00096     0.39904
      H   26    0.10546      0.00000     0.39301    0.00152     0.39454
      H   27    0.11261      0.00000     0.38517    0.00222     0.38739
      H   28    0.09401      0.00000     0.40376    0.00222     0.40599
      H   29    0.08862      0.00000     0.40967    0.00171     0.41138
      H   30    0.10830      0.00000     0.38978    0.00191     0.39170
      H   31    0.09899      0.00000     0.40021    0.00079     0.40101
      H   32    0.09967      0.00000     0.39954    0.00079     0.40033
      H   33    0.10378      0.00000     0.39525    0.00097     0.39622
 =======================================================================
   * Total *   -0.00000     19.99340    42.81092    0.19568    63.00000

 Normal termination of Gaussian 16 at Fri Dec 11 00:05:58 2020.
