 Gaussian 16, Revision A.03,

 -----------------------------------------------------------
 # opt freq B3LYP/6-31G(d) empiricaldispersion=gd3bj scf=xqc
 -----------------------------------------------------------

 -------------------------------
 CID_104085843_JID_5318_neutraal
 -------------------------------
 Symbolic Z-matrix:
 Charge =  0 Multiplicity = 1

 SCF Done:  E(RB3LYP) =  -1011.77111623     A.U. after   14 cycles
 SCF Done:  E(RB3LYP) =  -1011.77543134     A.U. after   12 cycles
 SCF Done:  E(RB3LYP) =  -1011.77534272     A.U. after   12 cycles
 SCF Done:  E(RB3LYP) =  -1011.77529980     A.U. after   13 cycles
 SCF Done:  E(RB3LYP) =  -1011.77604771     A.U. after   12 cycles
 SCF Done:  E(RB3LYP) =  -1011.77612756     A.U. after   11 cycles
 SCF Done:  E(RB3LYP) =  -1011.77614597     A.U. after   11 cycles
 SCF Done:  E(RB3LYP) =  -1011.77615475     A.U. after   10 cycles
 SCF Done:  E(RB3LYP) =  -1011.77615834     A.U. after    9 cycles
 SCF Done:  E(RB3LYP) =  -1011.77616267     A.U. after   10 cycles
 SCF Done:  E(RB3LYP) =  -1011.77616384     A.U. after    8 cycles
 SCF Done:  E(RB3LYP) =  -1011.77616412     A.U. after    7 cycles
 SCF Done:  E(RB3LYP) =  -1011.77616425     A.U. after    7 cycles
 SCF Done:  E(RB3LYP) =  -1011.77616432     A.U. after    7 cycles
 SCF Done:  E(RB3LYP) =  -1011.77616435     A.U. after    7 cycles
 Optimization completed.
    -- Stationary point found.
 Normal termination of Gaussian 16 at Thu Dec 10 15:30:37 2020.

 --------------------------------------------------------------------
 #N Geom=AllCheck Guess=TCheck SCRF=Check GenChk RB3LYP/6-31G(d) Freq
 --------------------------------------------------------------------

 Structure from the checkpoint file:  "JID_5318.chk"
 -------------------------------
 CID_104085843_JID_5318_neutraal
 -------------------------------
 Charge =  0 Multiplicity = 1

 SCF Done:  E(RB3LYP) =  -1011.77616435     A.U. after    1 cycles

  Exact polarizability: 199.154   2.730 140.733   6.677  -4.471 110.610
 Approx polarizability: 273.407  -2.411 234.501  21.321 -10.103 178.881

                      1                      2                      3
                      A                      A                      A
 Frequencies --     33.6855                48.6212                52.8086
 Red. masses --      4.3333                 4.2158                 4.9913
 Frc consts  --      0.0029                 0.0059                 0.0082
 IR Inten    --      1.9067                 1.7568                 3.3997

                      4                      5                      6
                      A                      A                      A
 Frequencies --     57.1986               110.0791               125.6935
 Red. masses --      4.4860                 4.0963                 1.0921
 Frc consts  --      0.0086                 0.0292                 0.0102
 IR Inten    --      1.2586                 1.0911                 0.5427

                      7                      8                      9
                      A                      A                      A
 Frequencies --    148.3006               189.4719               210.6864
 Red. masses --      4.7187                 3.1598                 3.5259
 Frc consts  --      0.0611                 0.0668                 0.0922
 IR Inten    --      1.5642                 3.5160                 3.2286

                     10                     11                     12
                      A                      A                      A
 Frequencies --    228.5786               237.2731               250.9375
 Red. masses --      1.6254                 1.6746                 3.1417
 Frc consts  --      0.0500                 0.0555                 0.1166
 IR Inten    --      0.5232                 1.1453                 2.5091

                     13                     14                     15
                      A                      A                      A
 Frequencies --    271.5033               299.0219               325.5141
 Red. masses --      4.5174                 5.9674                 3.1775
 Frc consts  --      0.1962                 0.3144                 0.1984
 IR Inten    --      2.4594                 1.9822                 0.5512

                     16                     17                     18
                      A                      A                      A
 Frequencies --    388.1266               408.4617               447.7115
 Red. masses --      3.5944                 2.2470                 1.2135
 Frc consts  --      0.3190                 0.2209                 0.1433
 IR Inten    --      3.0384                12.0130                63.4808

                     19                     20                     21
                      A                      A                      A
 Frequencies --    452.7328               459.9807               488.5523
 Red. masses --      1.2389                 3.1128                 4.0532
 Frc consts  --      0.1496                 0.3880                 0.5700
 IR Inten    --     48.2397                 4.6699                 1.8282

                     22                     23                     24
                      A                      A                      A
 Frequencies --    500.7012               508.8678               547.1488
 Red. masses --      3.7922                 3.6618                 4.1114
 Frc consts  --      0.5601                 0.5587                 0.7252
 IR Inten    --      6.2656                10.2445                 6.6965

                     25                     26                     27
                      A                      A                      A
 Frequencies --    586.5789               591.5275               621.1498
 Red. masses --      3.6116                 1.8562                 2.3772
 Frc consts  --      0.7322                 0.3827                 0.5404
 IR Inten    --     20.7326               126.0524                57.3057

                     28                     29                     30
                      A                      A                      A
 Frequencies --    657.7753               729.7860               748.0352
 Red. masses --      4.3952                 4.1719                 4.4004
 Frc consts  --      1.1204                 1.3091                 1.4507
 IR Inten    --      5.3416                38.3386                13.6611

                     31                     32                     33
                      A                      A                      A
 Frequencies --    767.4611               848.0589               870.1079
 Red. masses --      4.4719                 1.3062                 1.2388
 Frc consts  --      1.5519                 0.5535                 0.5526
 IR Inten    --     16.2908                30.9905                10.8115

                     34                     35                     36
                      A                      A                      A
 Frequencies --    898.4536               903.5451               934.6652
 Red. masses --      4.9288                 1.9896                 1.2965
 Frc consts  --      2.3442                 0.9570                 0.6673
 IR Inten    --     11.4860                 6.1134                 6.3167

                     37                     38                     39
                      A                      A                      A
 Frequencies --    941.7196               973.2140              1033.8539
 Red. masses --      1.2614                 1.3117                 1.5416
 Frc consts  --      0.6591                 0.7320                 0.9708
 IR Inten    --      6.5204                 0.3975                 0.7478

                     40                     41                     42
                      A                      A                      A
 Frequencies --   1045.8476              1078.0900              1094.9263
 Red. masses --      1.8508                 1.5176                 3.2176
 Frc consts  --      1.1927                 1.0393                 2.2728
 IR Inten    --     10.8400                 2.8892                22.0057

                     43                     44                     45
                      A                      A                      A
 Frequencies --   1096.4628              1121.9161              1138.2890
 Red. masses --      3.2970                 2.3450                 2.0610
 Frc consts  --      2.3354                 1.7390                 1.5734
 IR Inten    --     81.0610                30.8543                 8.0994

                     46                     47                     48
                      A                      A                      A
 Frequencies --   1149.2875              1161.8921              1175.8152
 Red. masses --      1.8397                 2.0841                 1.3730
 Frc consts  --      1.4317                 1.6577                 1.1184
 IR Inten    --      7.9984                 6.9753                35.5605

                     49                     50                     51
                      A                      A                      A
 Frequencies --   1210.8378              1225.8792              1243.7866
 Red. masses --      1.7064                 1.1308                 2.3716
 Frc consts  --      1.4740                 1.0012                 2.1616
 IR Inten    --     55.0937                29.4058                16.4559

                     52                     53                     54
                      A                      A                      A
 Frequencies --   1308.6111              1319.9771              1322.6871
 Red. masses --      1.3000                 1.3082                 1.3313
 Frc consts  --      1.3116                 1.3430                 1.3723
 IR Inten    --     27.6874                 4.7825                 3.4571

                     55                     56                     57
                      A                      A                      A
 Frequencies --   1332.7136              1388.0270              1418.0571
 Red. masses --      9.3212                 1.1807                 2.5779
 Frc consts  --      9.7543                 1.3403                 3.0543
 IR Inten    --      1.3426                29.0922                36.8486

                     58                     59                     60
                      A                      A                      A
 Frequencies --   1436.6020              1448.5064              1456.1148
 Red. masses --      1.2570                 1.3289                 2.0319
 Frc consts  --      1.5285                 1.6428                 2.5383
 IR Inten    --      1.3001                14.3788               111.1794

                     61                     62                     63
                      A                      A                      A
 Frequencies --   1457.6338              1510.4928              1517.5036
 Red. masses --      1.4347                 1.1732                 1.0810
 Frc consts  --      1.7961                 1.5771                 1.4667
 IR Inten    --     68.4829                19.6373                 9.3064

                     64                     65                     66
                      A                      A                      A
 Frequencies --   1520.4047              1528.5425              1535.1579
 Red. masses --      1.0441                 1.0521                 2.1026
 Frc consts  --      1.4221                 1.4483                 2.9195
 IR Inten    --      6.2389                 2.1425                 5.8595

                     67                     68                     69
                      A                      A                      A
 Frequencies --   1543.9705              1605.5862              1648.8127
 Red. masses --      1.0848                 6.7815                 1.3902
 Frc consts  --      1.5236                10.3001                 2.2268
 IR Inten    --      2.6938                 2.5061                71.1540

                     70                     71                     72
                      A                      A                      A
 Frequencies --   1652.1059              1717.2749              3005.5039
 Red. masses --      5.4330                 4.2440                 1.0690
 Frc consts  --      8.7370                 7.3741                 5.6893
 IR Inten    --     26.0971               185.7501                42.8665

                     73                     74                     75
                      A                      A                      A
 Frequencies --   3051.2973              3062.8992              3071.7078
 Red. masses --      1.0389                 1.0362                 1.0853
 Frc consts  --      5.6989                 5.7275                 6.0331
 IR Inten    --     21.3823                18.8022                11.0859

                     76                     77                     78
                      A                      A                      A
 Frequencies --   3083.3417              3117.7627              3122.6316
 Red. masses --      1.0930                 1.0984                 1.1001
 Frc consts  --      6.1224                 6.2907                 6.3203
 IR Inten    --     40.0754                26.7834                12.5863

                     79                     80                     81
                      A                      A                      A
 Frequencies --   3139.6592              3141.9799              3196.9836
 Red. masses --      1.1036                 1.1029                 1.0888
 Frc consts  --      6.4098                 6.4148                 6.5568
 IR Inten    --     13.3728                16.3049                 6.9931

                     82                     83                     84
                      A                      A                      A
 Frequencies --   3198.4705              3219.3124              3479.4980
 Red. masses --      1.0902                 1.0942                 1.0749
 Frc consts  --      6.5714                 6.6812                 7.6677
 IR Inten    --      1.1893                 4.8505                 2.2680

                     85                     86                     87
                      A                      A                      A
 Frequencies --   3549.7457              3646.4514              3664.0083
 Red. masses --      1.0468                 1.0651                 1.0999
 Frc consts  --      7.7714                 8.3439                 8.7000
 IR Inten    --     24.0210                46.7868                15.3466

 - Thermochemistry -
 -------------------
 Temperature   298.150 Kelvin.  Pressure   1.00000 Atm.
 Atom     1 has atomic number  6 and mass  12.00000

 Molecular mass:   224.09834 amu.
 Principal axes and moments of inertia in atomic units:
                           1         2         3
     Eigenvalues --  1736.924666295.475086929.53231
           X            0.99981   0.01239  -0.01485
           Y           -0.01289   0.99934  -0.03407
           Z            0.01442   0.03426   0.99931
 This molecule is an asymmetric top.
 Rotational symmetry number  1.
 Warning -- assumption of classical behavior for rotation
           may cause significant error
 Rotational temperatures (Kelvin)      0.04987     0.01376     0.01250
 Rotational constants (GHZ):           1.03904     0.28667     0.26044
 Zero-point vibrational energy     682234.2 (Joules/Mol)
                                  163.05789 (Kcal/Mol)
 Warning -- explicit consideration of  26 degrees of freedom as
           vibrations may cause significant error
 Vibrational temperatures:     48.47    69.96    75.98    82.30   158.38
          (Kelvin)            180.84   213.37   272.61   303.13   328.87
                              341.38   361.04   390.63   430.23   468.34
                              558.43   587.69   644.16   651.38   661.81
                              702.92   720.40   732.15   787.23   843.96
                              851.08   893.70   946.39  1050.00  1076.26
                             1104.21  1220.17  1251.89  1292.67  1300.00
                             1344.77  1354.92  1400.24  1487.49  1504.74
                             1551.13  1575.35  1577.57  1614.19  1637.74
                             1653.57  1671.70  1691.74  1742.13  1763.77
                             1789.53  1882.80  1899.15  1903.05  1917.48
                             1997.06  2040.27  2066.95  2084.08  2095.02
                             2097.21  2173.26  2183.35  2187.52  2199.23
                             2208.75  2221.43  2310.08  2372.27  2377.01
                             2470.78  4324.25  4390.14  4406.83  4419.50
                             4436.24  4485.77  4492.77  4517.27  4520.61
                             4599.75  4601.89  4631.87  5006.22  5107.29
                             5246.43  5271.69

 Zero-point correction=                           0.259849 (Hartree/Particle)
 Thermal correction to Energy=                    0.275923
 Thermal correction to Enthalpy=                  0.276867
 Thermal correction to Gibbs Free Energy=         0.215681
 Sum of electronic and zero-point Energies=          -1011.516315
 Sum of electronic and thermal Energies=             -1011.500241
 Sum of electronic and thermal Enthalpies=           -1011.499297
 Sum of electronic and thermal Free Energies=        -1011.560483

                     E (Thermal)             CV                S
                      KCal/Mol        Cal/Mol-Kelvin    Cal/Mol-Kelvin
 Total                  173.144             60.262            128.776
 Electronic               0.000              0.000              0.000
 Translational            0.889              2.981             42.123
 Rotational               0.889              2.981             32.694
 Vibrational            171.367             54.300             53.959
 Vibration     1          0.594              1.983              5.600
 Vibration     2          0.595              1.978              4.873
 Vibration     3          0.596              1.976              4.709
 Vibration     4          0.596              1.975              4.552
 Vibration     5          0.606              1.941              3.268
 Vibration     6          0.611              1.927              3.011
 Vibration     7          0.618              1.905              2.694
 Vibration     8          0.633              1.854              2.233
 Vibration     9          0.643              1.825              2.038
 Vibration    10          0.651              1.797              1.890
 Vibration    11          0.656              1.784              1.823
 Vibration    12          0.663              1.761              1.724
 Vibration    13          0.675              1.726              1.587
 Vibration    14          0.692              1.676              1.422
 Vibration    15          0.710              1.624              1.282
 Vibration    16          0.756              1.496              1.007
 Vibration    17          0.773              1.452              0.932
 Vibration    18          0.807              1.366              0.803
 Vibration    19          0.811              1.355              0.788
 Vibration    20          0.818              1.339              0.766
 Vibration    21          0.844              1.275              0.687
 Vibration    22          0.856              1.248              0.656
 Vibration    23          0.864              1.230              0.636
 Vibration    24          0.902              1.146              0.550
 Vibration    25          0.944              1.060              0.473
 Vibration    26          0.949              1.050              0.464

                           ! Non-Optimized Parameters !
 Normal termination of Gaussian 16 at Thu Dec 10 15:40:09 2020.

 ----------------------------------------------------------------------
 # B3LYP/6-311++G(d,p) empiricaldispersion=gd3bj scf=xqc pop=npa geom=c
 heck
 ----------------------------------------------------------------------

 ---------------------------------------
 CID_104085843_JID_5318_Energie_neutraal
 ---------------------------------------
 Structure from the checkpoint file:  "JID_5318.chk"
 Charge =  0 Multiplicity = 1

 SCF Done:  E(RB3LYP) =  -1011.99047287     A.U. after   17 cycles
 Normal termination of Gaussian 16 at Thu Dec 10 15:44:45 2020.

 ----------------------------------------------------------------------
 # B3LYP/6-311++G(d,p) empiricaldispersion=gd3bj scf=xqc pop=npa geom=c
 heck
 ----------------------------------------------------------------------

 -------------------------------------
 CID_104085843_JID_5318_Energie_kation
 -------------------------------------
 Structure from the checkpoint file:  "JID_5318.chk"
 Charge =  1 Multiplicity = 2

 SCF Done:  E(UB3LYP) =  -1011.68187999     A.U. after   32 cycles
 Normal termination of Gaussian 16 at Thu Dec 10 15:56:43 2020.
 Gaussian 16:  ES64L-G16RevA.03 25-Dec-2016

 ----------------------------------------------------------------------
 # B3LYP/6-311++G(d,p) empiricaldispersion=gd3bj scf=xqc pop=npa geom=c
 heck
 ----------------------------------------------------------------------

 ------------------------------------
 CID_104085843_JID_5318_Energie_anion
 ------------------------------------
 Structure from the checkpoint file:  "JID_5318.chk"
 Charge = -1 Multiplicity = 2

                         Standard orientation:
 ---------------------------------------------------------------------
 Center     Atomic      Atomic             Coordinates (Angstroms)
 Number     Number       Type             X           Y           Z
 ---------------------------------------------------------------------
      1          6           0        1.917794    2.263395    0.161251
      2          6           0        1.335044    0.903986   -0.146844
      3          6           0        2.095653   -0.281275   -0.062509
      4          6           0        1.490710   -1.519051   -0.312963
      5          6           0        0.146082   -1.606435   -0.662332
      6          6           0       -0.616522   -0.438588   -0.756697
      7          6           0       -0.014371    0.798954   -0.498676
      8         16           0       -2.341869   -0.533999   -1.235191
      9          6           0       -3.200086   -0.403543    0.416380
     10          6           0       -2.840066   -1.552207    1.351497
     11          6           0       -2.946913    0.965028    1.056607
     12          8           0       -3.251195    2.051136    0.204189
     13          6           0        3.541508   -0.283209    0.329650
     14          7           0        4.038686   -0.942148    1.312773
     15          7           0        4.365166    0.519400   -0.441751
     16          1           0        2.544929    2.234508    1.057121
     17          1           0        2.554131    2.627800   -0.652008
     18          1           0        1.118286    2.993164    0.318957
     19          1           0        2.092398   -2.420313   -0.238231
     20          1           0       -0.312618   -2.568991   -0.862339
     21          1           0       -0.615443    1.701734   -0.554283
     22          1           0       -4.253700   -0.462775    0.119812
     23          1           0       -1.770919   -1.543211    1.587271
     24          1           0       -3.395422   -1.459949    2.293165
     25          1           0       -3.083288   -2.518351    0.901001
     26          1           0       -3.591483    1.063758    1.938154
     27          1           0       -1.903528    1.006625    1.407371
     28          1           0       -2.952714    1.789877   -0.686419
     29          1           0        3.290351   -1.400469    1.835356
     30          1           0        4.126707    0.598950   -1.421585
     31          1           0        5.351828    0.369446   -0.263138
 ---------------------------------------------------------------------

 SCF Done:  E(UB3LYP) =  -1011.99009481     A.U. after   33 cycles
 SCF Done:  E(UB3LYP) =  -1011.99009481     a.u. after    1 cycles

 The electronic state is 2-A.
 Alpha  occ. eigenvalues --  -88.71764 -19.00967 -14.19961 -14.14266 -10.10767
 Alpha  occ. eigenvalues --  -10.10651 -10.08648 -10.06044 -10.04764 -10.04715
 Alpha  occ. eigenvalues --  -10.04429 -10.03578 -10.03503 -10.03355 -10.02743
 Alpha  occ. eigenvalues --   -7.80276  -5.76638  -5.76286  -5.75732  -0.91378
 Alpha  occ. eigenvalues --   -0.82128  -0.73003  -0.72093  -0.69569  -0.64710
 Alpha  occ. eigenvalues --   -0.62719  -0.57380  -0.56982  -0.56017  -0.49888
 Alpha  occ. eigenvalues --   -0.46715  -0.45846  -0.43471  -0.41094  -0.40030
 Alpha  occ. eigenvalues --   -0.36100  -0.34915  -0.34278  -0.32840  -0.32187
 Alpha  occ. eigenvalues --   -0.32067  -0.30691  -0.29792  -0.29601  -0.28198
 Alpha  occ. eigenvalues --   -0.27977  -0.26505  -0.25615  -0.24620  -0.23739
 Alpha  occ. eigenvalues --   -0.22444  -0.21304  -0.20846  -0.18796  -0.16799
 Alpha  occ. eigenvalues --   -0.14540  -0.12742  -0.12194  -0.11793  -0.10983
 Alpha  occ. eigenvalues --    0.05109
 Alpha virt. eigenvalues --    0.07499   0.07897   0.09431   0.09652   0.10038
 Alpha virt. eigenvalues --    0.10608   0.10913   0.11791   0.11873   0.12152
 Alpha virt. eigenvalues --    0.12874   0.12895   0.13515   0.14375   0.14698

  Beta  occ. eigenvalues --  -88.71771 -19.00961 -14.19927 -14.14122 -10.10721
  Beta  occ. eigenvalues --  -10.10655 -10.08500 -10.06047 -10.04734 -10.04432
  Beta  occ. eigenvalues --  -10.04355 -10.03537 -10.03450 -10.03288 -10.02376
  Beta  occ. eigenvalues --   -7.80280  -5.76638  -5.76305  -5.75735  -0.91365
  Beta  occ. eigenvalues --   -0.81928  -0.72641  -0.71819  -0.69361  -0.64398
  Beta  occ. eigenvalues --   -0.62308  -0.57187  -0.56896  -0.55768  -0.49486
  Beta  occ. eigenvalues --   -0.46592  -0.45699  -0.43235  -0.40913  -0.39975
  Beta  occ. eigenvalues --   -0.35914  -0.34729  -0.34102  -0.32780  -0.32062
  Beta  occ. eigenvalues --   -0.31947  -0.30541  -0.29619  -0.29519  -0.28004
  Beta  occ. eigenvalues --   -0.27900  -0.26407  -0.25413  -0.24101  -0.23326
  Beta  occ. eigenvalues --   -0.22057  -0.21061  -0.20578  -0.18434  -0.16747
  Beta  occ. eigenvalues --   -0.14027  -0.12263  -0.11721  -0.11117  -0.09606
  Beta virt. eigenvalues --    0.07588   0.07851   0.09294   0.09388   0.09883
  Beta virt. eigenvalues --    0.10396   0.10861   0.11059   0.11841   0.11918
  Beta virt. eigenvalues --    0.12203   0.12828   0.12946   0.13458   0.14394

 Mulliken charges and spin densities:
               1          2
     1  C   -0.289171  -0.231604
     2  C   -0.686992   0.354324
     3  C    1.435182   0.029949
     4  C   -0.593328  -0.128863
     5  C   -0.209954   0.033448
     6  C    1.421641   0.318825
     7  C   -1.075289   0.049016
     8  S   -0.547492   0.108363
     9  C    0.487589  -0.383242
    10  C   -0.678575  -0.042758
    11  C   -0.617696   0.011338
    12  O   -0.195487   0.007006
    13  C   -0.881439   0.204761
    14  N   -0.377688   0.081061
    15  N   -0.232902  -0.023177
    16  H    0.170741   0.007935
    17  H    0.053211   0.095906
    18  H    0.122732   0.007551
    19  H    0.151048  -0.007044
    20  H    0.145849  -0.000329
    21  H    0.082373  -0.010217
    22  H   -0.145449   0.379481
    23  H    0.172825   0.003912
    24  H    0.107342  -0.005736
    25  H    0.118748   0.021648
    26  H    0.137567  -0.000364
    27  H    0.160993   0.002679
    28  H    0.218242  -0.000041
    29  H    0.185235   0.000178
    30  H    0.204142   0.018216
    31  H    0.156003   0.097777
 Sum of Mulliken charges =  -1.00000   1.00000

 Dipole moment (field-independent basis, Debye):
    X=             -1.4901    Y=             -0.2091    Z=             -0.1319  Tot=              1.5105
 Quadrupole moment (field-independent basis, Debye-Ang):
   XX=           -165.3684   YY=           -119.3662   ZZ=           -112.4595
   XY=              7.3812   XZ=            -15.8166   YZ=             -1.7054

 Summary of Natural Population Analysis:

                                       Natural Population
                Natural  -----------------------------------------------
    Atom  No    Charge         Core      Valence    Rydberg      Total
 -----------------------------------------------------------------------
      C    1   -0.29093      0.99964     2.28634    0.00495     3.29093
      C    2   -0.00612      0.99949     1.99728    0.00936     3.00612
      C    3   -0.00080      0.99941     1.98957    0.01181     3.00080
      C    4   -0.08609      0.99953     2.07840    0.00815     3.08609
      C    5   -0.10077      0.99950     2.09176    0.00951     3.10077
      C    6   -0.03933      0.99938     2.02692    0.01303     3.03933
      C    7   -0.09777      0.99946     2.08713    0.01119     3.09777
      S    8    0.08135      4.99955     2.89837    0.02073     7.91865
      C    9   -0.15873      0.99957     2.14530    0.01386     3.15873
      C   10   -0.29564      0.99963     2.28940    0.00661     3.29564
      C   11   -0.01876      0.99954     2.00533    0.01389     3.01876
      O   12   -0.37788      0.99990     3.37153    0.00645     4.37788
      C   13    0.23020      0.99963     1.75195    0.01822     2.76980
      N   14   -0.35776      0.99971     2.84976    0.00829     3.85776
      N   15   -0.40515      0.99971     2.89545    0.00999     3.90515
      H   16    0.10399      0.00000     0.39500    0.00102     0.39601
      H   17    0.10123      0.00000     0.39727    0.00150     0.39877
      H   18    0.09608      0.00000     0.40300    0.00093     0.40392
      H   19    0.09515      0.00000     0.40340    0.00144     0.40485
      H   20    0.09672      0.00000     0.40236    0.00092     0.40328
      H   21    0.09415      0.00000     0.40403    0.00181     0.40585
      H   22    0.09956      0.00000     0.39788    0.00256     0.40044
      H   23    0.10884      0.00000     0.39028    0.00088     0.39116
      H   24    0.09379      0.00000     0.40527    0.00094     0.40621
      H   25    0.10236      0.00000     0.39664    0.00100     0.39764
      H   26    0.08196      0.00000     0.41687    0.00116     0.41804
      H   27    0.08398      0.00000     0.41446    0.00156     0.41602
      H   28    0.23368      0.00000     0.26302    0.00330     0.26632
      H   29    0.16363      0.00000     0.33433    0.00204     0.33637
      H   30    0.18545      0.00000     0.31309    0.00146     0.31455
      H   31    0.18360      0.00000     0.31349    0.00292     0.31640
 =======================================================================
   * Total *   -0.00000     18.99365    40.81489    0.19146    60.00000

 Normal termination of Gaussian 16 at Thu Dec 10 16:08:05 2020.
