 Gaussian 16, Revision A.03,

 -----------------------------------------------------------
 # opt freq B3LYP/6-31G(d) empiricaldispersion=gd3bj scf=xqc
 -----------------------------------------------------------

 ------------------------------
 CID_15879820_JID_3563_neutraal
 ------------------------------
 Symbolic Z-matrix:
 Charge =  0 Multiplicity = 1

 SCF Done:  E(RB3LYP) =  -897.431989715     A.U. after   15 cycles
 SCF Done:  E(RB3LYP) =  -897.435336665     A.U. after   12 cycles
 SCF Done:  E(RB3LYP) =  -897.435468788     A.U. after   11 cycles
 SCF Done:  E(RB3LYP) =  -897.435484046     A.U. after   10 cycles
 SCF Done:  E(RB3LYP) =  -897.435488720     A.U. after    9 cycles
 SCF Done:  E(RB3LYP) =  -897.435491012     A.U. after    8 cycles
 SCF Done:  E(RB3LYP) =  -897.435492309     A.U. after    8 cycles
 SCF Done:  E(RB3LYP) =  -897.435493807     A.U. after    8 cycles
 SCF Done:  E(RB3LYP) =  -897.435495358     A.U. after    9 cycles
 SCF Done:  E(RB3LYP) =  -897.435496222     A.U. after    8 cycles
 SCF Done:  E(RB3LYP) =  -897.435496575     A.U. after    7 cycles
 Optimization completed.
    -- Stationary point found.
 Normal termination of Gaussian 16 at Wed Dec  9 23:37:53 2020.

 --------------------------------------------------------------------
 #N Geom=AllCheck Guess=TCheck SCRF=Check GenChk RB3LYP/6-31G(d) Freq
 --------------------------------------------------------------------

 Structure from the checkpoint file:  "JID_3563.chk"
 ------------------------------
 CID_15879820_JID_3563_neutraal
 ------------------------------
 Charge =  0 Multiplicity = 1

 SCF Done:  E(RB3LYP) =  -897.435496575     A.U. after    1 cycles

  Exact polarizability: 221.858  -3.011 129.023  -0.002  -0.002  52.542
 Approx polarizability: 331.352  -6.892 250.914  -0.001  -0.003  83.676

                      1                      2                      3
                      A                      A                      A
 Frequencies --     78.8203                95.4126               155.6649
 Red. masses --      4.3309                 1.0712                 5.1466
 Frc consts  --      0.0159                 0.0057                 0.0735
 IR Inten    --      1.7687                 0.0129                 0.0477

                      4                      5                      6
                      A                      A                      A
 Frequencies --    180.5509               210.1355               294.3913
 Red. masses --      4.3179                 3.5414                 6.8785
 Frc consts  --      0.0829                 0.0921                 0.3512
 IR Inten    --      1.7389                 0.0270                 0.4271

                      7                      8                      9
                      A                      A                      A
 Frequencies --    303.2533               338.0108               409.9341
 Red. masses --      3.8800                 6.4775                 5.6373
 Frc consts  --      0.2102                 0.4360                 0.5581
 IR Inten    --      0.1537                 0.0409                 0.8510

                     10                     11                     12
                      A                      A                      A
 Frequencies --    438.9213               488.7000               508.2560
 Red. masses --      3.2590                 7.4601                 4.1082
 Frc consts  --      0.3699                 1.0497                 0.6253
 IR Inten    --      3.7379                 1.5501                 5.0408

                     13                     14                     15
                      A                      A                      A
 Frequencies --    577.4724               578.1712               588.5194
 Red. masses --      8.5996                 4.2411                 6.2870
 Frc consts  --      1.6896                 0.8353                 1.2830
 IR Inten    --      3.2435                 0.1450                 1.4152

                     16                     17                     18
                      A                      A                      A
 Frequencies --    656.6029               677.9024               680.9590
 Red. masses --      5.3190                 7.8914                 5.5293
 Frc consts  --      1.3511                 2.1367                 1.5106
 IR Inten    --      5.2826                 4.0606                 0.7115

                     19                     20                     21
                      A                      A                      A
 Frequencies --    742.4911               747.1499               758.2546
 Red. masses --      5.7958                 5.3780                 1.2688
 Frc consts  --      1.8826                 1.7688                 0.4298
 IR Inten    --      3.1329                 0.0711                55.1438

                     22                     23                     24
                      A                      A                      A
 Frequencies --    819.1114               854.8691               861.3104
 Red. masses --      1.3540                 6.5399                 1.3849
 Frc consts  --      0.5352                 2.8159                 0.6053
 IR Inten    --     21.7145                 8.0735                 0.0178

                     25                     26                     27
                      A                      A                      A
 Frequencies --    926.2836               968.9919               995.9799
 Red. masses --      1.3445                 1.2316                 5.9069
 Frc consts  --      0.6797                 0.6813                 3.4523
 IR Inten    --      1.9472                 0.0135                 0.8139

                     28                     29                     30
                      A                      A                      A
 Frequencies --   1013.2546              1041.3185              1069.6339
 Red. masses --      1.6774                 2.0722                 1.3907
 Frc consts  --      1.0147                 1.3239                 0.9375
 IR Inten    --      0.8915                 1.1802                 1.4645

                     31                     32                     33
                      A                      A                      A
 Frequencies --   1072.3143              1136.4317              1148.6086
 Red. masses --      7.5063                 1.7343                 2.0254
 Frc consts  --      5.0854                 1.3196                 1.5743
 IR Inten    --     40.0612                 5.4802                10.8623

                     34                     35                     36
                      A                      A                      A
 Frequencies --   1187.1708              1226.4177              1241.0764
 Red. masses --      1.1544                 2.8547                 2.0545
 Frc consts  --      0.9586                 2.5298                 1.8645
 IR Inten    --      1.4561                48.3227                16.2507

                     37                     38                     39
                      A                      A                      A
 Frequencies --   1298.6045              1345.4086              1412.3038
 Red. masses --      2.3520                 2.8652                 4.1971
 Frc consts  --      2.3369                 3.0557                 4.9323
 IR Inten    --     19.3583                14.2479                 4.1599

                     40                     41                     42
                      A                      A                      A
 Frequencies --   1440.4684              1452.1512              1488.2864
 Red. masses --      1.4816                 3.4128                 2.7728
 Frc consts  --      1.8113                 4.2402                 3.6186
 IR Inten    --      1.4245                20.5251                36.1769

                     43                     44                     45
                      A                      A                      A
 Frequencies --   1505.8102              1512.6610              1521.6768
 Red. masses --      1.0421                 3.4278                 1.1557
 Frc consts  --      1.3922                 4.6212                 1.5766
 IR Inten    --      7.9969                 4.0477                11.8885

                     46                     47                     48
                      A                      A                      A
 Frequencies --   1548.9966              1599.1688              1638.4540
 Red. masses --      4.9653                 5.5399                 6.1556
 Frc consts  --      7.0194                 8.3473                 9.7362
 IR Inten    --     13.1311                13.6338                 3.4484

                     49                     50                     51
                      A                      A                      A
 Frequencies --   1672.9683              3045.1048              3096.8083
 Red. masses --      7.2448                 1.0366                 1.1018
 Frc consts  --     11.9468                 5.6631                 6.2255
 IR Inten    --      5.1136                45.7393                14.8032

                     52                     53                     54
                      A                      A                      A
 Frequencies --   3131.4811              3191.2124              3203.5241
 Red. masses --      1.1006                 1.0858                 1.0899
 Frc consts  --      6.3591                 6.5149                 6.5901
 IR Inten    --     11.6533                 2.2508                10.4943

                     55                     56                     57
                      A                      A                      A
 Frequencies --   3213.4465              3225.3623              3243.3770
 Red. masses --      1.0949                 1.0953                 1.0942
 Frc consts  --      6.6612                 6.7131                 6.7820
 IR Inten    --     23.3768                11.7674                 4.9168

 - Thermochemistry -
 -------------------
 Temperature   298.150 Kelvin.  Pressure   1.00000 Atm.
 Atom     1 has atomic number  6 and mass  12.00000

 Molecular mass:   188.02959 amu.
 Principal axes and moments of inertia in atomic units:
                           1         2         3
     Eigenvalues --   842.257463955.946154786.94710
           X            0.99994  -0.01065   0.00000
           Y            0.01065   0.99994  -0.00000
           Z           -0.00000   0.00000   1.00000
 This molecule is an asymmetric top.
 Rotational symmetry number  1.
 Warning -- assumption of classical behavior for rotation
           may cause significant error
 Rotational temperatures (Kelvin)      0.10284     0.02189     0.01809
 Rotational constants (GHZ):           2.14274     0.45621     0.37701
 Zero-point vibrational energy     417853.3 (Joules/Mol)
                                   99.86934 (Kcal/Mol)
 Warning -- explicit consideration of  15 degrees of freedom as
           vibrations may cause significant error
 Vibrational temperatures:    113.40   137.28   223.97   259.77   302.34
          (Kelvin)            423.56   436.31   486.32   589.80   631.51
                              703.13   731.27   830.85   831.86   846.75
                              944.71   975.35   979.75  1068.28  1074.98
                             1090.96  1178.52  1229.97  1239.23  1332.72
                             1394.16  1432.99  1457.85  1498.23  1538.96
                             1542.82  1635.07  1652.59  1708.07  1764.54
                             1785.63  1868.40  1935.74  2031.99  2072.51
                             2089.32  2141.31  2166.52  2176.38  2189.35
                             2228.66  2300.85  2357.37  2407.03  4381.23
                             4455.62  4505.50  4591.44  4609.16  4623.43
                             4640.58  4666.50

 Zero-point correction=                           0.159152 (Hartree/Particle)
 Thermal correction to Energy=                    0.169295
 Thermal correction to Enthalpy=                  0.170239
 Thermal correction to Gibbs Free Energy=         0.123148
 Sum of electronic and zero-point Energies=           -897.276345
 Sum of electronic and thermal Energies=              -897.266202
 Sum of electronic and thermal Enthalpies=            -897.265258
 Sum of electronic and thermal Free Energies=         -897.312348

                     E (Thermal)             CV                S
                      KCal/Mol        Cal/Mol-Kelvin    Cal/Mol-Kelvin
 Total                  106.234             40.271             99.110
 Electronic               0.000              0.000              0.000
 Translational            0.889              2.981             41.600
 Rotational               0.889              2.981             31.145
 Vibrational            104.457             34.310             26.365
 Vibration     1          0.600              1.963              3.920
 Vibration     2          0.603              1.952              3.546
 Vibration     3          0.620              1.896              2.602
 Vibration     4          0.630              1.866              2.323
 Vibration     5          0.642              1.825              2.042
 Vibration     6          0.689              1.684              1.449
 Vibration     7          0.695              1.668              1.399
 Vibration     8          0.718              1.600              1.222
 Vibration     9          0.774              1.449              0.927
 Vibration    10          0.799              1.385              0.830
 Vibration    11          0.845              1.275              0.687
 Vibration    12          0.863              1.232              0.638
 Vibration    13          0.934              1.080              0.490
 Vibration    14          0.935              1.078              0.489
 Vibration    15          0.946              1.056              0.470

 Optimization completed.
    -- Stationary point found.
 Normal termination of Gaussian 16 at Wed Dec  9 23:42:53 2020.

 ----------------------------------------------------------------------
 # B3LYP/6-311++G(d,p) empiricaldispersion=gd3bj scf=xqc pop=npa geom=c
 heck
 ----------------------------------------------------------------------

 --------------------------------------
 CID_15879820_JID_3563_Energie_neutraal
 --------------------------------------
 Structure from the checkpoint file:  "JID_3563.chk"
 Charge =  0 Multiplicity = 1

 SCF Done:  E(RB3LYP) =  -897.586757098     A.U. after   16 cycles
 Normal termination of Gaussian 16 at Wed Dec  9 23:45:12 2020.

 ----------------------------------------------------------------------
 # B3LYP/6-311++G(d,p) empiricaldispersion=gd3bj scf=xqc pop=npa geom=c
 heck
 ----------------------------------------------------------------------

 ------------------------------------
 CID_15879820_JID_3563_Energie_kation
 ------------------------------------
 Structure from the checkpoint file:  "JID_3563.chk"
 Charge =  1 Multiplicity = 2

 SCF Done:  E(UB3LYP) =  -897.311660273     A.U. after   25 cycles
 Normal termination of Gaussian 16 at Wed Dec  9 23:50:24 2020.
 Gaussian 16:  ES64L-G16RevA.03 25-Dec-2016

 ----------------------------------------------------------------------
 # B3LYP/6-311++G(d,p) empiricaldispersion=gd3bj scf=xqc pop=npa geom=c
 heck
 ----------------------------------------------------------------------

 -----------------------------------
 CID_15879820_JID_3563_Energie_anion
 -----------------------------------
 Structure from the checkpoint file:  "JID_3563.chk"
 Charge = -1 Multiplicity = 2

                         Standard orientation:
 ---------------------------------------------------------------------
 Center     Atomic      Atomic             Coordinates (Angstroms)
 Number     Number       Type             X           Y           Z
 ---------------------------------------------------------------------
      1          6           0       -4.285575    0.042566   -0.000380
      2          6           0       -2.792163    0.148277   -0.000176
      3          6           0       -2.029590    1.289677    0.000041
      4          6           0       -0.649281    0.966624    0.000452
      5          6           0       -0.347237   -0.377940    0.000578
      6         16           0       -1.805255   -1.321658    0.000013
      7          6           0        1.084692   -0.489051    0.000144
      8          6           0        2.033920   -1.518137    0.000116
      9          6           0        3.384844   -1.177939   -0.000154
     10          6           0        3.800799    0.163642   -0.000307
     11          6           0        2.874091    1.208463   -0.000207
     12          6           0        1.534093    0.857394   -0.000012
     13          8           0        0.477706    1.748513    0.000153
     14          1           0       -4.656751   -0.489164   -0.884849
     15          1           0       -4.726693    1.043815   -0.000126
     16          1           0       -4.656968   -0.489709    0.883666
     17          1           0       -2.443030    2.290629    0.000053
     18          1           0        1.721789   -2.557977    0.000261
     19          1           0        4.132506   -1.965559   -0.000221
     20          1           0        4.861493    0.395378   -0.000495
     21          1           0        3.178532    2.249548   -0.000291
 ---------------------------------------------------------------------

 SCF Done:  E(UB3LYP) =  -897.577997480     A.U. after   28 cycles

 The electronic state is 2-A.
 Alpha  occ. eigenvalues --  -88.72380 -19.03721 -10.08649 -10.07187 -10.05310
 Alpha  occ. eigenvalues --  -10.04434 -10.03700 -10.03648 -10.03235 -10.02773
 Alpha  occ. eigenvalues --  -10.02770 -10.02475 -10.02229  -7.80963  -5.77286
 Alpha  occ. eigenvalues --   -5.76937  -5.76505  -0.96091  -0.73233  -0.71153
 Alpha  occ. eigenvalues --   -0.64452  -0.61141  -0.60543  -0.57989  -0.54572
 Alpha  occ. eigenvalues --   -0.48038  -0.45330  -0.42536  -0.40377  -0.37179
 Alpha  occ. eigenvalues --   -0.34734  -0.33466  -0.31885  -0.30394  -0.30172
 Alpha  occ. eigenvalues --   -0.30023  -0.28061  -0.26092  -0.25473  -0.23016
 Alpha  occ. eigenvalues --   -0.22580  -0.21831  -0.21007  -0.20156  -0.19392
 Alpha  occ. eigenvalues --   -0.14054  -0.11883  -0.09115  -0.06588   0.06207
 Alpha virt. eigenvalues --    0.08122   0.09008   0.10312   0.10665   0.11313
 Alpha virt. eigenvalues --    0.11431   0.12828   0.13003   0.13468   0.14879
 Alpha virt. eigenvalues --    0.14882   0.15504   0.16374   0.16462   0.17158

  Beta  occ. eigenvalues --  -88.72359 -19.03652 -10.08703 -10.07044 -10.05350
  Beta  occ. eigenvalues --  -10.03906 -10.03624 -10.03575 -10.03302 -10.02797
  Beta  occ. eigenvalues --  -10.02614 -10.02290 -10.01982  -7.80945  -5.77285
  Beta  occ. eigenvalues --   -5.76937  -5.76417  -0.95967  -0.72875  -0.70879
  Beta  occ. eigenvalues --   -0.64019  -0.60902  -0.60216  -0.57792  -0.54316
  Beta  occ. eigenvalues --   -0.47785  -0.45038  -0.42366  -0.39939  -0.37008
  Beta  occ. eigenvalues --   -0.34510  -0.33304  -0.31402  -0.30303  -0.30005
  Beta  occ. eigenvalues --   -0.29540  -0.27895  -0.25909  -0.25344  -0.22881
  Beta  occ. eigenvalues --   -0.22473  -0.21039  -0.20335  -0.20051  -0.19168
  Beta  occ. eigenvalues --   -0.12789  -0.11099  -0.08442  -0.04957
  Beta virt. eigenvalues --    0.08111   0.08961   0.10239   0.10615   0.10731
  Beta virt. eigenvalues --    0.11352   0.12267   0.12728   0.12923   0.13846
  Beta virt. eigenvalues --    0.14846   0.15342   0.16188   0.16469   0.16601

 Mulliken charges and spin densities:
               1          2
     1  C   -0.301113  -0.062112
     2  C   -0.473630   0.182364
     3  C   -0.262155   0.071855
     4  C   -0.544940   0.079149
     5  C    0.844680   0.036574
     6  S   -0.855796   0.099977
     7  C    1.321779  -0.005211
     8  C   -0.424495   0.255380
     9  C   -0.081391  -0.048979
    10  C   -0.425826   0.142699
    11  C   -0.535076   0.119991
    12  C    0.046866  -0.030016
    13  O   -0.123872   0.012352
    14  H    0.060203   0.091183
    15  H    0.132442   0.000206
    16  H    0.060573   0.090828
    17  H    0.123567  -0.001999
    18  H    0.106122  -0.015379
    19  H    0.111040   0.003720
    20  H    0.099920  -0.012106
    21  H    0.121101  -0.010476
 Sum of Mulliken charges =  -1.00000   1.00000

 Dipole moment (field-independent basis, Debye):
    X=             -0.4783    Y=              0.6039    Z=              0.0013  Tot=              0.7704
 Quadrupole moment (field-independent basis, Debye-Ang):
   XX=           -121.3583   YY=            -95.1225   ZZ=            -96.5789
   XY=             -3.1054   XZ=             -0.0067   YZ=             -0.0021

 Summary of Natural Population Analysis:

                                       Natural Population
                Natural  -----------------------------------------------
    Atom  No    Charge         Core      Valence    Rydberg      Total
 -----------------------------------------------------------------------
      C    1   -0.27810      0.99968     2.26687    0.01155     3.27810
      C    2    0.03567      0.99955     1.95073    0.01406     2.96433
      C    3   -0.18563      0.99946     2.17016    0.01601     3.18563
      C    4    0.15237      0.99930     1.83012    0.01822     2.84763
      C    5   -0.09577      0.99927     2.08470    0.01180     3.09577
      S    6    0.17414      4.99947     2.80103    0.02536     7.82586
      C    7   -0.06291      0.99949     2.04770    0.01573     3.06291
      C    8   -0.06016      0.99955     2.05145    0.00917     3.06016
      C    9   -0.13044      0.99959     2.12116    0.00969     3.13044
      C   10   -0.08584      0.99959     2.07565    0.01059     3.08584
      C   11   -0.10688      0.99952     2.09786    0.00951     3.10688
      C   12    0.14712      0.99936     1.83767    0.01586     2.85288
      O   13   -0.24179      0.99985     3.23391    0.00803     4.24179
      H   14    0.10303      0.00000     0.39541    0.00156     0.39697
      H   15    0.09667      0.00000     0.40214    0.00118     0.40333
      H   16    0.10302      0.00000     0.39541    0.00156     0.39698
      H   17    0.10029      0.00000     0.39807    0.00164     0.39971
      H   18    0.09265      0.00000     0.40629    0.00106     0.40735
      H   19    0.08993      0.00000     0.40900    0.00107     0.41007
      H   20    0.08747      0.00000     0.41146    0.00107     0.41253
      H   21    0.09578      0.00000     0.40272    0.00150     0.40422
 =======================================================================
   * Total *    0.03061     16.99365    31.78952    0.18622    48.96939

 Normal termination of Gaussian 16 at Wed Dec  9 23:56:18 2020.
