 Gaussian 16, Revision A.03,

 -----------------------------------------------------------
 # opt freq B3LYP/6-31G(d) empiricaldispersion=gd3bj scf=xqc
 -----------------------------------------------------------

 ------------------------------
 CID_13811101_JID_5080_neutraal
 ------------------------------
 Symbolic Z-matrix:
 Charge =  0 Multiplicity = 1

 SCF Done:  E(RB3LYP) =  -780.348377641     A.U. after   15 cycles
 SCF Done:  E(RB3LYP) =  -780.351450380     A.U. after   14 cycles
 SCF Done:  E(RB3LYP) =  -780.342868228     A.U. after   16 cycles
 SCF Done:  E(RB3LYP) =  -780.353297668     A.U. after   14 cycles
 SCF Done:  E(RB3LYP) =  -780.353729673     A.U. after   14 cycles
 SCF Done:  E(RB3LYP) =  -780.353906665     A.U. after   13 cycles
 SCF Done:  E(RB3LYP) =  -780.353986198     A.U. after   13 cycles
 SCF Done:  E(RB3LYP) =  -780.353999741     A.U. after   12 cycles
 SCF Done:  E(RB3LYP) =  -780.354005298     A.U. after   10 cycles
 SCF Done:  E(RB3LYP) =  -780.354007893     A.U. after   10 cycles
 SCF Done:  E(RB3LYP) =  -780.354010891     A.U. after   11 cycles
 SCF Done:  E(RB3LYP) =  -780.354013248     A.U. after   11 cycles
 SCF Done:  E(RB3LYP) =  -780.354014091     A.U. after   10 cycles
 Optimization completed.
    -- Stationary point found.
 Normal termination of Gaussian 16 at Thu Dec 10 14:44:48 2020.

 --------------------------------------------------------------------
 #N Geom=AllCheck Guess=TCheck SCRF=Check GenChk RB3LYP/6-31G(d) Freq
 --------------------------------------------------------------------

 Structure from the checkpoint file:  "JID_5080.chk"
 ------------------------------
 CID_13811101_JID_5080_neutraal
 ------------------------------
 Charge =  0 Multiplicity = 1

 SCF Done:  E(RB3LYP) =  -780.354014091     A.U. after    1 cycles

  Exact polarizability: 167.582  -6.667 128.339  -4.765  -0.466  66.482
 Approx polarizability: 245.924   4.437 214.753 -11.419  -3.016 104.818

                      1                      2                      3
                      A                      A                      A
 Frequencies --     16.7758                45.5571                62.2553
 Red. masses --      5.7879                 9.3945                 3.8566
 Frc consts  --      0.0010                 0.0115                 0.0088
 IR Inten    --      1.5536                 0.5759                 0.1897

                      4                      5                      6
                      A                      A                      A
 Frequencies --     86.0557               100.2391               134.3884
 Red. masses --      4.3658                 3.2866                 4.3801
 Frc consts  --      0.0190                 0.0195                 0.0466
 IR Inten    --      3.7342                 0.8150                 6.4553

                      7                      8                      9
                      A                      A                      A
 Frequencies --    168.5592               186.4138               213.0722
 Red. masses --      5.9864                 5.0546                 2.7466
 Frc consts  --      0.1002                 0.1035                 0.0735
 IR Inten    --      2.2464                 0.8644                 2.7656

                     10                     11                     12
                      A                      A                      A
 Frequencies --    263.8650               267.3442               282.8919
 Red. masses --      2.4957                 1.7209                 2.4294
 Frc consts  --      0.1024                 0.0725                 0.1145
 IR Inten    --      0.0220                 0.4959                 2.4552

                     13                     14                     15
                      A                      A                      A
 Frequencies --    335.2978               374.5633               400.8778
 Red. masses --      6.8852                 4.2511                 4.2136
 Frc consts  --      0.4561                 0.3514                 0.3990
 IR Inten    --      7.8929                19.1562                15.5358

                     16                     17                     18
                      A                      A                      A
 Frequencies --    427.3205               443.9714               460.7955
 Red. masses --      1.7673                 2.4880                 5.5147
 Frc consts  --      0.1901                 0.2889                 0.6899
 IR Inten    --     88.1928                54.1072                 5.0876

                     19                     20                     21
                      A                      A                      A
 Frequencies --    499.4794               565.4597               591.2993
 Red. masses --      3.3763                 3.7893                 3.3176
 Frc consts  --      0.4963                 0.7139                 0.6834
 IR Inten    --     11.2707                 4.3902                 6.3989

                     22                     23                     24
                      A                      A                      A
 Frequencies --    619.3626               691.0301               705.1234
 Red. masses --      5.3208                 5.5080                 5.5552
 Frc consts  --      1.2026                 1.5497                 1.6274
 IR Inten    --      4.6660                 2.1396                 6.2992

                     25                     26                     27
                      A                      A                      A
 Frequencies --    776.8047               778.3476               824.0007
 Red. masses --      6.3936                 3.1468                 4.4373
 Frc consts  --      2.2731                 1.1232                 1.7751
 IR Inten    --      2.9476                23.4424                33.2272

                     28                     29                     30
                      A                      A                      A
 Frequencies --    849.2339               899.7202               900.4651
 Red. masses --      1.8410                 1.5302                 2.8292
 Frc consts  --      0.7823                 0.7298                 1.3516
 IR Inten    --     29.2037                20.4887                31.3431

                     31                     32                     33
                      A                      A                      A
 Frequencies --    922.1697               949.2563               952.3706
 Red. masses --      2.2331                 4.8296                 1.3449
 Frc consts  --      1.1189                 2.5641                 0.7187
 IR Inten    --     20.5983                18.7827                 2.3419

                     34                     35                     36
                      A                      A                      A
 Frequencies --   1047.9654              1079.8516              1098.9687
 Red. masses --      3.2278                 2.5806                 2.9658
 Frc consts  --      2.0886                 1.7729                 2.1104
 IR Inten    --    110.7905                73.4961                91.2938

                     37                     38                     39
                      A                      A                      A
 Frequencies --   1115.2421              1138.6217              1173.7727
 Red. masses --      4.6487                 1.9552                 1.3917
 Frc consts  --      3.4066                 1.4935                 1.1297
 IR Inten    --     10.0207                 5.9375                23.0280

                     40                     41                     42
                      A                      A                      A
 Frequencies --   1186.0709              1220.3939              1241.1742
 Red. masses --      1.2696                 1.3723                 1.2137
 Frc consts  --      1.0523                 1.2042                 1.1016
 IR Inten    --      0.8236                 6.4590                11.1300

                     43                     44                     45
                      A                      A                      A
 Frequencies --   1251.8525              1272.0974              1298.2549
 Red. masses --      1.9004                 1.1622                 2.0341
 Frc consts  --      1.7547                 1.1081                 2.0200
 IR Inten    --    155.2080                14.7994               179.3782

                     46                     47                     48
                      A                      A                      A
 Frequencies --   1325.4368              1353.2467              1403.2453
 Red. masses --      7.5545                 5.9562                 1.4981
 Frc consts  --      7.8194                 6.4265                 1.7380
 IR Inten    --     98.5256                54.7363                25.4154

                     49                     50                     51
                      A                      A                      A
 Frequencies --   1407.9940              1419.4716              1452.5800
 Red. masses --      4.5540                 1.2774                 1.3747
 Frc consts  --      5.3192                 1.5165                 1.7090
 IR Inten    --    187.0069                69.0961                50.3968

                     52                     53                     54
                      A                      A                      A
 Frequencies --   1466.6391              1498.9795              1522.4422
 Red. masses --      3.8639                 1.2316                 1.0473
 Frc consts  --      4.8969                 1.6305                 1.4302
 IR Inten    --     13.6566                42.0112                 6.9321

                     55                     56                     57
                      A                      A                      A
 Frequencies --   1524.1009              1529.1016              1533.8103
 Red. masses --      1.1211                 1.1336                 1.0725
 Frc consts  --      1.5344                 1.5617                 1.4867
 IR Inten    --     23.9654                11.8329                47.6039

                     58                     59                     60
                      A                      A                      A
 Frequencies --   1552.6242              1619.9763              1639.1427
 Red. masses --      2.5023                 7.1024                10.7802
 Frc consts  --      3.5540                10.9817                17.0652
 IR Inten    --    126.3474               134.9562               226.7476

                     61                     62                     63
                      A                      A                      A
 Frequencies --   1684.7363              3021.2333              3030.1831
 Red. masses --      7.2657                 1.0700                 1.0349
 Frc consts  --     12.1504                 5.7546                 5.5988
 IR Inten    --     22.2095                37.3698                48.6070

                     64                     65                     66
                      A                      A                      A
 Frequencies --   3049.0832              3091.1973              3111.7878
 Red. masses --      1.0607                 1.1070                 1.0955
 Frc consts  --      5.8101                 6.2323                 6.2500
 IR Inten    --     33.1468                39.0546                38.2630

                     67                     68                     69
                      A                      A                      A
 Frequencies --   3121.2748              3169.1868              3211.3897
 Red. masses --      1.1039                 1.0998                 1.0897
 Frc consts  --      6.3364                 6.5084                 6.6214
 IR Inten    --     20.3492                20.7529                 5.7097

                     70                     71                     72
                      A                      A                      A
 Frequencies --   3237.3928              3255.9103              3730.9503
 Red. masses --      1.0921                 1.0913                 1.0653
 Frc consts  --      6.7440                 6.8159                 8.7373
 IR Inten    --      6.0160                 4.2475                20.3095

 - Thermochemistry -
 -------------------
 Temperature   298.150 Kelvin.  Pressure   1.00000 Atm.
 Atom     1 has atomic number  6 and mass  12.00000

 Molecular mass:   213.06372 amu.
 Principal axes and moments of inertia in atomic units:
                           1         2         3
     Eigenvalues --  1912.471225065.250736739.22004
           X            0.99990  -0.01385  -0.00356
           Y            0.01384   0.99990  -0.00071
           Z            0.00357   0.00066   0.99999
 This molecule is an asymmetric top.
 Rotational symmetry number  1.
 Warning -- assumption of classical behavior for rotation
           may cause significant error
 Rotational temperatures (Kelvin)      0.04529     0.01710     0.01285
 Rotational constants (GHZ):           0.94367     0.35630     0.26780
 Zero-point vibrational energy     531630.9 (Joules/Mol)
                                  127.06284 (Kcal/Mol)
 Warning -- explicit consideration of  22 degrees of freedom as
           vibrations may cause significant error
 Vibrational temperatures:     24.14    65.55    89.57   123.81   144.22
          (Kelvin)            193.35   242.52   268.21   306.56   379.64
                              384.65   407.02   482.42   538.91   576.77
                              614.82   638.78   662.98   718.64   813.57
                              850.75   891.12   994.24  1014.52  1117.65
                             1119.87  1185.55  1221.86  1294.50  1295.57
                             1326.80  1365.77  1370.25  1507.79  1553.67
                             1581.17  1604.58  1638.22  1688.80  1706.49
                             1755.87  1785.77  1801.14  1830.26  1867.90
                             1907.01  1947.02  2018.96  2025.79  2042.30
                             2089.94  2110.17  2156.70  2190.45  2192.84
                             2200.04  2206.81  2233.88  2330.78  2358.36
                             2423.96  4346.88  4359.76  4386.95  4447.54
                             4477.17  4490.82  4559.75  4620.47  4657.89
                             4684.53  5368.01

 Zero-point correction=                           0.202488 (Hartree/Particle)
 Thermal correction to Energy=                    0.216799
 Thermal correction to Enthalpy=                  0.217743
 Thermal correction to Gibbs Free Energy=         0.159271
 Sum of electronic and zero-point Energies=           -780.151527
 Sum of electronic and thermal Energies=              -780.137215
 Sum of electronic and thermal Enthalpies=            -780.136271
 Sum of electronic and thermal Free Energies=         -780.194743

                     E (Thermal)             CV                S
                      KCal/Mol        Cal/Mol-Kelvin    Cal/Mol-Kelvin
 Total                  136.044             52.147            123.065
 Electronic               0.000              0.000              0.000
 Translational            0.889              2.981             41.973
 Rotational               0.889              2.981             32.546
 Vibrational            134.266             46.185             48.547
 Vibration     1          0.593              1.986              6.983
 Vibration     2          0.595              1.979              5.001
 Vibration     3          0.597              1.972              4.384
 Vibration     4          0.601              1.959              3.748
 Vibration     5          0.604              1.949              3.450
 Vibration     6          0.613              1.919              2.882
 Vibration     7          0.625              1.881              2.451
 Vibration     8          0.632              1.858              2.263
 Vibration     9          0.644              1.821              2.017
 Vibration    10          0.670              1.739              1.636
 Vibration    11          0.672              1.733              1.613
 Vibration    12          0.682              1.705              1.516
 Vibration    13          0.716              1.605              1.234
 Vibration    14          0.746              1.524              1.061
 Vibration    15          0.767              1.468              0.959
 Vibration    16          0.789              1.411              0.867
 Vibration    17          0.803              1.374              0.814
 Vibration    18          0.819              1.337              0.764
 Vibration    19          0.855              1.251              0.659
 Vibration    20          0.921              1.106              0.513
 Vibration    21          0.949              1.050              0.465
 Vibration    22          0.979              0.991              0.418

                           ! Non-Optimized Parameters !
 Normal termination of Gaussian 16 at Thu Dec 10 14:51:28 2020.

 ----------------------------------------------------------------------
 # B3LYP/6-311++G(d,p) empiricaldispersion=gd3bj scf=xqc pop=npa geom=c
 heck
 ----------------------------------------------------------------------

 --------------------------------------
 CID_13811101_JID_5080_Energie_neutraal
 --------------------------------------
 Structure from the checkpoint file:  "JID_5080.chk"
 Charge =  0 Multiplicity = 1

 SCF Done:  E(RB3LYP) =  -780.589723876     A.U. after   16 cycles
 Normal termination of Gaussian 16 at Thu Dec 10 14:54:18 2020.

 ----------------------------------------------------------------------
 # B3LYP/6-311++G(d,p) empiricaldispersion=gd3bj scf=xqc pop=npa geom=c
 heck
 ----------------------------------------------------------------------

 ------------------------------------
 CID_13811101_JID_5080_Energie_kation
 ------------------------------------
 Structure from the checkpoint file:  "JID_5080.chk"
 Charge =  1 Multiplicity = 2

 SCF Done:  E(UB3LYP) =  -780.271413613     A.U. after   30 cycles
 Normal termination of Gaussian 16 at Thu Dec 10 15:00:54 2020.
 Gaussian 16:  ES64L-G16RevA.03 25-Dec-2016

 ----------------------------------------------------------------------
 # B3LYP/6-311++G(d,p) empiricaldispersion=gd3bj scf=xqc pop=npa geom=c
 heck
 ----------------------------------------------------------------------

 -----------------------------------
 CID_13811101_JID_5080_Energie_anion
 -----------------------------------
 Structure from the checkpoint file:  "JID_5080.chk"
 Charge = -1 Multiplicity = 2

                         Standard orientation:
 ---------------------------------------------------------------------
 Center     Atomic      Atomic             Coordinates (Angstroms)
 Number     Number       Type             X           Y           Z
 ---------------------------------------------------------------------
      1          6           0        4.566460   -1.375984    0.138007
      2          8           0        3.793487   -0.184742    0.132582
      3          6           0        2.443073   -0.300828    0.024497
      4          6           0        1.729945    0.900802    0.011000
      5          6           0        0.343425    0.882476   -0.072558
      6          6           0       -0.374364   -0.323018   -0.182097
      7          6           0        0.358680   -1.508741   -0.188904
      8          6           0        1.748412   -1.513462   -0.076885
      9          8           0       -1.726231   -0.360793   -0.373307
     10          6           0       -2.517544   -0.589040    0.813107
     11          6           0       -3.944781   -0.749633    0.327889
     12          8           0       -4.068013   -1.845637   -0.562836
     13          7           0       -0.339399    2.182045   -0.054305
     14          8           0        0.280666    3.150097   -0.493113
     15          8           0       -1.475839    2.234772    0.413686
     16          1           0        5.604945   -1.056165    0.231076
     17          1           0        4.440803   -1.939316   -0.795581
     18          1           0        4.305470   -2.019116    0.988380
     19          1           0        2.256332    1.844882    0.066837
     20          1           0       -0.185685   -2.441208   -0.299601
     21          1           0        2.275856   -2.459506   -0.081439
     22          1           0       -2.171589   -1.507439    1.304386
     23          1           0       -2.410297    0.262665    1.491493
     24          1           0       -4.600378   -0.953799    1.180354
     25          1           0       -4.271846    0.192162   -0.138475
     26          1           0       -3.420216   -1.682482   -1.267735
 ---------------------------------------------------------------------

 SCF Done:  E(UB3LYP) =  -780.624145299     A.U. after   24 cycles

 The electronic state is 2-A.
 Alpha  occ. eigenvalues --  -19.04316 -19.02169 -19.01495 -18.93518 -18.93485
 Alpha  occ. eigenvalues --  -14.31151 -10.13087 -10.11314 -10.10536 -10.10272
 Alpha  occ. eigenvalues --  -10.09340 -10.06265 -10.04654 -10.04101 -10.02831
 Alpha  occ. eigenvalues --   -1.01720  -0.96011  -0.93868  -0.91667  -0.84498
 Alpha  occ. eigenvalues --   -0.72818  -0.65438  -0.63986  -0.63063  -0.57809
 Alpha  occ. eigenvalues --   -0.53583  -0.51817  -0.47490  -0.45261  -0.41614
 Alpha  occ. eigenvalues --   -0.40206  -0.39426  -0.38418  -0.37142  -0.35748
 Alpha  occ. eigenvalues --   -0.34651  -0.34006  -0.32831  -0.31898  -0.31134
 Alpha  occ. eigenvalues --   -0.30447  -0.29540  -0.28383  -0.26741  -0.26153
 Alpha  occ. eigenvalues --   -0.25174  -0.23367  -0.22184  -0.19821  -0.17754
 Alpha  occ. eigenvalues --   -0.15983  -0.13593  -0.12712  -0.11224  -0.09882
 Alpha  occ. eigenvalues --   -0.09070   0.03424
 Alpha virt. eigenvalues --    0.06769   0.08651   0.09360   0.10088   0.10660
 Alpha virt. eigenvalues --    0.11016   0.11770   0.11986   0.12753   0.13459
 Alpha virt. eigenvalues --    0.14183   0.14627   0.14773   0.15325   0.16807

  Beta  occ. eigenvalues --  -19.04321 -19.02169 -19.01492 -18.92996 -18.92988
  Beta  occ. eigenvalues --  -14.30475 -10.13085 -10.11312 -10.10607 -10.10260
  Beta  occ. eigenvalues --  -10.09258 -10.06160 -10.04670 -10.03863 -10.02619
  Beta  occ. eigenvalues --   -1.00601  -0.96023  -0.93842  -0.91651  -0.83535
  Beta  occ. eigenvalues --   -0.72544  -0.65335  -0.63462  -0.62980  -0.57641
  Beta  occ. eigenvalues --   -0.52736  -0.51695  -0.47318  -0.45006  -0.41561
  Beta  occ. eigenvalues --   -0.39863  -0.39262  -0.38275  -0.37132  -0.35582
  Beta  occ. eigenvalues --   -0.34086  -0.32911  -0.32185  -0.30986  -0.30597
  Beta  occ. eigenvalues --   -0.29939  -0.29402  -0.28060  -0.26483  -0.25840
  Beta  occ. eigenvalues --   -0.25065  -0.23344  -0.22099  -0.19406  -0.17749
  Beta  occ. eigenvalues --   -0.15869  -0.12331  -0.10775  -0.09476  -0.09021
  Beta  occ. eigenvalues --   -0.08402
  Beta virt. eigenvalues --    0.06745   0.08619   0.09324   0.09978   0.10350
  Beta virt. eigenvalues --    0.10678   0.11177   0.11950   0.12332   0.12727
  Beta virt. eigenvalues --    0.13468   0.14356   0.14687   0.15258   0.16503

 Mulliken charges and spin densities:
               1          2
     1  C   -0.313066   0.000290
     2  O   -0.167082   0.000782
     3  C   -0.496406  -0.065866
     4  C    0.070203   0.175703
     5  C    0.079359   0.033957
     6  C   -0.438725   0.062939
     7  C    0.081755   0.007379
     8  C    0.094537   0.190118
     9  O   -0.112957  -0.000766
    10  C   -0.200828  -0.010060
    11  C   -0.398043  -0.006119
    12  O   -0.278903   0.000196
    13  N   -0.329496   0.215184
    14  O   -0.191557   0.187860
    15  O   -0.170799   0.202186
    16  H    0.150487   0.000146
    17  H    0.134947   0.000801
    18  H    0.136054  -0.000421
    19  H    0.222696  -0.004205
    20  H    0.130182   0.000729
    21  H    0.133307  -0.014600
    22  H    0.143063   0.001904
    23  H    0.152871   0.018195
    24  H    0.141536  -0.000057
    25  H    0.158663   0.003625
    26  H    0.268202   0.000099
 Sum of Mulliken charges =  -1.00000   1.00000

 Dipole moment (field-independent basis, Debye):
    X=              2.7112    Y=             -8.0040    Z=              1.2051  Tot=              8.5362
 Quadrupole moment (field-independent basis, Debye-Ang):
   XX=           -111.1448   YY=           -126.1470   ZZ=            -93.1205
   XY=             -7.2493   XZ=             -1.8610   YZ=              1.0307

 Summary of Natural Population Analysis:

                                       Natural Population
                Natural  -----------------------------------------------
    Atom  No    Charge         Core      Valence    Rydberg      Total
 -----------------------------------------------------------------------
      C    1   -0.09976      0.99961     2.09194    0.00821     3.09976
      O    2   -0.27722      0.99985     3.26746    0.00990     4.27722
      C    3    0.13663      0.99939     1.85232    0.01166     2.86337
      C    4   -0.07203      0.99950     2.06373    0.00880     3.07203
      C    5    0.05405      0.99937     1.93289    0.01370     2.94595
      C    6    0.15424      0.99932     1.83405    0.01239     2.84576
      C    7   -0.12572      0.99954     2.11700    0.00918     3.12572
      C    8   -0.10676      0.99954     2.09921    0.00802     3.10676
      O    9   -0.30047      0.99985     3.28785    0.01277     4.30047
      C   10   -0.02136      0.99957     2.01228    0.00951     3.02136
      C   11   -0.02055      0.99961     2.00902    0.01193     3.02055
      O   12   -0.37538      0.99990     3.36879    0.00668     4.37538
      N   13    0.31221      0.99972     2.15994    0.02813     3.18779
      O   14   -0.19427      0.99990     3.18667    0.00770     4.19427
      O   15   -0.19305      0.99990     3.18386    0.00929     4.19305
      H   16    0.08707      0.00000     0.41212    0.00081     0.41293
      H   17    0.08033      0.00000     0.41800    0.00167     0.41967
      H   18    0.08010      0.00000     0.41822    0.00168     0.41990
      H   19    0.11592      0.00000     0.38279    0.00129     0.38408
      H   20    0.09586      0.00000     0.40248    0.00166     0.40414
      H   21    0.09212      0.00000     0.40676    0.00111     0.40788
      H   22    0.07748      0.00000     0.42102    0.00151     0.42252
      H   23    0.10278      0.00000     0.39585    0.00137     0.39722
      H   24    0.08118      0.00000     0.41765    0.00117     0.41882
      H   25    0.08300      0.00000     0.41559    0.00142     0.41700
      H   26    0.23361      0.00000     0.26379    0.00260     0.26639
 =======================================================================
   * Total *   -0.00000     14.99456    40.82128    0.18416    56.00000

 Normal termination of Gaussian 16 at Thu Dec 10 15:08:55 2020.
