 Gaussian 16, Revision A.03,

 -----------------------------------------------------------
 # opt freq B3LYP/6-31G(d) empiricaldispersion=gd3bj scf=xqc
 -----------------------------------------------------------

 -------------------------------
 CID_115490697_JID_6694_neutraal
 -------------------------------
 Symbolic Z-matrix:
 Charge =  0 Multiplicity = 1

 SCF Done:  E(RB3LYP) =  -1099.41482438     A.U. after   15 cycles
 SCF Done:  E(RB3LYP) =  -1099.42072340     A.U. after   13 cycles
 SCF Done:  E(RB3LYP) =  -1099.42163936     A.U. after   12 cycles
 SCF Done:  E(RB3LYP) =  -1099.42171342     A.U. after   12 cycles
 SCF Done:  E(RB3LYP) =  -1099.42165010     A.U. after   12 cycles
 SCF Done:  E(RB3LYP) =  -1099.42189625     A.U. after   11 cycles
 SCF Done:  E(RB3LYP) =  -1099.42191239     A.U. after   10 cycles
 SCF Done:  E(RB3LYP) =  -1099.42191929     A.U. after   10 cycles
 SCF Done:  E(RB3LYP) =  -1099.42192093     A.U. after   10 cycles
 SCF Done:  E(RB3LYP) =  -1099.42192227     A.U. after   10 cycles
 SCF Done:  E(RB3LYP) =  -1099.42192353     A.U. after   10 cycles
 SCF Done:  E(RB3LYP) =  -1099.42192480     A.U. after   10 cycles
 SCF Done:  E(RB3LYP) =  -1099.42192557     A.U. after   10 cycles
 SCF Done:  E(RB3LYP) =  -1099.42192576     A.U. after    8 cycles
 SCF Done:  E(RB3LYP) =  -1099.42192589     A.U. after    8 cycles
 SCF Done:  E(RB3LYP) =  -1099.42192596     A.U. after    8 cycles
 Optimization completed.
    -- Stationary point found.
 Normal termination of Gaussian 16 at Thu Dec 10 23:00:26 2020.

 --------------------------------------------------------------------
 #N Geom=AllCheck Guess=TCheck SCRF=Check GenChk RB3LYP/6-31G(d) Freq
 --------------------------------------------------------------------

 Structure from the checkpoint file:  "JID_6694.chk"
 -------------------------------
 CID_115490697_JID_6694_neutraal
 -------------------------------
 Charge =  0 Multiplicity = 1

 SCF Done:  E(RB3LYP) =  -1099.42192596     A.U. after    1 cycles

  Exact polarizability: 203.100  23.508 124.571  -1.549 -10.177 106.041
 Approx polarizability: 292.026  64.676 231.396  -8.229 -32.002 193.770

                      1                      2                      3
                      A                      A                      A
 Frequencies --     15.3451                26.4379                38.7460
 Red. masses --      8.2134                 8.3426                 8.5557
 Frc consts  --      0.0011                 0.0034                 0.0076
 IR Inten    --      0.5580                 0.9031                 2.8486

                      4                      5                      6
                      A                      A                      A
 Frequencies --     66.5165                93.9449               143.3304
 Red. masses --      5.4367                 7.7735                 6.4920
 Frc consts  --      0.0142                 0.0404                 0.0786
 IR Inten    --      0.4660                 1.4980                 0.4730

                      7                      8                      9
                      A                      A                      A
 Frequencies --    161.5564               215.0582               277.6952
 Red. masses --      5.9038                 6.7037                 5.5764
 Frc consts  --      0.0908                 0.1827                 0.2534
 IR Inten    --      0.4877                 1.6047                 0.8426

                     10                     11                     12
                      A                      A                      A
 Frequencies --    330.3223               343.4104               369.4657
 Red. masses --      3.9621                 2.8299                 6.3796
 Frc consts  --      0.2547                 0.1966                 0.5131
 IR Inten    --      2.1507                 0.2653                 5.3618

                     13                     14                     15
                      A                      A                      A
 Frequencies --    424.9471               464.1188               505.3974
 Red. masses --      3.3541                 3.2223                 3.8464
 Frc consts  --      0.3569                 0.4090                 0.5789
 IR Inten    --      7.0251                20.9582                28.3017

                     16                     17                     18
                      A                      A                      A
 Frequencies --    514.0547               543.6475               575.0731
 Red. masses --      4.7754                 3.4815                 2.9531
 Frc consts  --      0.7435                 0.6063                 0.5754
 IR Inten    --      3.3127                38.3532                70.8133

                     19                     20                     21
                      A                      A                      A
 Frequencies --    598.6612               603.5678               625.1068
 Red. masses --      4.4096                 1.3137                 3.4021
 Frc consts  --      0.9311                 0.2820                 0.7833
 IR Inten    --     23.6838                61.1809                40.9645

                     22                     23                     24
                      A                      A                      A
 Frequencies --    636.5445               653.9848               697.1926
 Red. masses --      3.0827                 5.6912                 4.6432
 Frc consts  --      0.7359                 1.4341                 1.3297
 IR Inten    --     13.5673                20.3468                29.2019

                     25                     26                     27
                      A                      A                      A
 Frequencies --    721.8012               740.3677               743.6462
 Red. masses --      3.4275                 3.6865                 1.4039
 Frc consts  --      1.0521                 1.1906                 0.4574
 IR Inten    --     61.6984                34.6781                40.4115

                     28                     29                     30
                      A                      A                      A
 Frequencies --    774.3965               797.9562               848.7079
 Red. masses --      6.7072                 6.3040                 4.9593
 Frc consts  --      2.3698                 2.3650                 2.1047
 IR Inten    --     22.6377                22.1175                 0.1047

                     31                     32                     33
                      A                      A                      A
 Frequencies --    857.0834               890.6200               896.9192
 Red. masses --      1.6851                 4.7027                 1.3180
 Frc consts  --      0.7293                 2.1978                 0.6247
 IR Inten    --     22.3968                 1.3754                 1.2546

                     34                     35                     36
                      A                      A                      A
 Frequencies --    910.7332               977.8795               978.6568
 Red. masses --      1.4118                 1.5546                 1.7574
 Frc consts  --      0.6899                 0.8759                 0.9917
 IR Inten    --      5.1872                 1.1048                 1.4847

                     37                     38                     39
                      A                      A                      A
 Frequencies --   1032.8156              1084.0656              1095.0022
 Red. masses --      3.4881                 4.2691                 1.4018
 Frc consts  --      2.1922                 2.9559                 0.9903
 IR Inten    --      7.2100                35.7100                 6.6600

                     40                     41                     42
                      A                      A                      A
 Frequencies --   1131.4155              1154.2861              1179.0285
 Red. masses --      3.6072                 2.6468                 1.3166
 Frc consts  --      2.7206                 2.0778                 1.0783
 IR Inten    --    175.0749               179.6184                74.3909

                     43                     44                     45
                      A                      A                      A
 Frequencies --   1220.9508              1223.5600              1280.5274
 Red. masses --      2.3787                 2.0070                 1.5222
 Frc consts  --      2.0892                 1.7703                 1.4706
 IR Inten    --     26.8012               141.3676                24.9714

                     46                     47                     48
                      A                      A                      A
 Frequencies --   1319.9954              1345.6494              1348.6938
 Red. masses --      2.2758                 2.3301                 1.8343
 Frc consts  --      2.3363                 2.4860                 1.9659
 IR Inten    --     72.5416                47.9138               102.6526

                     49                     50                     51
                      A                      A                      A
 Frequencies --   1359.6522              1389.5879              1397.9783
 Red. masses --      2.0113                 1.5272                 2.0185
 Frc consts  --      2.1907                 1.7374                 2.3243
 IR Inten    --      0.3538                30.2461                63.7552

                     52                     53                     54
                      A                      A                      A
 Frequencies --   1449.8158              1488.2210              1511.5045
 Red. masses --      3.2652                 5.4937                 1.1125
 Frc consts  --      4.0438                 7.1688                 1.4976
 IR Inten    --     48.3821                 6.5170                13.7625

                     55                     56                     57
                      A                      A                      A
 Frequencies --   1530.5532              1552.3036              1567.1974
 Red. masses --      1.6164                 3.1245                 5.3685
 Frc consts  --      2.2309                 4.4359                 7.7687
 IR Inten    --      2.4061                29.7643                51.5950

                     58                     59                     60
                      A                      A                      A
 Frequencies --   1622.3817              1646.6430              1844.2487
 Red. masses --      3.8350                 5.9026                10.0239
 Frc consts  --      5.9473                 9.4297                20.0875
 IR Inten    --     23.9719               218.8958               322.1323

                     61                     62                     63
                      A                      A                      A
 Frequencies --   3102.4000              3149.1123              3182.2032
 Red. masses --      1.0600                 1.1064                 1.0889
 Frc consts  --      6.0109                 6.4645                 6.4966
 IR Inten    --     16.3686                 6.7353                37.5524

                     64                     65                     66
                      A                      A                      A
 Frequencies --   3183.3404              3237.3004              3243.0522
 Red. masses --      1.0903                 1.0914                 1.0929
 Frc consts  --      6.5099                 6.7392                 6.7725
 IR Inten    --     13.6900                 9.0359                 1.5234

                     67                     68                     69
                      A                      A                      A
 Frequencies --   3282.6742              3571.2163              3704.8035
 Red. masses --      1.0981                 1.0756                 1.0642
 Frc consts  --      6.9718                 8.0824                 8.6062
 IR Inten    --      1.3781                16.9526                78.3483

 - Thermochemistry -
 -------------------
 Temperature   298.150 Kelvin.  Pressure   1.00000 Atm.
 Atom     1 has atomic number  6 and mass  12.00000

 Molecular mass:   235.04155 amu.
 Principal axes and moments of inertia in atomic units:
                           1         2         3
     Eigenvalues --  1649.163647869.738818517.02185
           X            0.99999  -0.00172   0.00298
           Y            0.00168   0.99990   0.01427
           Z           -0.00301  -0.01427   0.99989
 This molecule is an asymmetric top.
 Rotational symmetry number  1.
 Warning -- assumption of classical behavior for rotation
           may cause significant error
 Rotational temperatures (Kelvin)      0.05252     0.01101     0.01017
 Rotational constants (GHZ):           1.09434     0.22933     0.21190
 Zero-point vibrational energy     487448.8 (Joules/Mol)
                                  116.50306 (Kcal/Mol)
 Warning -- explicit consideration of  20 degrees of freedom as
           vibrations may cause significant error
 Vibrational temperatures:     22.08    38.04    55.75    95.70   135.17
          (Kelvin)            206.22   232.44   309.42   399.54   475.26
                              494.09   531.58   611.40   667.76   727.15
                              739.61   782.19   827.40   861.34   868.40
                              899.39   915.85   940.94  1003.10  1038.51
                             1065.22  1069.94  1114.18  1148.08  1221.10
                             1233.15  1281.40  1290.47  1310.34  1406.95
                             1408.07  1485.99  1559.73  1575.46  1627.85
                             1660.76  1696.36  1756.68  1760.43  1842.39
                             1899.18  1936.09  1940.47  1956.24  1999.31
                             2011.38  2085.96  2141.22  2174.72  2202.12
                             2233.42  2254.85  2334.25  2369.15  2653.46
                             4463.66  4530.87  4578.48  4580.12  4657.75
                             4666.03  4723.04  5138.18  5330.39

 Zero-point correction=                           0.185659 (Hartree/Particle)
 Thermal correction to Energy=                    0.199352
 Thermal correction to Enthalpy=                  0.200296
 Thermal correction to Gibbs Free Energy=         0.141712
 Sum of electronic and zero-point Energies=          -1099.236267
 Sum of electronic and thermal Energies=             -1099.222574
 Sum of electronic and thermal Enthalpies=           -1099.221630
 Sum of electronic and thermal Free Energies=        -1099.280214

                     E (Thermal)             CV                S
                      KCal/Mol        Cal/Mol-Kelvin    Cal/Mol-Kelvin
 Total                  125.095             51.619            123.301
 Electronic               0.000              0.000              0.000
 Translational            0.889              2.981             42.265
 Rotational               0.889              2.981             33.069
 Vibrational            123.318             45.657             47.967
 Vibration     1          0.593              1.986              7.160
 Vibration     2          0.593              1.985              6.080
 Vibration     3          0.594              1.981              5.322
 Vibration     4          0.598              1.970              4.254
 Vibration     5          0.603              1.954              3.576
 Vibration     6          0.616              1.910              2.759
 Vibration     7          0.622              1.890              2.531
 Vibration     8          0.645              1.818              2.000
 Vibration     9          0.679              1.715              1.548
 Vibration    10          0.713              1.615              1.259
 Vibration    11          0.722              1.589              1.196
 Vibration    12          0.742              1.535              1.082
 Vibration    13          0.787              1.416              0.875
 Vibration    14          0.822              1.330              0.754
 Vibration    15          0.861              1.238              0.645
 Vibration    16          0.869              1.219              0.624
 Vibration    17          0.899              1.154              0.557
 Vibration    18          0.931              1.085              0.495
 Vibration    19          0.957              1.035              0.452
 Vibration    20          0.962              1.024              0.444

 Optimization completed.
    -- Stationary point found.
 Normal termination of Gaussian 16 at Thu Dec 10 23:08:09 2020.

 ----------------------------------------------------------------------
 # B3LYP/6-311++G(d,p) empiricaldispersion=gd3bj scf=xqc pop=npa geom=c
 heck
 ----------------------------------------------------------------------

 ---------------------------------------
 CID_115490697_JID_6694_Energie_neutraal
 ---------------------------------------
 Structure from the checkpoint file:  "JID_6694.chk"
 Charge =  0 Multiplicity = 1

 SCF Done:  E(RB3LYP) =  -1099.65025132     A.U. after   16 cycles
 Normal termination of Gaussian 16 at Thu Dec 10 23:11:02 2020.

 ----------------------------------------------------------------------
 # B3LYP/6-311++G(d,p) empiricaldispersion=gd3bj scf=xqc pop=npa geom=c
 heck
 ----------------------------------------------------------------------

 -------------------------------------
 CID_115490697_JID_6694_Energie_kation
 -------------------------------------
 Structure from the checkpoint file:  "JID_6694.chk"
 Charge =  1 Multiplicity = 2

 SCF Done:  E(UB3LYP) =  -1099.35240717     A.U. after   27 cycles
 Normal termination of Gaussian 16 at Thu Dec 10 23:17:42 2020.
 Gaussian 16:  ES64L-G16RevA.03 25-Dec-2016

 ----------------------------------------------------------------------
 # B3LYP/6-311++G(d,p) empiricaldispersion=gd3bj scf=xqc pop=npa geom=c
 heck
 ----------------------------------------------------------------------

 ------------------------------------
 CID_115490697_JID_6694_Energie_anion
 ------------------------------------
 Structure from the checkpoint file:  "JID_6694.chk"
 Charge = -1 Multiplicity = 2

                         Standard orientation:
 ---------------------------------------------------------------------
 Center     Atomic      Atomic             Coordinates (Angstroms)
 Number     Number       Type             X           Y           Z
 ---------------------------------------------------------------------
      1          6           0       -1.090356    1.586337   -0.913669
      2          6           0       -2.319419    0.952371   -0.987975
      3          6           0       -2.668867    0.026783    0.005319
      4          7           0       -1.850667   -0.264969    1.026648
      5          6           0       -0.675105    0.343374    1.096515
      6          6           0       -0.222542    1.295324    0.152802
      7          7           0        0.985521    1.958960    0.271770
      8          6           0        2.112870    1.418523    1.027092
      9          6           0        2.820510    0.291115    0.320724
     10          7           0        3.882535    0.476226   -0.415132
     11          6           0        4.283794   -0.696661   -1.012442
     12          6           0        3.521188   -1.795911   -0.738883
     13         16           0        2.221144   -1.361674    0.321854
     14          6           0       -3.972112   -0.694691   -0.012811
     15          8           0       -4.349262   -1.509359    0.798335
     16          8           0       -4.736907   -0.330988   -1.084271
     17          1           0       -0.793223    2.307263   -1.671600
     18          1           0       -3.002617    1.160817   -1.802230
     19          1           0       -0.054621    0.069043    1.945930
     20          1           0        1.276077    2.433442   -0.575263
     21          1           0        2.841295    2.221917    1.159217
     22          1           0        1.769808    1.121385    2.020218
     23          1           0        5.160806   -0.691612   -1.648999
     24          1           0        3.647314   -2.810124   -1.090856
     25          1           0       -5.555269   -0.853478   -1.001625
 ---------------------------------------------------------------------

 SCF Done:  E(UB3LYP) =  -1099.66097614     A.U. after   29 cycles

 The electronic state is 2-A.
 Alpha  occ. eigenvalues --  -88.75533 -19.03292 -18.95938 -14.21353 -14.18951
 Alpha  occ. eigenvalues --  -14.15820 -10.14494 -10.10519 -10.10258 -10.08353
 Alpha  occ. eigenvalues --  -10.08241 -10.07649 -10.06694 -10.05633 -10.05117
 Alpha  occ. eigenvalues --  -10.04890  -7.84171  -5.80443  -5.80089  -5.79799
 Alpha  occ. eigenvalues --   -0.96766  -0.87383  -0.84595  -0.82574  -0.79558
 Alpha  occ. eigenvalues --   -0.67719  -0.67318  -0.64748  -0.62353  -0.57339
 Alpha  occ. eigenvalues --   -0.53543  -0.49551  -0.47406  -0.46809  -0.43134
 Alpha  occ. eigenvalues --   -0.41146  -0.39082  -0.38369  -0.37431  -0.34693
 Alpha  occ. eigenvalues --   -0.33379  -0.32118  -0.31785  -0.31567  -0.30857
 Alpha  occ. eigenvalues --   -0.29122  -0.28256  -0.27195  -0.26540  -0.26121
 Alpha  occ. eigenvalues --   -0.25111  -0.24395  -0.20453  -0.18767  -0.16819
 Alpha  occ. eigenvalues --   -0.16106  -0.15190  -0.13858  -0.13307  -0.11828
 Alpha  occ. eigenvalues --   -0.09102   0.04242
 Alpha virt. eigenvalues --    0.07493   0.07891   0.08523   0.08996   0.09593
 Alpha virt. eigenvalues --    0.09819   0.10358   0.10870   0.12220   0.13103
 Alpha virt. eigenvalues --    0.13636   0.14117   0.14347   0.14773   0.15249

  Beta  occ. eigenvalues --  -88.75505 -19.03236 -18.95735 -14.21320 -14.18875
  Beta  occ. eigenvalues --  -14.15441 -10.14318 -10.10526 -10.09997 -10.08360
  Beta  occ. eigenvalues --  -10.07998 -10.07457 -10.06788 -10.05494 -10.05126
  Beta  occ. eigenvalues --  -10.04830  -7.84145  -5.80435  -5.80080  -5.79695
  Beta  occ. eigenvalues --   -0.96547  -0.87075  -0.84351  -0.82357  -0.79096
  Beta  occ. eigenvalues --   -0.67454  -0.67004  -0.64464  -0.62029  -0.57184
  Beta  occ. eigenvalues --   -0.53141  -0.49396  -0.47185  -0.46550  -0.42881
  Beta  occ. eigenvalues --   -0.41009  -0.38942  -0.38182  -0.37234  -0.34501
  Beta  occ. eigenvalues --   -0.33225  -0.31889  -0.31605  -0.30756  -0.30530
  Beta  occ. eigenvalues --   -0.29021  -0.27684  -0.26827  -0.26207  -0.25868
  Beta  occ. eigenvalues --   -0.24863  -0.24170  -0.19567  -0.17882  -0.16099
  Beta  occ. eigenvalues --   -0.15880  -0.14464  -0.13645  -0.12328  -0.11377
  Beta  occ. eigenvalues --   -0.08357
  Beta virt. eigenvalues --    0.07759   0.08386   0.08716   0.09100   0.09579
  Beta virt. eigenvalues --    0.09844   0.10222   0.10586   0.10862   0.12196
  Beta virt. eigenvalues --    0.13149   0.13718   0.14219   0.14656   0.14840

 Mulliken charges and spin densities:
               1          2
     1  C   -0.258720   0.043004
     2  C   -0.039764   0.020888
     3  C   -0.521777   0.084570
     4  N    0.025625   0.173873
     5  C   -0.108877  -0.053211
     6  C   -0.202442   0.139231
     7  N    0.124683  -0.000170
     8  C   -0.812364  -0.097610
     9  C    0.283432   0.189207
    10  N   -0.051456   0.031373
    11  C   -0.265914  -0.018119
    12  C   -0.128869   0.139537
    13  S   -0.167487   0.069742
    14  C    0.228360   0.101219
    15  O   -0.377382   0.072528
    16  O   -0.233676   0.011190
    17  H    0.109832  -0.003655
    18  H    0.194156   0.000777
    19  H    0.152165   0.012627
    20  H    0.215219   0.013076
    21  H    0.152254   0.009606
    22  H    0.117435   0.056504
    23  H    0.115750   0.005483
    24  H    0.184858  -0.001175
    25  H    0.264960  -0.000496
 Sum of Mulliken charges =  -1.00000   1.00000

 Dipole moment (field-independent basis, Debye):
    X=              3.3578    Y=              2.0855    Z=             -2.5232  Tot=              4.6894
 Quadrupole moment (field-independent basis, Debye-Ang):
   XX=           -158.6056   YY=           -112.2476   ZZ=           -110.2117
   XY=             -9.4025   XZ=             10.6686   YZ=              4.5086

 Summary of Natural Population Analysis:

                                       Natural Population
                Natural  -----------------------------------------------
    Atom  No    Charge         Core      Valence    Rydberg      Total
 -----------------------------------------------------------------------
      C    1   -0.11104      0.99954     2.10283    0.00867     3.11104
      C    2   -0.09670      0.99955     2.08891    0.00824     3.09670
      C    3    0.03884      0.99948     1.94774    0.01394     2.96116
      N    4   -0.14854      0.99968     2.63817    0.01068     3.64854
      C    5   -0.02372      0.99957     2.01089    0.01326     3.02372
      C    6    0.11287      0.99949     1.87621    0.01142     2.88713
      N    7   -0.30523      0.99969     2.79443    0.01112     3.80523
      C    8   -0.10670      0.99956     2.09509    0.01205     3.10670
      C    9    0.06278      0.99961     1.91925    0.01835     2.93722
      N   10   -0.24596      0.99965     2.73443    0.01188     3.74596
      C   11   -0.03317      0.99955     2.01902    0.01460     3.03317
      C   12   -0.18608      0.99955     2.17642    0.01010     3.18608
      S   13    0.19999      4.99944     2.77967    0.02090     7.80001
      C   14    0.40826      0.99968     1.56705    0.02501     2.59174
      O   15   -0.29638      0.99987     3.28912    0.00739     4.29638
      O   16   -0.35834      0.99988     3.35272    0.00574     4.35834
      H   17    0.09081      0.00000     0.40771    0.00148     0.40919
      H   18    0.10453      0.00000     0.39426    0.00122     0.39547
      H   19    0.08430      0.00000     0.41452    0.00118     0.41570
      H   20    0.18139      0.00000     0.31673    0.00188     0.31861
      H   21    0.10381      0.00000     0.39339    0.00280     0.39619
      H   22    0.10116      0.00000     0.39710    0.00174     0.39884
      H   23    0.09125      0.00000     0.40761    0.00114     0.40875
      H   24    0.10368      0.00000     0.39520    0.00112     0.39632
      H   25    0.22818      0.00000     0.26580    0.00602     0.27182
 =======================================================================
   * Total *   -0.00000     19.99380    40.78426    0.22194    61.00000

 Normal termination of Gaussian 16 at Thu Dec 10 23:24:23 2020.
