 Gaussian 16, Revision A.03,

 -----------------------------------------------------------
 # opt freq B3LYP/6-31G(d) empiricaldispersion=gd3bj scf=xqc
 -----------------------------------------------------------

 -------------------------------
 CID_117640438_JID_1604_neutraal
 -------------------------------
 Symbolic Z-matrix:
 Charge =  0 Multiplicity = 1

 SCF Done:  E(RB3LYP) =  -444.795143293     A.U. after   14 cycles
 SCF Done:  E(RB3LYP) =  -444.813439461     A.U. after   12 cycles
 SCF Done:  E(RB3LYP) =  -444.814156515     A.U. after   13 cycles
 SCF Done:  E(RB3LYP) =  -444.809848228     A.U. after   13 cycles
 SCF Done:  E(RB3LYP) =  -444.814242208     A.U. after   12 cycles
 SCF Done:  E(RB3LYP) =  -444.814682057     A.U. after   12 cycles
 SCF Done:  E(RB3LYP) =  -444.815250392     A.U. after   12 cycles
 SCF Done:  E(RB3LYP) =  -444.814991851     A.U. after   12 cycles
 SCF Done:  E(RB3LYP) =  -444.815386572     A.U. after   12 cycles
 SCF Done:  E(RB3LYP) =  -444.815479092     A.U. after   12 cycles
 SCF Done:  E(RB3LYP) =  -444.815889477     A.U. after    9 cycles
 SCF Done:  E(RB3LYP) =  -444.815889772     A.U. after    8 cycles
 SCF Done:  E(RB3LYP) =  -444.815889986     A.U. after    8 cycles
 SCF Done:  E(RB3LYP) =  -444.815889995     A.U. after    7 cycles
 SCF Done:  E(RB3LYP) =  -444.815890004     A.U. after    7 cycles
 Optimization completed.
    -- Stationary point found.
 Normal termination of Gaussian 16 at Tue Dec  8 20:45:18 2020.

 --------------------------------------------------------------------
 #N Geom=AllCheck Guess=TCheck SCRF=Check GenChk RB3LYP/6-31G(d) Freq
 --------------------------------------------------------------------

 Structure from the checkpoint file:  "JID_1604.chk"
 -------------------------------
 CID_117640438_JID_1604_neutraal
 -------------------------------
 Charge =  0 Multiplicity = 1

 SCF Done:  E(RB3LYP) =  -444.815890004     A.U. after    1 cycles

  Exact polarizability: 116.005  -3.730 110.514   7.369  -5.551  83.111
 Approx polarizability: 144.894 -11.440 172.613  13.127 -16.510 126.901

                      1                      2                      3
                      A                      A                      A
 Frequencies --     28.6916                38.0391                79.0727
 Red. masses --      3.7636                 4.0447                 2.8290
 Frc consts  --      0.0018                 0.0034                 0.0104
 IR Inten    --      0.3791                 0.1635                 0.1580

                      4                      5                      6
                      A                      A                      A
 Frequencies --    132.2484               145.9748               236.8921
 Red. masses --      3.1367                 2.6716                 2.5810
 Frc consts  --      0.0323                 0.0335                 0.0853
 IR Inten    --      0.5948                 0.3232                 4.9774

                      7                      8                      9
                      A                      A                      A
 Frequencies --    261.7164               306.8048               350.4129
 Red. masses --      2.9422                 1.8926                 2.8201
 Frc consts  --      0.1187                 0.1050                 0.2040
 IR Inten    --      1.0630                 0.5395                 4.6439

                     10                     11                     12
                      A                      A                      A
 Frequencies --    373.5924               403.4244               448.3790
 Red. masses --      2.1250                 2.7180                 2.9193
 Frc consts  --      0.1747                 0.2606                 0.3458
 IR Inten    --      2.4383                 1.4594                 0.7736

                     13                     14                     15
                      A                      A                      A
 Frequencies --    471.0493               541.5322               574.7670
 Red. masses --      2.3377                 3.4153                 3.1221
 Frc consts  --      0.3056                 0.5901                 0.6077
 IR Inten    --      1.0367                 0.7759                 1.4987

                     16                     17                     18
                      A                      A                      A
 Frequencies --    595.9950               614.5718               649.6295
 Red. masses --      1.2050                 1.1988                 2.1740
 Frc consts  --      0.2522                 0.2668                 0.5405
 IR Inten    --     48.9831                44.7821                 1.3199

                     19                     20                     21
                      A                      A                      A
 Frequencies --    758.5240               796.4440               845.1138
 Red. masses --      2.8186                 1.7141                 1.8249
 Frc consts  --      0.9555                 0.6406                 0.7679
 IR Inten    --      1.7234                 2.6535                 1.3465

                     22                     23                     24
                      A                      A                      A
 Frequencies --    852.3175               879.5714               902.5434
 Red. masses --      2.3308                 2.4224                 1.8691
 Frc consts  --      0.9976                 1.1042                 0.8970
 IR Inten    --      0.2141                 0.5309                 2.4706

                     25                     26                     27
                      A                      A                      A
 Frequencies --    923.5540               941.0576               967.2209
 Red. masses --      1.9470                 1.9106                 2.6664
 Frc consts  --      0.9784                 0.9969                 1.4697
 IR Inten    --      6.2684                 6.9998                 1.8466

                     28                     29                     30
                      A                      A                      A
 Frequencies --   1023.5752              1037.8574              1074.0877
 Red. masses --      1.8439                 1.9443                 2.4759
 Frc consts  --      1.1382                 1.2339                 1.6829
 IR Inten    --      7.2037                 4.0058                 2.0812

                     31                     32                     33
                      A                      A                      A
 Frequencies --   1080.5656              1119.1590              1126.8727
 Red. masses --      1.8274                 2.5745                 1.8104
 Frc consts  --      1.2571                 1.8999                 1.3545
 IR Inten    --      1.3710                 3.4396                 0.5681

                     34                     35                     36
                      A                      A                      A
 Frequencies --   1165.0827              1177.2168              1213.6318
 Red. masses --      1.6032                 1.4014                 1.3637
 Frc consts  --      1.2822                 1.1443                 1.1835
 IR Inten    --      7.3017                 2.2658                 0.1138

                     37                     38                     39
                      A                      A                      A
 Frequencies --   1221.8818              1252.2474              1294.4642
 Red. masses --      1.1968                 1.5989                 1.2395
 Frc consts  --      1.0527                 1.4772                 1.2237
 IR Inten    --      1.1727                 7.9473                 1.6285

                     40                     41                     42
                      A                      A                      A
 Frequencies --   1309.3107              1318.1154              1362.9903
 Red. masses --      1.1929                 1.1488                 1.4739
 Frc consts  --      1.2049                 1.1760                 1.6132
 IR Inten    --      0.8534                 6.4011                 8.0527

                     43                     44                     45
                      A                      A                      A
 Frequencies --   1377.8883              1385.7311              1390.7452
 Red. masses --      1.3668                 1.4321                 1.3763
 Frc consts  --      1.5290                 1.6203                 1.5684
 IR Inten    --      6.1669                 7.4517                 4.3339

                     46                     47                     48
                      A                      A                      A
 Frequencies --   1397.2135              1407.0991              1408.5793
 Red. masses --      1.3711                 1.5603                 1.6351
 Frc consts  --      1.5770                 1.8202                 1.9114
 IR Inten    --     12.8483                15.5886                 5.1796

                     49                     50                     51
                      A                      A                      A
 Frequencies --   1496.3817              1502.2175              1506.6903
 Red. masses --      1.0902                 1.0910                 1.0908
 Frc consts  --      1.4383                 1.4505                 1.4590
 IR Inten    --      4.8478                 3.4462                11.2137

                     52                     53                     54
                      A                      A                      A
 Frequencies --   1510.0113              1517.9485              1521.0159
 Red. masses --      1.0855                 1.0892                 1.0872
 Frc consts  --      1.4583                 1.4787                 1.4819
 IR Inten    --      2.2563                 4.2293                 1.9002

                     55                     56                     57
                      A                      A                      A
 Frequencies --   1532.4589              1748.9563              2243.6230
 Red. masses --      1.1021                 8.3308                 5.9770
 Frc consts  --      1.5249                15.0140                17.7270
 IR Inten    --      2.2288                50.0378                 1.5166

                     58                     59                     60
                      A                      A                      A
 Frequencies --   3021.6453              3024.3788              3032.0584
 Red. masses --      1.0667                 1.0704                 1.0662
 Frc consts  --      5.7385                 5.7683                 5.7751
 IR Inten    --     24.3997                25.3830                15.1762

                     61                     62                     63
                      A                      A                      A
 Frequencies --   3033.5635              3036.4989              3040.2932
 Red. masses --      1.0687                 1.0591                 1.0630
 Frc consts  --      5.7945                 5.7535                 5.7893
 IR Inten    --     26.9093                16.5110                23.6780

                     64                     65                     66
                      A                      A                      A
 Frequencies --   3055.3533              3065.9945              3069.6635
 Red. masses --      1.0657                 1.0921                 1.0936
 Frc consts  --      5.8616                 6.0484                 6.0715
 IR Inten    --     35.5642                44.3939                33.2808

                     67                     68                     69
                      A                      A                      A
 Frequencies --   3070.0409              3084.5302              3089.6162
 Red. masses --      1.0981                 1.0971                 1.1046
 Frc consts  --      6.0980                 6.1499                 6.2126
 IR Inten    --     29.9458                57.7416                51.7558

                     70                     71                     72
                      A                      A                      A
 Frequencies --   3097.3985              3126.5445              3497.9257
 Red. masses --      1.1023                 1.0948                 1.1600
 Frc consts  --      6.2306                 6.3052                 8.3624
 IR Inten    --     36.0020                16.1181                52.7469

 - Thermochemistry -
 -------------------
 Temperature   298.150 Kelvin.  Pressure   1.00000 Atm.
 Atom     1 has atomic number  6 and mass  12.00000

 Molecular mass:   149.12045 amu.
 Principal axes and moments of inertia in atomic units:
                           1         2         3
     Eigenvalues --   903.664882842.000703239.35101
           X            0.99992   0.00952   0.00788
           Y           -0.00951   0.99995  -0.00097
           Z           -0.00789   0.00089   0.99997
 This molecule is an asymmetric top.
 Rotational symmetry number  1.
 Warning -- assumption of classical behavior for rotation
           may cause significant error
 Rotational temperatures (Kelvin)      0.09585     0.03048     0.02674
 Rotational constants (GHZ):           1.99714     0.63502     0.55713
 Zero-point vibrational energy     605240.2 (Joules/Mol)
                                  144.65589 (Kcal/Mol)
 Warning -- explicit consideration of  17 degrees of freedom as
           vibrations may cause significant error
 Vibrational temperatures:     41.28    54.73   113.77   190.28   210.03
          (Kelvin)            340.83   376.55   441.42   504.17   537.52
                              580.44   645.12   677.73   779.14   826.96
                              857.50   884.23   934.67  1091.35  1145.91
                             1215.93  1226.29  1265.51  1298.56  1328.79
                             1353.97  1391.62  1472.70  1493.25  1545.37
                             1554.69  1610.22  1621.32  1676.29  1693.75
                             1746.15  1758.02  1801.70  1862.45  1883.81
                             1896.47  1961.04  1982.47  1993.76  2000.97
                             2010.28  2024.50  2026.63  2152.96  2161.36
                             2167.79  2172.57  2183.99  2188.40  2204.87
                             2516.36  3228.07  4347.47  4351.41  4362.46
                             4364.62  4368.84  4374.30  4395.97  4411.28
                             4416.56  4417.10  4437.95  4445.27  4456.47
                             4498.40  5032.73

 Zero-point correction=                           0.230524 (Hartree/Particle)
 Thermal correction to Energy=                    0.241838
 Thermal correction to Enthalpy=                  0.242782
 Thermal correction to Gibbs Free Energy=         0.192196
 Sum of electronic and zero-point Energies=           -444.585366
 Sum of electronic and thermal Energies=              -444.574052
 Sum of electronic and thermal Enthalpies=            -444.573108
 Sum of electronic and thermal Free Energies=         -444.623694

                     E (Thermal)             CV                S
                      KCal/Mol        Cal/Mol-Kelvin    Cal/Mol-Kelvin
 Total                  151.756             42.805            106.468
 Electronic               0.000              0.000              0.000
 Translational            0.889              2.981             40.909
 Rotational               0.889              2.981             30.499
 Vibrational            149.978             36.843             35.060
 Vibration     1          0.593              1.984              5.918
 Vibration     2          0.594              1.982              5.359
 Vibration     3          0.600              1.963              3.914
 Vibration     4          0.612              1.921              2.913
 Vibration     5          0.617              1.907              2.724
 Vibration     6          0.656              1.784              1.826
 Vibration     7          0.669              1.743              1.650
 Vibration     8          0.697              1.661              1.380
 Vibration     9          0.727              1.574              1.164
 Vibration    10          0.745              1.526              1.065
 Vibration    11          0.769              1.463              0.950
 Vibration    12          0.807              1.364              0.801
 Vibration    13          0.828              1.314              0.735
 Vibration    14          0.897              1.158              0.562
 Vibration    15          0.931              1.086              0.495
 Vibration    16          0.954              1.040              0.457
 Vibration    17          0.974              1.001              0.425

 Optimization completed.
    -- Stationary point found.
 Normal termination of Gaussian 16 at Tue Dec  8 20:51:56 2020.

 ----------------------------------------------------------------------
 # B3LYP/6-311++G(d,p) empiricaldispersion=gd3bj scf=xqc pop=npa geom=c
 heck
 ----------------------------------------------------------------------

 ---------------------------------------
 CID_117640438_JID_1604_Energie_neutraal
 ---------------------------------------
 Structure from the checkpoint file:  "JID_1604.chk"
 Charge =  0 Multiplicity = 1

 SCF Done:  E(RB3LYP) =  -444.939371802     A.U. after   14 cycles
 Normal termination of Gaussian 16 at Tue Dec  8 20:55:54 2020.

 ----------------------------------------------------------------------
 # B3LYP/6-311++G(d,p) empiricaldispersion=gd3bj scf=xqc pop=npa geom=c
 heck
 ----------------------------------------------------------------------

 -------------------------------------
 CID_117640438_JID_1604_Energie_kation
 -------------------------------------
 Structure from the checkpoint file:  "JID_1604.chk"
 Charge =  1 Multiplicity = 2

 SCF Done:  E(UB3LYP) =  -444.631342115     A.U. after   26 cycles
 Normal termination of Gaussian 16 at Tue Dec  8 21:04:50 2020.
 Gaussian 16:  ES64L-G16RevA.03 25-Dec-2016

 ----------------------------------------------------------------------
 # B3LYP/6-311++G(d,p) empiricaldispersion=gd3bj scf=xqc pop=npa geom=c
 heck
 ----------------------------------------------------------------------

 ------------------------------------
 CID_117640438_JID_1604_Energie_anion
 ------------------------------------
 Structure from the checkpoint file:  "JID_1604.chk"
 Charge = -1 Multiplicity = 2

                         Standard orientation:
 ---------------------------------------------------------------------
 Center     Atomic      Atomic             Coordinates (Angstroms)
 Number     Number       Type             X           Y           Z
 ---------------------------------------------------------------------
      1          6           0       -3.694022    1.440576   -0.056349
      2          6           0       -2.979837    0.606705    0.445730
      3          6           0       -2.122714   -0.425620    1.026495
      4          6           0       -1.666381   -1.475928   -0.007973
      5          6           0       -0.780856   -0.881398   -1.117731
      6          6           0        0.507088   -0.282964   -0.593554
      7          7           0        0.688212    0.971661   -0.745707
      8          6           0        1.904043    1.608911   -0.241092
      9          6           0        2.730951    0.793296    0.757930
     10          6           0        2.871177   -0.642611    0.251470
     11          6           0        1.473901   -1.244859    0.085518
     12          1           0       -4.313834    2.188133   -0.495655
     13          1           0       -1.241488    0.049819    1.477789
     14          1           0       -2.658015   -0.928735    1.842462
     15          1           0       -1.131208   -2.273820    0.521356
     16          1           0       -2.550396   -1.936012   -0.463282
     17          1           0       -0.543278   -1.676561   -1.838570
     18          1           0       -1.328454   -0.095698   -1.645087
     19          1           0        1.603904    2.567952    0.198531
     20          1           0        2.516634    1.862350   -1.119011
     21          1           0        2.226003    0.785965    1.734115
     22          1           0        3.709727    1.264262    0.907424
     23          1           0        3.386811   -0.637782   -0.718412
     24          1           0        3.475682   -1.253007    0.931698
     25          1           0        1.506074   -2.181205   -0.486586
     26          1           0        1.064253   -1.513933    1.070505
 ---------------------------------------------------------------------

 SCF Done:  E(UB3LYP) =  -444.924366723     A.U. after   33 cycles
 SCF Done:  E(UB3LYP) =  -444.924366723     a.u. after    1 cycles

 The electronic state is 2-A.
 Alpha  occ. eigenvalues --  -14.18885 -10.10501 -10.09109 -10.08514 -10.07760
 Alpha  occ. eigenvalues --  -10.07411 -10.06393 -10.06288 -10.06285 -10.05997
 Alpha  occ. eigenvalues --  -10.05935  -0.81690  -0.71501  -0.68289  -0.66670
 Alpha  occ. eigenvalues --   -0.63392  -0.59294  -0.53958  -0.51801  -0.48424
 Alpha  occ. eigenvalues --   -0.43464  -0.40209  -0.38299  -0.37062  -0.36652
 Alpha  occ. eigenvalues --   -0.34376  -0.33999  -0.32677  -0.31589  -0.29049
 Alpha  occ. eigenvalues --   -0.28846  -0.26235  -0.25967  -0.25400  -0.23739
 Alpha  occ. eigenvalues --   -0.22802  -0.21843  -0.17775  -0.17403  -0.17016
 Alpha  occ. eigenvalues --   -0.13076   0.04701
 Alpha virt. eigenvalues --    0.06841   0.07458   0.07888   0.08694   0.09335
 Alpha virt. eigenvalues --    0.09584   0.10432   0.10672   0.11038   0.11885
 Alpha virt. eigenvalues --    0.12136   0.12434   0.12701   0.13802   0.14106

  Beta  occ. eigenvalues --  -14.18884 -10.10499 -10.09082 -10.08502 -10.07759
  Beta  occ. eigenvalues --  -10.07387 -10.06355 -10.06277 -10.06274 -10.05967
  Beta  occ. eigenvalues --  -10.05911  -0.81675  -0.71464  -0.68243  -0.66636
  Beta  occ. eigenvalues --   -0.63357  -0.59251  -0.53893  -0.51739  -0.48353
  Beta  occ. eigenvalues --   -0.43435  -0.40163  -0.38260  -0.37014  -0.36587
  Beta  occ. eigenvalues --   -0.34337  -0.33965  -0.32641  -0.31553  -0.29005
  Beta  occ. eigenvalues --   -0.28809  -0.26193  -0.25920  -0.25357  -0.23698
  Beta  occ. eigenvalues --   -0.22750  -0.21800  -0.17745  -0.17387  -0.16991
  Beta  occ. eigenvalues --   -0.13059
  Beta virt. eigenvalues --    0.06992   0.07535   0.08030   0.08595   0.09272
  Beta virt. eigenvalues --    0.09759   0.10119   0.10771   0.11161   0.11491
  Beta virt. eigenvalues --    0.12175   0.12264   0.12847   0.12991   0.14160

 Mulliken charges and spin densities:
               1          2
     1  C   -1.450588  -0.340530
     2  C    2.283019  -1.220850
     3  C   -0.604238   0.857477
     4  C    0.386265  -0.646400
     5  C    0.299052  -0.621603
     6  C    0.100390  -0.100367
     7  N   -0.124010   0.185486
     8  C    0.468114  -0.912433
     9  C   -0.218099   0.024436
    10  C    0.843386  -1.220819
    11  C   -0.126817  -0.272931
    12  H   -0.062202   0.182168
    13  H    0.002550   0.139497
    14  H   -0.412588   0.617368
    15  H   -0.650814   0.830554
    16  H   -0.124419   0.293398
    17  H   -0.118160   0.264738
    18  H    0.114195   0.043750
    19  H    0.094837   0.070421
    20  H   -0.108728   0.265860
    21  H   -0.025493   0.148563
    22  H   -0.320162   0.483623
    23  H    0.097119   0.032247
    24  H   -0.990223   1.180390
    25  H   -0.411482   0.594992
    26  H    0.059095   0.120964
 Sum of Mulliken charges =  -1.00000   1.00000

 Dipole moment (field-independent basis, Debye):
    X=             -2.6268    Y=              3.9357    Z=             -2.9761  Tot=              5.5899
 Quadrupole moment (field-independent basis, Debye-Ang):
   XX=           -131.9222   YY=           -111.6662   ZZ=           -100.8338
   XY=              0.8898   XZ=             -0.2863   YZ=              5.6746

 Summary of Natural Population Analysis:

                                       Natural Population
                Natural  -----------------------------------------------
    Atom  No    Charge         Core      Valence    Rydberg      Total
 -----------------------------------------------------------------------
      C    1   -0.13713      0.99927     2.13459    0.00328     3.13713
      C    2    0.01429      0.99937     1.97719    0.00914     2.98571
      C    3   -0.23581      0.99956     2.22609    0.01016     3.23581
      C    4   -0.17839      0.99962     2.16984    0.00893     3.17839
      C    5   -0.21148      0.99958     2.20171    0.01019     3.21148
      C    6    0.15384      0.99957     1.82996    0.01663     2.84616
      N    7   -0.24290      0.99965     2.73230    0.01096     3.74290
      C    8   -0.09870      0.99960     2.08703    0.01207     3.09870
      C    9   -0.19994      0.99963     2.19220    0.00811     3.19994
      C   10   -0.18773      0.99963     2.17904    0.00906     3.18773
      C   11   -0.22670      0.99958     2.21753    0.00959     3.22670
      H   12    0.10817      0.00000     0.39078    0.00105     0.39183
      H   13    0.11511      0.00000     0.38306    0.00183     0.38489
      H   14    0.11598      0.00000     0.38212    0.00190     0.38402
      H   15    0.10319      0.00000     0.39425    0.00256     0.39681
      H   16    0.09853      0.00000     0.40022    0.00125     0.40147
      H   17    0.10290      0.00000     0.39593    0.00117     0.39710
      H   18    0.10924      0.00000     0.38873    0.00203     0.39076
      H   19    0.09434      0.00000     0.40454    0.00113     0.40566
      H   20    0.09270      0.00000     0.40614    0.00116     0.40730
      H   21    0.09478      0.00000     0.40368    0.00155     0.40522
      H   22    0.10109      0.00000     0.39749    0.00142     0.39891
      H   23    0.09256      0.00000     0.40580    0.00165     0.40744
      H   24    0.10363      0.00000     0.39367    0.00270     0.39637
      H   25    0.10855      0.00000     0.38962    0.00183     0.39145
      H   26    0.10988      0.00000     0.38741    0.00271     0.39012
 =======================================================================
   * Total *    0.00000     10.99507    29.87091    0.13402    41.00000

 Normal termination of Gaussian 16 at Tue Dec  8 21:16:21 2020.
