 Gaussian 16, Revision A.03,

 -----------------------------------------------------------
 # opt freq B3LYP/6-31G(d) empiricaldispersion=gd3bj scf=xqc
 -----------------------------------------------------------

 ------------------------------
 CID_64410861_JID_7243_neutraal
 ------------------------------
 Symbolic Z-matrix:
 Charge =  0 Multiplicity = 1

 SCF Done:  E(RB3LYP) =  -790.890134139     A.U. after   13 cycles
 SCF Done:  E(RB3LYP) =  -790.896713670     A.U. after   11 cycles
 SCF Done:  E(RB3LYP) =  -790.897819317     A.U. after   11 cycles
 SCF Done:  E(RB3LYP) =  -790.897800975     A.U. after   11 cycles
 SCF Done:  E(RB3LYP) =  -790.898238262     A.U. after   11 cycles
 SCF Done:  E(RB3LYP) =  -790.898386069     A.U. after   10 cycles
 SCF Done:  E(RB3LYP) =  -790.898429602     A.U. after    9 cycles
 SCF Done:  E(RB3LYP) =  -790.898439615     A.U. after    9 cycles
 SCF Done:  E(RB3LYP) =  -790.898444989     A.U. after    8 cycles
 SCF Done:  E(RB3LYP) =  -790.898448541     A.U. after    8 cycles
 SCF Done:  E(RB3LYP) =  -790.898450626     A.U. after    8 cycles
 SCF Done:  E(RB3LYP) =  -790.898452618     A.U. after    8 cycles
 SCF Done:  E(RB3LYP) =  -790.898455273     A.U. after    9 cycles
 SCF Done:  E(RB3LYP) =  -790.898456058     A.U. after    8 cycles
 SCF Done:  E(RB3LYP) =  -790.898456239     A.U. after    6 cycles
 Optimization completed.
    -- Stationary point found.
 Normal termination of Gaussian 16 at Sun Dec 13 16:11:03 2020.

 --------------------------------------------------------------------
 #N Geom=AllCheck Guess=TCheck SCRF=Check GenChk RB3LYP/6-31G(d) Freq
 --------------------------------------------------------------------

 Structure from the checkpoint file:  "JID_7243.chk"
 ------------------------------
 CID_64410861_JID_7243_neutraal
 ------------------------------
 Charge =  0 Multiplicity = 1

 SCF Done:  E(RB3LYP) =  -790.898456239     A.U. after    1 cycles

  Exact polarizability: 176.707  -0.524 140.451   0.655  -0.034 132.827
 Approx polarizability: 213.059  -0.093 195.459   0.481  -2.638 198.902

                      1                      2                      3
                      A                      A                      A
 Frequencies --     32.2859                43.9204                47.8384
 Red. masses --      3.4478                 3.4680                 3.2284
 Frc consts  --      0.0021                 0.0039                 0.0044
 IR Inten    --      0.3662                 2.5405                 0.1624

                      4                      5                      6
                      A                      A                      A
 Frequencies --     56.0810                60.2917                93.3777
 Red. masses --      3.0563                 3.9005                 2.6435
 Frc consts  --      0.0057                 0.0084                 0.0136
 IR Inten    --      1.2556                 1.4295                 3.3442

                      7                      8                      9
                      A                      A                      A
 Frequencies --    118.8050               136.1143               169.2886
 Red. masses --      2.4133                 2.6384                 2.5160
 Frc consts  --      0.0201                 0.0288                 0.0425
 IR Inten    --      2.5307                 0.4219                 1.0460

                     10                     11                     12
                      A                      A                      A
 Frequencies --    180.1265               210.4446               231.0205
 Red. masses --      2.7057                 2.8918                 1.4957
 Frc consts  --      0.0517                 0.0755                 0.0470
 IR Inten    --      0.3674                 0.7259                 3.0264

                     13                     14                     15
                      A                      A                      A
 Frequencies --    237.4365               256.1101               290.9671
 Red. masses --      2.0234                 1.4354                 2.4039
 Frc consts  --      0.0672                 0.0555                 0.1199
 IR Inten    --      1.3351                 0.8487                 2.7917

                     16                     17                     18
                      A                      A                      A
 Frequencies --    320.5207               348.2033               357.1292
 Red. masses --      2.8587                 2.6730                 2.6472
 Frc consts  --      0.1730                 0.1910                 0.1989
 IR Inten    --      1.4237                 0.2311                 0.5553

                     19                     20                     21
                      A                      A                      A
 Frequencies --    388.1986               411.0671               423.7906
 Red. masses --      2.7392                 2.2264                 2.7323
 Frc consts  --      0.2432                 0.2217                 0.2891
 IR Inten    --      0.3652                 3.2367                 5.0600

                     22                     23                     24
                      A                      A                      A
 Frequencies --    455.0440               467.6961               502.5289
 Red. masses --      2.6740                 2.4107                 3.6119
 Frc consts  --      0.3262                 0.3107                 0.5374
 IR Inten    --      1.0731                 6.5584                 8.0566

                     25                     26                     27
                      A                      A                      A
 Frequencies --    506.2741               613.5166               646.0592
 Red. masses --      2.4321                 2.2379                 2.4898
 Frc consts  --      0.3673                 0.4963                 0.6123
 IR Inten    --      1.3575                17.7794                 1.4195

                     28                     29                     30
                      A                      A                      A
 Frequencies --    654.9311               704.5075               749.7213
 Red. masses --      3.2019                 2.3087                 2.0574
 Frc consts  --      0.8092                 0.6751                 0.6813
 IR Inten    --      4.4798                34.0168                44.2485

                     31                     32                     33
                      A                      A                      A
 Frequencies --    765.8606               772.7745               778.5644
 Red. masses --      2.6401                 1.5595                 3.9141
 Frc consts  --      0.9124                 0.5487                 1.3979
 IR Inten    --      1.9518                 0.0072                 1.7296

                     34                     35                     36
                      A                      A                      A
 Frequencies --    811.0585               865.1247               907.5515
 Red. masses --      1.6939                 2.1551                 2.1891
 Frc consts  --      0.6565                 0.9503                 1.0623
 IR Inten    --      6.6594                 5.3279                 4.7581

                     37                     38                     39
                      A                      A                      A
 Frequencies --    914.6212               927.5981               932.9400
 Red. masses --      2.1219                 1.9468                 1.9769
 Frc consts  --      1.0458                 0.9869                 1.0138
 IR Inten    --     12.8657                 9.6814                22.3036

                     40                     41                     42
                      A                      A                      A
 Frequencies --    957.0390               965.0775               969.2799
 Red. masses --      2.2646                 2.0446                 1.9670
 Frc consts  --      1.2221                 1.1220                 1.0888
 IR Inten    --     10.1553                 3.0185                 7.4954

                     43                     44                     45
                      A                      A                      A
 Frequencies --    988.8234              1002.9374              1032.3748
 Red. masses --      1.6392                 2.3673                 2.4032
 Frc consts  --      0.9443                 1.4030                 1.5091
 IR Inten    --      3.6697                21.6946                 7.7793

                     46                     47                     48
                      A                      A                      A
 Frequencies --   1055.1557              1065.9011              1082.2105
 Red. masses --      2.0898                 3.6441                 4.0110
 Frc consts  --      1.3709                 2.4394                 2.7677
 IR Inten    --      7.4890                23.6051                27.6140

                     49                     50                     51
                      A                      A                      A
 Frequencies --   1091.4811              1101.3469              1121.1649
 Red. masses --      2.7280                 1.4577                 1.6502
 Frc consts  --      1.9148                 1.0418                 1.2221
 IR Inten    --     15.7916                 4.1607                 8.2038

                     52                     53                     54
                      A                      A                      A
 Frequencies --   1136.3632              1143.0784              1157.5964
 Red. masses --      2.1000                 2.7740                 2.4667
 Frc consts  --      1.5977                 2.1356                 1.9475
 IR Inten    --     74.2347               285.9742                17.6487

                     55                     56                     57
                      A                      A                      A
 Frequencies --   1163.4361              1171.5982              1182.6488
 Red. masses --      2.4649                 2.0632                 2.2140
 Frc consts  --      1.9658                 1.6686                 1.8245
 IR Inten    --     60.8477                71.9812                44.1168

                     58                     59                     60
                      A                      A                      A
 Frequencies --   1189.3806              1200.0716              1206.7052
 Red. masses --      1.1363                 1.7125                 2.4070
 Frc consts  --      0.9470                 1.4531                 2.0651
 IR Inten    --      1.7406                20.8275                11.6762

                     61                     62                     63
                      A                      A                      A
 Frequencies --   1232.6557              1239.0179              1260.7520
 Red. masses --      1.6559                 1.2002                 1.2281
 Frc consts  --      1.4825                 1.0856                 1.1502
 IR Inten    --     20.7516                 6.2255                14.8591

                     64                     65                     66
                      A                      A                      A
 Frequencies --   1272.7929              1277.8414              1297.2225
 Red. masses --      1.8440                 1.2123                 1.4920
 Frc consts  --      1.7600                 1.1663                 1.4793
 IR Inten    --      9.9882                 6.3712                74.0303

                     67                     68                     69
                      A                      A                      A
 Frequencies --   1301.4810              1327.6086              1332.4727
 Red. masses --      1.2254                 1.3981                 1.3927
 Frc consts  --      1.2230                 1.4519                 1.4568
 IR Inten    --     19.5993                 9.4768                13.9944

                     70                     71                     72
                      A                      A                      A
 Frequencies --   1356.0168              1363.6716              1376.4403
 Red. masses --      1.4231                 1.3329                 1.6456
 Frc consts  --      1.5417                 1.4603                 1.8369
 IR Inten    --      2.7317                 6.3019                 2.2629

                     73                     74                     75
                      A                      A                      A
 Frequencies --   1378.1535              1391.8087              1400.2864
 Red. masses --      1.4110                 1.3682                 1.4313
 Frc consts  --      1.5790                 1.5616                 1.6535
 IR Inten    --      5.3953                 1.3630                 3.9897

                     76                     77                     78
                      A                      A                      A
 Frequencies --   1402.3601              1403.3192              1417.2805
 Red. masses --      1.3409                 1.4285                 1.5002
 Frc consts  --      1.5537                 1.6575                 1.7755
 IR Inten    --     10.8444                 2.4456                12.6490

                     79                     80                     81
                      A                      A                      A
 Frequencies --   1427.1338              1438.4716              1443.2188
 Red. masses --      1.3254                 1.2733                 1.3028
 Frc consts  --      1.5904                 1.5523                 1.5988
 IR Inten    --     37.6635                 5.7436                13.3900

                     82                     83                     84
                      A                      A                      A
 Frequencies --   1501.0758              1503.9306              1512.9930
 Red. masses --      1.1244                 1.1134                 1.0959
 Frc consts  --      1.4927                 1.4837                 1.4781
 IR Inten    --      3.0348                 5.6263                10.0677

                     85                     86                     87
                      A                      A                      A
 Frequencies --   1513.9149              1514.5031              1516.1779
 Red. masses --      1.0736                 1.0560                 1.0773
 Frc consts  --      1.4497                 1.4271                 1.4591
 IR Inten    --      1.6274                 6.3335                 7.5155

                     88                     89                     90
                      A                      A                      A
 Frequencies --   1527.0022              1528.3278              1531.1676
 Red. masses --      1.1073                 1.0577                 1.0658
 Frc consts  --      1.5212                 1.4556                 1.4723
 IR Inten    --      2.9247                 1.3837                16.2369

                     91                     92                     93
                      A                      A                      A
 Frequencies --   1538.5094              1540.8429              1544.3063
 Red. masses --      1.1214                 1.0914                 1.1383
 Frc consts  --      1.5639                 1.5267                 1.5995
 IR Inten    --     14.6815                 1.0763                 6.7734

                     94                     95                     96
                      A                      A                      A
 Frequencies --   1548.6938              1561.8100              2986.2834
 Red. masses --      1.1056                 1.0952                 1.0404
 Frc consts  --      1.5624                 1.5740                 5.4667
 IR Inten    --      1.1752                 9.0852                52.3449

                     97                     98                     99
                      A                      A                      A
 Frequencies --   3000.5865              3014.4196              3025.0698
 Red. masses --      1.0556                 1.0732                 1.0665
 Frc consts  --      5.5997                 5.7457                 5.7503
 IR Inten    --     57.3244                44.9102                72.4841

                    100                    101                    102
                      A                      A                      A
 Frequencies --   3031.0496              3033.5476              3034.9344
 Red. masses --      1.0981                 1.0929                 1.0916
 Frc consts  --      5.9438                 5.9254                 5.9242
 IR Inten    --    124.7196                 7.0166                16.5029

                    103                    104                    105
                      A                      A                      A
 Frequencies --   3041.0426              3047.3391              3059.9542
 Red. masses --      1.0394                 1.0646                 1.0668
 Frc consts  --      5.6632                 5.8249                 5.8853
 IR Inten    --     35.4471                32.5418                53.2273

                    106                    107                    108
                      A                      A                      A
 Frequencies --   3061.5405              3064.4373              3068.0600
 Red. masses --      1.0608                 1.0635                 1.0636
 Frc consts  --      5.8581                 5.8844                 5.8986
 IR Inten    --     24.7148                32.0448                 8.4602

                    109                    110                    111
                      A                      A                      A
 Frequencies --   3082.5646              3089.4628              3101.3794
 Red. masses --      1.1027                 1.0995                 1.0979
 Frc consts  --      6.1733                 6.1829                 6.2217
 IR Inten    --     31.6100                 6.5527                15.9120

                    112                    113                    114
                      A                      A                      A
 Frequencies --   3105.5264              3110.7919              3111.5572
 Red. masses --      1.0975                 1.0994                 1.1012
 Frc consts  --      6.2361                 6.2681                 6.2818
 IR Inten    --      4.9753               128.4738                 9.7571

                    115                    116                    117
                      A                      A                      A
 Frequencies --   3116.5498              3118.3224              3124.0517
 Red. masses --      1.0946                 1.1010                 1.0983
 Frc consts  --      6.2642                 6.3081                 6.3156
 IR Inten    --     37.2338                62.1753                39.1640

                    118                    119                    120
                      A                      A                      A
 Frequencies --   3125.2827              3134.8831              3519.6174
 Red. masses --      1.0923                 1.0968                 1.0739
 Frc consts  --      6.2859                 6.3505                 7.8380
 IR Inten    --     33.5176                33.8889                 3.9626

 - Thermochemistry -
 -------------------
 Temperature   298.150 Kelvin.  Pressure   1.00000 Atm.
 Atom     1 has atomic number  6 and mass  12.00000

 Molecular mass:   243.18344 amu.
 Principal axes and moments of inertia in atomic units:
                           1         2         3
     Eigenvalues --  2196.353957512.731307816.24110
           X            0.99997   0.00320  -0.00770
           Y           -0.00294   0.99943   0.03349
           Z            0.00780  -0.03347   0.99941
 This molecule is an asymmetric top.
 Rotational symmetry number  1.
 Warning -- assumption of classical behavior for rotation
           may cause significant error
 Rotational temperatures (Kelvin)      0.03944     0.01153     0.01108
 Rotational constants (GHZ):           0.82170     0.24022     0.23090
 Zero-point vibrational energy    1000703.6 (Joules/Mol)
                                  239.17390 (Kcal/Mol)
 Warning -- explicit consideration of  26 degrees of freedom as
           vibrations may cause significant error
 Vibrational temperatures:     46.45    63.19    68.83    80.69    86.75
          (Kelvin)            134.35   170.93   195.84   243.57   259.16
                              302.78   332.39   341.62   368.49   418.64
                              461.16   500.99   513.83   558.53   591.43
                              609.74   654.71   672.91   723.03   728.42
                              882.71   929.54   942.30  1013.63  1078.68
                             1101.90  1111.85  1120.18  1166.93  1244.72
                             1305.76  1315.94  1334.61  1342.29  1376.97
                             1388.53  1394.58  1422.70  1443.00  1485.36
                             1518.13  1533.59  1557.06  1570.40  1584.59
                             1613.11  1634.97  1644.63  1665.52  1673.92
                             1685.67  1701.57  1711.25  1726.64  1736.18
                             1773.52  1782.67  1813.94  1831.27  1838.53
                             1866.41  1872.54  1910.13  1917.13  1951.01
                             1962.02  1980.39  1982.86  2002.50  2014.70
                             2017.68  2019.06  2039.15  2053.33  2069.64
                             2076.47  2159.71  2163.82  2176.86  2178.19
                             2179.03  2181.44  2197.02  2198.92  2203.01
                             2213.57  2216.93  2221.91  2228.22  2247.10
                             4296.60  4317.17  4337.08  4352.40  4361.00
                             4364.60  4366.59  4375.38  4384.44  4402.59
                             4404.87  4409.04  4414.25  4435.12  4445.05
                             4462.19  4468.16  4475.74  4476.84  4484.02
                             4486.57  4494.81  4496.58  4510.40  5063.94

 Zero-point correction=                           0.381148 (Hartree/Particle)
 Thermal correction to Energy=                    0.398980
 Thermal correction to Enthalpy=                  0.399924
 Thermal correction to Gibbs Free Energy=         0.334312
 Sum of electronic and zero-point Energies=           -790.517308
 Sum of electronic and thermal Energies=              -790.499476
 Sum of electronic and thermal Enthalpies=            -790.498532
 Sum of electronic and thermal Free Energies=         -790.564144

                     E (Thermal)             CV                S
                      KCal/Mol        Cal/Mol-Kelvin    Cal/Mol-Kelvin
 Total                  250.364             67.901            138.092
 Electronic               0.000              0.000              0.000
 Translational            0.889              2.981             42.367
 Rotational               0.889              2.981             33.222
 Vibrational            248.586             61.940             62.503
 Vibration     1          0.594              1.983              5.684
 Vibration     2          0.595              1.980              5.074
 Vibration     3          0.595              1.978              4.905
 Vibration     4          0.596              1.975              4.591
 Vibration     5          0.597              1.973              4.448
 Vibration     6          0.602              1.954              3.588
 Vibration     7          0.609              1.934              3.120
 Vibration     8          0.614              1.917              2.858
 Vibration     9          0.625              1.880              2.443
 Vibration    10          0.629              1.867              2.327
 Vibration    11          0.643              1.825              2.040
 Vibration    12          0.653              1.794              1.871
 Vibration    13          0.656              1.783              1.822
 Vibration    14          0.666              1.752              1.688
 Vibration    15          0.687              1.691              1.468
 Vibration    16          0.706              1.634              1.307
 Vibration    17          0.726              1.579              1.174
 Vibration    18          0.732              1.561              1.135
 Vibration    19          0.756              1.495              1.007
 Vibration    20          0.775              1.446              0.923
 Vibration    21          0.786              1.418              0.879
 Vibration    22          0.813              1.350              0.781
 Vibration    23          0.825              1.322              0.744
 Vibration    24          0.858              1.244              0.652
 Vibration    25          0.861              1.236              0.643
 Vibration    26          0.973              1.003              0.427

                           ! Non-Optimized Parameters !
 Normal termination of Gaussian 16 at Sun Dec 13 16:31:39 2020.

 ----------------------------------------------------------------------
 # B3LYP/6-311++G(d,p) empiricaldispersion=gd3bj scf=xqc pop=npa geom=c
 heck
 ----------------------------------------------------------------------

 --------------------------------------
 CID_64410861_JID_7243_Energie_neutraal
 --------------------------------------
 Structure from the checkpoint file:  "JID_7243.chk"
 Charge =  0 Multiplicity = 1

 SCF Done:  E(RB3LYP) =  -791.126214748     A.U. after   14 cycles
 Normal termination of Gaussian 16 at Sun Dec 13 16:40:54 2020.

 ----------------------------------------------------------------------
 # B3LYP/6-311++G(d,p) empiricaldispersion=gd3bj scf=xqc pop=npa geom=c
 heck
 ----------------------------------------------------------------------

 ------------------------------------
 CID_64410861_JID_7243_Energie_kation
 ------------------------------------
 Structure from the checkpoint file:  "JID_7243.chk"
 Charge =  1 Multiplicity = 2

 SCF Done:  E(UB3LYP) =  -790.842663022     A.U. after   24 cycles
 Normal termination of Gaussian 16 at Sun Dec 13 17:03:53 2020.
 Gaussian 16:  ES64L-G16RevA.03 25-Dec-2016

 ----------------------------------------------------------------------
 # B3LYP/6-311++G(d,p) empiricaldispersion=gd3bj scf=xqc pop=npa geom=c
 heck
 ----------------------------------------------------------------------

 -----------------------------------
 CID_64410861_JID_7243_Energie_anion
 -----------------------------------
 Structure from the checkpoint file:  "JID_7243.chk"
 Charge = -1 Multiplicity = 2

                         Standard orientation:
 ---------------------------------------------------------------------
 Center     Atomic      Atomic             Coordinates (Angstroms)
 Number     Number       Type             X           Y           Z
 ---------------------------------------------------------------------
      1          6           0        3.228787    2.510422   -0.892494
      2          6           0        2.785791    1.759516    0.365586
      3          6           0        1.829369    0.579171    0.111079
      4          6           0        2.440532   -0.461078   -0.835707
      5          8           0        3.588720   -1.002369   -0.201087
      6          6           0        4.186228   -2.039318   -0.945132
      7          7           0        1.455327   -0.002830    1.404656
      8          6           0        0.113919   -0.534270    1.676802
      9          6           0       -0.920225    0.580755    1.946960
     10          6           0       -1.575901    1.170950    0.690010
     11          6           0       -2.168217    0.079087   -0.196933
     12          6           0       -1.134706   -0.986889   -0.559872
     13          6           0       -0.478303   -1.580306    0.695400
     14          8           0       -3.274399   -0.512395    0.501664
     15          6           0       -4.343302   -0.636936   -0.427164
     16          6           0       -4.117823    0.565459   -1.336511
     17          8           0       -2.698516    0.631066   -1.407935
     18          1           0        3.875305    1.895318   -1.527953
     19          1           0        3.793586    3.411466   -0.628968
     20          1           0        2.367587    2.825112   -1.496311
     21          1           0        3.662950    1.382043    0.903599
     22          1           0        2.270170    2.441548    1.050785
     23          1           0        0.935413    0.972467   -0.379640
     24          1           0        1.716888   -1.263393   -1.044114
     25          1           0        2.717228   -0.008859   -1.801689
     26          1           0        3.491451   -2.880868   -1.099792
     27          1           0        4.524624   -1.687159   -1.932682
     28          1           0        5.051696   -2.390897   -0.377334
     29          1           0        2.156542   -0.700202    1.639962
     30          1           0        0.244986   -1.057427    2.632232
     31          1           0       -1.720129    0.154968    2.564891
     32          1           0       -0.435816    1.369024    2.531783
     33          1           0       -0.857366    1.740047    0.091680
     34          1           0       -2.380084    1.861463    0.967431
     35          1           0       -0.399523   -0.528221   -1.228479
     36          1           0       -1.637177   -1.771850   -1.137035
     37          1           0        0.294587   -2.306859    0.417495
     38          1           0       -1.254138   -2.137378    1.235726
     39          1           0       -5.285747   -0.614316    0.126311
     40          1           0       -4.275944   -1.579675   -0.990544
     41          1           0       -4.535967    1.481460   -0.893984
     42          1           0       -4.511745    0.442201   -2.349233
 ---------------------------------------------------------------------

 SCF Done:  E(UB3LYP) =  -791.112631086     A.U. after   30 cycles

 The electronic state is 2-A.
 Alpha  occ. eigenvalues --  -19.03874 -19.03823 -19.03801 -14.19564 -10.17981
 Alpha  occ. eigenvalues --  -10.12920 -10.12884 -10.12134 -10.11963 -10.10677
 Alpha  occ. eigenvalues --  -10.10620 -10.07457 -10.07242 -10.07236 -10.07130
 Alpha  occ. eigenvalues --  -10.07047 -10.07046  -1.00018  -0.95135  -0.90584
 Alpha  occ. eigenvalues --   -0.81287  -0.73590  -0.69732  -0.66162  -0.65738
 Alpha  occ. eigenvalues --   -0.63915  -0.60531  -0.57454  -0.54776  -0.54385
 Alpha  occ. eigenvalues --   -0.52905  -0.50132  -0.47626  -0.45766  -0.42245
 Alpha  occ. eigenvalues --   -0.41821  -0.40791  -0.39654  -0.39081  -0.37938
 Alpha  occ. eigenvalues --   -0.37176  -0.36439  -0.35234  -0.34888  -0.34316
 Alpha  occ. eigenvalues --   -0.32445  -0.32269  -0.31962  -0.30946  -0.30046
 Alpha  occ. eigenvalues --   -0.29667  -0.29016  -0.28672  -0.27072  -0.26379
 Alpha  occ. eigenvalues --   -0.26018  -0.25676  -0.25091  -0.24548  -0.24025
 Alpha  occ. eigenvalues --   -0.22921  -0.22377  -0.22076  -0.18394  -0.17464
 Alpha  occ. eigenvalues --   -0.16298  -0.12536   0.04060
 Alpha virt. eigenvalues --    0.05458   0.06537   0.06952   0.07540   0.08042
 Alpha virt. eigenvalues --    0.08346   0.08835   0.09260   0.09795   0.10041
 Alpha virt. eigenvalues --    0.10351   0.10862   0.11265   0.11539   0.12335

  Beta  occ. eigenvalues --  -19.03871 -19.03822 -19.03793 -14.19561 -10.17981
  Beta  occ. eigenvalues --  -10.12893 -10.12853 -10.12121 -10.11918 -10.10673
  Beta  occ. eigenvalues --  -10.10617 -10.07450 -10.07232 -10.07223 -10.07125
  Beta  occ. eigenvalues --  -10.07043 -10.07034  -1.00010  -0.95123  -0.90575
  Beta  occ. eigenvalues --   -0.81279  -0.73574  -0.69715  -0.66136  -0.65719
  Beta  occ. eigenvalues --   -0.63882  -0.60495  -0.57402  -0.54718  -0.54340
  Beta  occ. eigenvalues --   -0.52873  -0.50116  -0.47602  -0.45744  -0.42212
  Beta  occ. eigenvalues --   -0.41790  -0.40766  -0.39603  -0.39061  -0.37904
  Beta  occ. eigenvalues --   -0.37140  -0.36412  -0.35215  -0.34869  -0.34291
  Beta  occ. eigenvalues --   -0.32426  -0.32241  -0.31938  -0.30926  -0.30023
  Beta  occ. eigenvalues --   -0.29647  -0.28993  -0.28651  -0.27052  -0.26356
  Beta  occ. eigenvalues --   -0.26003  -0.25648  -0.25082  -0.24530  -0.23994
  Beta  occ. eigenvalues --   -0.22895  -0.22361  -0.22059  -0.18373  -0.17444
  Beta  occ. eigenvalues --   -0.16285  -0.12527
  Beta virt. eigenvalues --    0.05991   0.06566   0.06908   0.07284   0.08095
  Beta virt. eigenvalues --    0.08344   0.08813   0.09138   0.09610   0.10089
  Beta virt. eigenvalues --    0.10404   0.10529   0.11034   0.11299   0.11813

 Mulliken charges and spin densities:
               1          2
     1  C   -0.225775  -0.325598
     2  C    0.153896  -0.184530
     3  C   -0.395052   0.022435
     4  C   -0.962515   0.297819
     5  O   -0.152326   0.061364
     6  C    1.014369  -1.235749
     7  N    0.123249   0.028840
     8  C   -0.448811   0.581144
     9  C   -0.068505  -0.523007
    10  C    0.266149   0.159986
    11  C   -2.648526   0.393339
    12  C    0.784229  -0.207139
    13  C    0.579129  -1.122346
    14  O    0.017703   0.038184
    15  C    0.632305  -0.654462
    16  C    0.700539  -0.753638
    17  O    0.026318   0.028255
    18  H    0.041699   0.111950
    19  H    0.039481   0.098180
    20  H   -0.023733   0.163238
    21  H    0.120358   0.032898
    22  H    0.085801   0.051614
    23  H    0.581821  -0.558516
    24  H    0.814922  -0.680327
    25  H   -0.137396   0.285758
    26  H   -0.495300   0.628242
    27  H   -0.308086   0.439830
    28  H   -0.263618   0.399976
    29  H    0.231068   0.045417
    30  H   -0.021381   0.192421
    31  H    0.091276   0.089530
    32  H    0.119120   0.055137
    33  H   -0.004210   0.196838
    34  H    0.049929   0.150656
    35  H   -0.217899   0.419501
    36  H   -0.194115   0.411451
    37  H   -0.072850   0.260802
    38  H    0.101394   0.081586
    39  H   -0.552868   0.718288
    40  H    0.039096   0.090975
    41  H    0.012067   0.110536
    42  H   -0.432952   0.599122
 Sum of Mulliken charges =  -1.00000   1.00000

 Dipole moment (field-independent basis, Debye):
    X=              0.9493    Y=              3.2038    Z=              2.7507  Tot=              4.3280
 Quadrupole moment (field-independent basis, Debye-Ang):
   XX=           -215.3998   YY=           -151.0579   ZZ=           -146.9382
   XY=              8.5012   XZ=              0.8588   YZ=             -3.8529

 Summary of Natural Population Analysis:

                                       Natural Population
                Natural  -----------------------------------------------
    Atom  No    Charge         Core      Valence    Rydberg      Total
 -----------------------------------------------------------------------
      C    1   -0.28855      0.99967     2.28468    0.00421     3.28855
      C    2   -0.18950      0.99962     2.18144    0.00844     3.18950
      C    3   -0.02508      0.99957     2.01227    0.01324     3.02508
      C    4   -0.01589      0.99956     2.00397    0.01237     3.01589
      O    5   -0.30460      0.99988     3.29514    0.00958     4.30460
      C    6   -0.09540      0.99962     2.08642    0.00935     3.09540
      N    7   -0.34971      0.99972     2.83796    0.01203     3.84971
      C    8   -0.00473      0.99958     1.99164    0.01351     3.00473
      C    9   -0.19478      0.99960     2.18726    0.00791     3.19478
      C   10   -0.20833      0.99954     2.19879    0.01000     3.20833
      C   11    0.30521      0.99951     1.67373    0.02156     2.69479
      C   12   -0.21181      0.99954     2.20112    0.01115     3.21181
      C   13   -0.20257      0.99960     2.19385    0.00912     3.20257
      O   14   -0.31181      0.99987     3.30311    0.00883     4.31181
      C   15   -0.02292      0.99959     2.01130    0.01203     3.02292
      C   16   -0.02231      0.99958     2.01066    0.01207     3.02231
      O   17   -0.30730      0.99987     3.29880    0.00862     4.30730
      H   18    0.09818      0.00000     0.40070    0.00111     0.40182
      H   19    0.09740      0.00000     0.40171    0.00089     0.40260
      H   20    0.09471      0.00000     0.40429    0.00101     0.40529
      H   21    0.10083      0.00000     0.39772    0.00144     0.39917
      H   22    0.09763      0.00000     0.40110    0.00127     0.40237
      H   23    0.09514      0.00000     0.40251    0.00234     0.40486
      H   24    0.08404      0.00000     0.41415    0.00181     0.41596
      H   25    0.08154      0.00000     0.41707    0.00139     0.41846
      H   26    0.08045      0.00000     0.41747    0.00208     0.41955
      H   27    0.07907      0.00000     0.41909    0.00184     0.42093
      H   28    0.09009      0.00000     0.40864    0.00127     0.40991
      H   29    0.18125      0.00000     0.31574    0.00300     0.31875
      H   30    0.09612      0.00000     0.40291    0.00097     0.40388
      H   31    0.10236      0.00000     0.39634    0.00130     0.39764
      H   32    0.10361      0.00000     0.39515    0.00124     0.39639
      H   33    0.09969      0.00000     0.39890    0.00142     0.40031
      H   34    0.10491      0.00000     0.39388    0.00122     0.39509
      H   35    0.10057      0.00000     0.39754    0.00189     0.39943
      H   36    0.10625      0.00000     0.39236    0.00139     0.39375
      H   37    0.10201      0.00000     0.39681    0.00118     0.39799
      H   38    0.10374      0.00000     0.39478    0.00149     0.39626
      H   39    0.09479      0.00000     0.40333    0.00189     0.40521
      H   40    0.08148      0.00000     0.41686    0.00166     0.41852
      H   41    0.08024      0.00000     0.41831    0.00145     0.41976
      H   42    0.09398      0.00000     0.40432    0.00170     0.40602
 =======================================================================
   * Total *    0.00000     16.99391    49.78382    0.22227    67.00000

 Normal termination of Gaussian 16 at Sun Dec 13 17:31:41 2020.
