 Gaussian 16, Revision A.03,

 -----------------------------------------------------------
 # opt freq B3LYP/6-31G(d) empiricaldispersion=gd3bj scf=xqc
 -----------------------------------------------------------

 -----------------------------
 CID_22323928_JID_656_neutraal
 -----------------------------
 Symbolic Z-matrix:
 Charge =  0 Multiplicity = 1

 SCF Done:  E(RB3LYP) =  -466.154747993     A.U. after   13 cycles
 SCF Done:  E(RB3LYP) =  -466.157244751     A.U. after   11 cycles
 SCF Done:  E(RB3LYP) =  -466.154997918     A.U. after   11 cycles
 SCF Done:  E(RB3LYP) =  -466.157051615     A.U. after   11 cycles
 SCF Done:  E(RB3LYP) =  -466.157663277     A.U. after    7 cycles
 SCF Done:  E(RB3LYP) =  -466.157722048     A.U. after   10 cycles
 SCF Done:  E(RB3LYP) =  -466.157726234     A.U. after   10 cycles
 SCF Done:  E(RB3LYP) =  -466.157784931     A.U. after    9 cycles
 SCF Done:  E(RB3LYP) =  -466.157797611     A.U. after    9 cycles
 SCF Done:  E(RB3LYP) =  -466.157801937     A.U. after    9 cycles
 SCF Done:  E(RB3LYP) =  -466.157804962     A.U. after    7 cycles
 SCF Done:  E(RB3LYP) =  -466.157805559     A.U. after    7 cycles
 SCF Done:  E(RB3LYP) =  -466.157805728     A.U. after    7 cycles
 Optimization completed.
    -- Stationary point found.

 1\1\GINC-NODE309\FOpt\RB3LYP\6-31G(d)\C8H18O2\VSC10255\08-Dec-2020\0\\
 # opt freq B3LYP/6-31G(d) empiricaldispersion=gd3bj scf=xqc\\CID_22323
 928_JID_656_neutraal\\0,1\C,1.1038590205,0.0678885487,-0.0483016562\C,
 0.6928470063,-0.4170020075,-1.4427971931\C,0.7450401697,-1.9521454076,
 -1.6195508163\C,-0.2021704547,-2.600734691,-0.5939165976\C,0.408848776
 3,-2.4344140123,-3.0662988219\C,0.7287457519,-1.4086585351,-4.17061660
 27\O,2.1233021589,-1.1454190516,-4.3153145782\C,1.105390901,-3.7629988
 29,-3.4648481354\C,1.050332942,-4.9191075749,-2.4684964467\O,0.6089237

 Normal termination of Gaussian 16 at Tue Dec  8 12:41:05 2020.

 --------------------------------------------------------------------
 #N Geom=AllCheck Guess=TCheck SCRF=Check GenChk RB3LYP/6-31G(d) Freq
 --------------------------------------------------------------------

 Structure from the checkpoint file:  "JID_656.chk"
 -----------------------------
 CID_22323928_JID_656_neutraal
 -----------------------------
 Charge =  0 Multiplicity = 1

 SCF Done:  E(RB3LYP) =  -466.157805728     A.U. after    1 cycles

  Exact polarizability: 103.259  -1.031  89.757  -1.641  -0.386  81.800
 Approx polarizability: 127.877   1.318 120.885  -2.788   3.070 126.989

                      1                      2                      3
                      A                      A                      A
 Frequencies --     55.4742                84.8874                97.8024
 Red. masses --      3.9163                 3.0895                 2.2124
 Frc consts  --      0.0071                 0.0131                 0.0125
 IR Inten    --      0.2855                 0.9770                 1.0014

                      4                      5                      6
                      A                      A                      A
 Frequencies --    170.8359               180.3747               200.8474
 Red. masses --      1.8775                 2.6116                 2.2728
 Frc consts  --      0.0323                 0.0501                 0.0540
 IR Inten    --      1.1025                 5.6976                 2.9077

                      7                      8                      9
                      A                      A                      A
 Frequencies --    212.9990               267.1883               282.3007
 Red. masses --      1.3696                 1.3461                 2.1816
 Frc consts  --      0.0366                 0.0566                 0.1024
 IR Inten    --      2.1519                35.7122                 2.3643

                     10                     11                     12
                      A                      A                      A
 Frequencies --    294.4407               312.0275               331.7715
 Red. masses --      1.6375                 1.3137                 1.8614
 Frc consts  --      0.0836                 0.0754                 0.1207
 IR Inten    --     17.1000                79.5557                 0.6764

                     13                     14                     15
                      A                      A                      A
 Frequencies --    348.1556               359.2465               381.4949
 Red. masses --      1.6762                 1.7214                 2.2343
 Frc consts  --      0.1197                 0.1309                 0.1916
 IR Inten    --     47.5678                 8.5216                23.0185

                     16                     17                     18
                      A                      A                      A
 Frequencies --    382.7090               467.2827               482.3303
 Red. masses --      2.2110                 2.4989                 2.2791
 Frc consts  --      0.1908                 0.3215                 0.3124
 IR Inten    --     15.5883                 9.5980                 4.7865

                     19                     20                     21
                      A                      A                      A
 Frequencies --    534.9700               665.0023               783.0128
 Red. masses --      2.6937                 3.9142                 1.4572
 Frc consts  --      0.4542                 1.0199                 0.5264
 IR Inten    --      1.7682                 1.4336                 2.2866

                     22                     23                     24
                      A                      A                      A
 Frequencies --    824.1248               836.9648               888.6497
 Red. masses --      1.7941                 2.0954                 1.9851
 Frc consts  --      0.7179                 0.8648                 0.9236
 IR Inten    --      2.5349                 0.2842                 4.2935

                     25                     26                     27
                      A                      A                      A
 Frequencies --    935.9756               966.2467               986.8946
 Red. masses --      2.0809                 1.6489                 1.3789
 Frc consts  --      1.0740                 0.9070                 0.7913
 IR Inten    --     20.0883                 2.5442                 3.6316

                     28                     29                     30
                      A                      A                      A
 Frequencies --   1006.4355              1017.3514              1053.0320
 Red. masses --      1.4447                 1.7403                 2.5946
 Frc consts  --      0.8622                 1.0612                 1.6951
 IR Inten    --     30.1668                 2.0289                 5.1778

                     31                     32                     33
                      A                      A                      A
 Frequencies --   1070.4095              1085.5797              1112.4075
 Red. masses --      1.8437                 3.9400                 1.9636
 Frc consts  --      1.2446                 2.7357                 1.4316
 IR Inten    --     60.3750                81.6779                23.6877

                     34                     35                     36
                      A                      A                      A
 Frequencies --   1131.5770              1159.5862              1172.7079
 Red. masses --      1.6619                 2.0916                 2.2460
 Frc consts  --      1.2538                 1.6571                 1.8199
 IR Inten    --     20.9425                19.4002                11.0552

                     37                     38                     39
                      A                      A                      A
 Frequencies --   1190.1808              1234.6173              1254.7291
 Red. masses --      1.7374                 1.3485                 1.4663
 Frc consts  --      1.4501                 1.2111                 1.3601
 IR Inten    --     10.4328                14.3948                16.1183

                     40                     41                     42
                      A                      A                      A
 Frequencies --   1310.7151              1317.1732              1334.6704
 Red. masses --      1.3615                 1.2872                 1.3893
 Frc consts  --      1.3781                 1.3158                 1.4581
 IR Inten    --      6.9729                 1.4122                10.3244

                     43                     44                     45
                      A                      A                      A
 Frequencies --   1369.8916              1386.1579              1390.3752
 Red. masses --      1.2185                 1.3973                 1.2998
 Frc consts  --      1.3472                 1.5818                 1.4804
 IR Inten    --      1.4518                 2.8002                 9.5958

                     46                     47                     48
                      A                      A                      A
 Frequencies --   1404.3734              1416.7055              1430.6670
 Red. masses --      1.3821                 1.3405                 1.2078
 Frc consts  --      1.6061                 1.5852                 1.4565
 IR Inten    --      3.8317                 0.3546                13.9660

                     49                     50                     51
                      A                      A                      A
 Frequencies --   1438.2875              1441.9279              1446.6960
 Red. masses --      1.2363                 1.2610                 1.2105
 Frc consts  --      1.5069                 1.5448                 1.4927
 IR Inten    --     26.0718                 2.6360                17.8869

                     52                     53                     54
                      A                      A                      A
 Frequencies --   1448.1544              1512.4569              1521.1643
 Red. masses --      1.2402                 1.0640                 1.0554
 Frc consts  --      1.5324                 1.4341                 1.4388
 IR Inten    --     44.0591                 2.3182                 1.7078

                     55                     56                     57
                      A                      A                      A
 Frequencies --   1526.9311              1531.8053              1536.3476
 Red. masses --      1.0427                 1.0525                 1.0544
 Frc consts  --      1.4324                 1.4551                 1.4663
 IR Inten    --     14.2027                 2.5383                10.9057

                     58                     59                     60
                      A                      A                      A
 Frequencies --   1540.5754              1544.7062              1552.5374
 Red. masses --      1.0604                 1.0764                 1.0455
 Frc consts  --      1.4828                 1.5133                 1.4847
 IR Inten    --      1.3022                 1.7191                 2.2652

                     61                     62                     63
                      A                      A                      A
 Frequencies --   2980.8755              3000.6757              3029.9051
 Red. masses --      1.0814                 1.0828                 1.0679
 Frc consts  --      5.6613                 5.7441                 5.7760
 IR Inten    --     17.9927                21.2462                20.3045

                     64                     65                     66
                      A                      A                      A
 Frequencies --   3040.0969              3040.8248              3048.2829
 Red. masses --      1.0624                 1.0467                 1.0402
 Frc consts  --      5.7849                 5.7021                 5.6949
 IR Inten    --     73.2751                13.2327                33.2936

                     67                     68                     69
                      A                      A                      A
 Frequencies --   3051.7043              3070.2354              3089.5398
 Red. masses --      1.0488                 1.0973                 1.0845
 Frc consts  --      5.7547                 6.0942                 6.0990
 IR Inten    --     30.9821                36.6902                 4.3523

                     70                     71                     72
                      A                      A                      A
 Frequencies --   3111.1355              3116.2317              3117.9500
 Red. masses --      1.1006                 1.0951                 1.0963
 Frc consts  --      6.2765                 6.2657                 6.2794
 IR Inten    --     39.8693                29.0812                44.5917

                     73                     74                     75
                      A                      A                      A
 Frequencies --   3132.3911              3134.8319              3147.4730
 Red. masses --      1.0991                 1.1025                 1.0926
 Frc consts  --      6.3538                 6.3833                 6.3776
 IR Inten    --     42.4145                34.9354                17.3754

                     76                     77                     78
                      A                      A                      A
 Frequencies --   3173.2876              3713.9854              3751.6266
 Red. masses --      1.0943                 1.0657                 1.0654
 Frc consts  --      6.4922                 8.6613                 8.8350
 IR Inten    --     17.9566                 5.9583                 8.0926

 - Thermochemistry -
 -------------------
 Temperature   298.150 Kelvin.  Pressure   1.00000 Atm.
 Atom     1 has atomic number  6 and mass  12.00000

 Molecular mass:   146.13068 amu.
 Principal axes and moments of inertia in atomic units:
                           1         2         3
     Eigenvalues --  1072.300182044.840892765.57114
           X            0.99984  -0.01808  -0.00149
           Y            0.01806   0.99973  -0.01454
           Z            0.00175   0.01452   0.99989
 This molecule is an asymmetric top.
 Rotational symmetry number  1.
 Warning -- assumption of classical behavior for rotation
           may cause significant error
 Rotational temperatures (Kelvin)      0.08077     0.04236     0.03132
 Rotational constants (GHZ):           1.68306     0.88258     0.65257
 Zero-point vibrational energy     675746.5 (Joules/Mol)
                                  161.50730 (Kcal/Mol)
 Warning -- explicit consideration of  19 degrees of freedom as
           vibrations may cause significant error
 Vibrational temperatures:     79.82   122.13   140.72   245.79   259.52
          (Kelvin)            288.97   306.46   384.42   406.17   423.63
                              448.94   477.35   500.92   516.88   548.89
                              550.63   672.32   693.97   769.70   956.79
                             1126.58  1185.73  1204.21  1278.57  1346.66
                             1390.21  1419.92  1448.04  1463.74  1515.08
                             1540.08  1561.91  1600.51  1628.09  1668.39
                             1687.27  1712.40  1776.34  1805.28  1885.83
                             1895.12  1920.29  1970.97  1994.37  2000.44
                             2020.58  2038.32  2058.41  2069.37  2074.61
                             2081.47  2083.57  2176.09  2188.62  2196.91
                             2203.93  2210.46  2216.54  2222.49  2233.76
                             4288.81  4317.30  4359.36  4374.02  4375.07
                             4385.80  4390.72  4417.38  4445.16  4476.23
                             4483.56  4486.03  4506.81  4510.32  4528.51
                             4565.65  5343.60  5397.75

 Zero-point correction=                           0.257378 (Hartree/Particle)
 Thermal correction to Energy=                    0.269967
 Thermal correction to Enthalpy=                  0.270911
 Thermal correction to Gibbs Free Energy=         0.219676
 Sum of electronic and zero-point Energies=           -465.900427
 Sum of electronic and thermal Energies=              -465.887839
 Sum of electronic and thermal Enthalpies=            -465.886895
 Sum of electronic and thermal Free Energies=         -465.938129

                     E (Thermal)             CV                S
                      KCal/Mol        Cal/Mol-Kelvin    Cal/Mol-Kelvin
 Total                  169.407             47.280            107.832
 Electronic               0.000              0.000              0.000
 Translational            0.889              2.981             40.849
 Rotational               0.889              2.981             30.184
 Vibrational            167.629             41.318             36.799
 Vibration     1          0.596              1.975              4.612
 Vibration     2          0.601              1.960              3.775
 Vibration     3          0.603              1.951              3.498
 Vibration     4          0.626              1.878              2.426
 Vibration     5          0.629              1.866              2.325
 Vibration     6          0.638              1.839              2.125
 Vibration     7          0.644              1.821              2.018
 Vibration     8          0.672              1.733              1.614
 Vibration     9          0.681              1.706              1.520
 Vibration    10          0.689              1.684              1.448
 Vibration    11          0.700              1.651              1.352
 Vibration    12          0.714              1.612              1.251
 Vibration    13          0.726              1.579              1.175
 Vibration    14          0.734              1.556              1.125
 Vibration    15          0.751              1.510              1.033
 Vibration    16          0.752              1.507              1.028
 Vibration    17          0.825              1.323              0.745
 Vibration    18          0.839              1.289              0.704
 Vibration    19          0.890              1.173              0.576

 Optimization completed.
    -- Stationary point found.

 1\1\GINC-NODE309\Freq\RB3LYP\6-31G(d)\C8H18O2\VSC10255\08-Dec-2020\0\\
 #N Geom=AllCheck Guess=TCheck SCRF=Check GenChk RB3LYP/6-31G(d) Freq\\
 CID_22323928_JID_656_neutraal\\0,1\C,1.1038590205,0.0678885487,-0.0483
 016562\C,0.6928470063,-0.4170020075,-1.4427971931\C,0.7450401697,-1.95
 21454076,-1.6195508163\C,-0.2021704547,-2.600734691,-0.5939165976\C,0.
 4088487763,-2.4344140123,-3.0662988219\C,0.7287457519,-1.4086585351,-4
 .1706166027\O,2.1233021589,-1.1454190516,-4.3153145782\C,1.105390901,-
 3.762998829,-3.4648481354\C,1.050332942,-4.9191075749,-2.4684964467\O,

 Normal termination of Gaussian 16 at Tue Dec  8 13:04:03 2020.

 ----------------------------------------------------------------------
 # B3LYP/6-311++G(d,p) empiricaldispersion=gd3bj scf=xqc pop=npa geom=c
 heck
 ----------------------------------------------------------------------

 -------------------------------------
 CID_22323928_JID_656_Energie_neutraal
 -------------------------------------
 Structure from the checkpoint file:  "JID_656.chk"
 Charge =  0 Multiplicity = 1

 SCF Done:  E(RB3LYP) =  -466.313545121     A.U. after   13 cycles
 Normal termination of Gaussian 16 at Tue Dec  8 13:09:18 2020.

 ----------------------------------------------------------------------
 # B3LYP/6-311++G(d,p) empiricaldispersion=gd3bj scf=xqc pop=npa geom=c
 heck
 ----------------------------------------------------------------------

 -----------------------------------
 CID_22323928_JID_656_Energie_kation
 -----------------------------------
 Structure from the checkpoint file:  "JID_656.chk"
 Charge =  1 Multiplicity = 2

 SCF Done:  E(UB3LYP) =  -465.971450027     A.U. after   23 cycles
 Normal termination of Gaussian 16 at Tue Dec  8 13:23:18 2020.
 Gaussian 16:  ES64L-G16RevA.03 25-Dec-2016

 ----------------------------------
 CID_22323928_JID_656_Energie_anion
 ----------------------------------
 Structure from the checkpoint file:  "JID_656.chk"
 Charge = -1 Multiplicity = 2

                         Standard orientation:
 ---------------------------------------------------------------------
 Center     Atomic      Atomic             Coordinates (Angstroms)
 Number     Number       Type             X           Y           Z
 ---------------------------------------------------------------------
      1          6           0       -3.421508   -0.087106    0.383355
      2          6           0       -2.115273    0.440065   -0.220391
      3          6           0       -0.883967   -0.452510    0.058583
      4          6           0       -1.145182   -1.852528   -0.525810
      5          6           0        0.458084    0.132797   -0.484560
      6          6           0        0.488494    1.669964   -0.585650
      7          8           0        0.427614    2.324269    0.680525
      8          6           0        1.707165   -0.293485    0.332281
      9          6           0        1.851037   -1.771648    0.688189
     10          8           0        2.897263    0.149310   -0.333995
     11          1           0       -3.746307   -1.020167   -0.086439
     12          1           0       -4.228146    0.642911    0.255727
     13          1           0       -3.309921   -0.276097    1.458441
     14          1           0       -2.234687    0.556729   -1.306495
     15          1           0       -1.955359    1.453111    0.167764
     16          1           0       -0.794660   -0.544583    1.152505
     17          1           0       -1.411937   -1.768273   -1.587468
     18          1           0       -0.273196   -2.503378   -0.458929
     19          1           0       -1.970175   -2.357560   -0.014673
     20          1           0        0.585819   -0.243232   -1.514108
     21          1           0        1.447011    1.968932   -1.011943
     22          1           0       -0.306488    2.028414   -1.253883
     23          1           0       -0.418421    2.096065    1.094203
     24          1           0        1.689076    0.289788    1.258264
     25          1           0        1.902652   -2.397901   -0.212279
     26          1           0        2.783691   -1.907710    1.244426
     27          1           0        1.026896   -2.136015    1.308762
     28          1           0        2.982036   -0.382968   -1.142084
 ---------------------------------------------------------------------

 SCF Done:  E(UB3LYP) =  -466.299005036     A.U. after   28 cycles

 The electronic state is 2-A.
 Alpha  occ. eigenvalues --  -19.02074 -19.01756 -10.11651 -10.10628 -10.07565
 Alpha  occ. eigenvalues --  -10.07154 -10.06622 -10.05928 -10.05376 -10.05087
 Alpha  occ. eigenvalues --   -0.92388  -0.91684  -0.72006  -0.66514  -0.62545
 Alpha  occ. eigenvalues --   -0.61272  -0.54489  -0.53319  -0.49441  -0.45895
 Alpha  occ. eigenvalues --   -0.40455  -0.38269  -0.36699  -0.36297  -0.35481
 Alpha  occ. eigenvalues --   -0.33920  -0.32364  -0.30532  -0.29511  -0.28233
 Alpha  occ. eigenvalues --   -0.27678  -0.26702  -0.26449  -0.25895  -0.24519
 Alpha  occ. eigenvalues --   -0.23586  -0.22019  -0.21903  -0.20009  -0.18089
 Alpha  occ. eigenvalues --   -0.16669   0.04597
 Alpha virt. eigenvalues --    0.06545   0.07518   0.08109   0.09219   0.09563
 Alpha virt. eigenvalues --    0.09877   0.10625   0.11043   0.12232   0.12318
 Alpha virt. eigenvalues --    0.12913   0.13419   0.13575   0.14834   0.15540

  Beta  occ. eigenvalues --  -19.02061 -19.01731 -10.11646 -10.10620 -10.07555
  Beta  occ. eigenvalues --  -10.07139 -10.06598 -10.05896 -10.05332 -10.05053
  Beta  occ. eigenvalues --   -0.92348  -0.91640  -0.71971  -0.66471  -0.62498
  Beta  occ. eigenvalues --   -0.61219  -0.54423  -0.53248  -0.49368  -0.45827
  Beta  occ. eigenvalues --   -0.40423  -0.38219  -0.36656  -0.36258  -0.35439
  Beta  occ. eigenvalues --   -0.33882  -0.32325  -0.30496  -0.29464  -0.28197
  Beta  occ. eigenvalues --   -0.27620  -0.26660  -0.26416  -0.25837  -0.24482
  Beta  occ. eigenvalues --   -0.23538  -0.21960  -0.21871  -0.19978  -0.18065
  Beta  occ. eigenvalues --   -0.16645
  Beta virt. eigenvalues --    0.07030   0.07710   0.08141   0.08690   0.09894
  Beta virt. eigenvalues --    0.10129   0.10496   0.11028   0.11501   0.12654
  Beta virt. eigenvalues --    0.12790   0.13428   0.13725   0.14073   0.15176

 Mulliken charges and spin densities:
               1          2
     1  C    1.900632  -2.598758
     2  C   -1.646587   1.528634
     3  C   -0.556658   0.520976
     4  C    1.601897  -2.361196
     5  C    0.296313   0.203010
     6  C   -0.445713  -0.128265
     7  O   -0.200650  -0.013039
     8  C   -0.451773   0.058431
     9  C    0.883337  -1.439005
    10  O   -0.206978   0.001673
    11  H   -0.195815   0.348519
    12  H   -0.598411   0.745573
    13  H   -0.449240   0.591962
    14  H   -0.056993   0.215698
    15  H    0.006780   0.087749
    16  H    0.206198   0.006423
    17  H   -0.400658   0.561921
    18  H    0.113842   0.011222
    19  H   -0.155241   0.293774
    20  H   -0.232935   0.418568
    21  H    0.098057   0.111111
    22  H   -0.197508   0.359266
    23  H    0.125038   0.104961
    24  H    0.153963   0.066814
    25  H   -0.418228   0.588197
    26  H    0.008950   0.146520
    27  H   -0.207199   0.351093
    28  H    0.025578   0.218168
 Sum of Mulliken charges =  -1.00000   1.00000

 Dipole moment (field-independent basis, Debye):
    X=              2.9136    Y=              1.4497    Z=              0.7435  Tot=              3.3382
 Quadrupole moment (field-independent basis, Debye-Ang):
   XX=           -133.8350   YY=           -110.3060   ZZ=            -97.4686
   XY=              0.0339   XZ=              3.0788   YZ=             -3.9810

 Summary of Natural Population Analysis:

                                       Natural Population
                Natural  -----------------------------------------------
    Atom  No    Charge         Core      Valence    Rydberg      Total
 -----------------------------------------------------------------------
      C    1   -0.28434      0.99967     2.27944    0.00524     3.28434
      C    2   -0.18780      0.99962     2.17845    0.00974     3.18780
      C    3   -0.11532      0.99959     2.10449    0.01124     3.11532
      C    4   -0.28586      0.99965     2.27979    0.00642     3.28586
      C    5   -0.12708      0.99956     2.11467    0.01286     3.12708
      C    6   -0.01270      0.99956     2.00055    0.01259     3.01270
      O    7   -0.37233      0.99990     3.36592    0.00651     4.37233
      C    8    0.06233      0.99955     1.92417    0.01394     2.93767
      C    9   -0.29877      0.99964     2.29339    0.00574     3.29877
      O   10   -0.37394      0.99990     3.36717    0.00687     4.37394
      H   11    0.09875      0.00000     0.39997    0.00128     0.40125
      H   12    0.10095      0.00000     0.39757    0.00147     0.39905
      H   13    0.09651      0.00000     0.40197    0.00152     0.40349
      H   14    0.09643      0.00000     0.40222    0.00135     0.40357
      H   15    0.08778      0.00000     0.41043    0.00179     0.41222
      H   16    0.09231      0.00000     0.40574    0.00195     0.40769
      H   17    0.09769      0.00000     0.40088    0.00144     0.40231
      H   18    0.10273      0.00000     0.39571    0.00156     0.39727
      H   19    0.10103      0.00000     0.39782    0.00115     0.39897
      H   20    0.09833      0.00000     0.39982    0.00186     0.40167
      H   21    0.09706      0.00000     0.40147    0.00146     0.40294
      H   22    0.07918      0.00000     0.41943    0.00138     0.42082
      H   23    0.22627      0.00000     0.27045    0.00328     0.27373
      H   24    0.09218      0.00000     0.40601    0.00181     0.40782
      H   25    0.09783      0.00000     0.40058    0.00160     0.40217
      H   26    0.10253      0.00000     0.39658    0.00089     0.39747
      H   27    0.10306      0.00000     0.39593    0.00101     0.39694
      H   28    0.22518      0.00000     0.27156    0.00327     0.27482
 =======================================================================
   * Total *   -0.00000      9.99663    30.88220    0.12117    41.00000

 Normal termination of Gaussian 16 at Tue Dec  8 13:34:09 2020.
