 Gaussian 16, Revision A.03,

 -----------------------------------------------------------
 # opt freq B3LYP/6-31G(d) empiricaldispersion=gd3bj scf=xqc
 -----------------------------------------------------------

 -------------------------------
 CID_43633338_JID_10324_neutraal
 -------------------------------
 Symbolic Z-matrix:
 Charge =  0 Multiplicity = 1

 SCF Done:  E(RB3LYP) =  -808.704782971     A.U. after   14 cycles
 SCF Done:  E(RB3LYP) =  -808.724854792     A.U. after   12 cycles
 SCF Done:  E(RB3LYP) =  -808.728391419     A.U. after   13 cycles
 SCF Done:  E(RB3LYP) =  -808.728067015     A.U. after   14 cycles
 SCF Done:  E(RB3LYP) =  -808.729225556     A.U. after   12 cycles
 SCF Done:  E(RB3LYP) =  -808.729751954     A.U. after   12 cycles
 SCF Done:  E(RB3LYP) =  -808.729858552     A.U. after   11 cycles
 SCF Done:  E(RB3LYP) =  -808.729883342     A.U. after   10 cycles
 SCF Done:  E(RB3LYP) =  -808.729892394     A.U. after   10 cycles
 SCF Done:  E(RB3LYP) =  -808.729895157     A.U. after    9 cycles
 SCF Done:  E(RB3LYP) =  -808.729897669     A.U. after    8 cycles
 SCF Done:  E(RB3LYP) =  -808.729897806     A.U. after    7 cycles
 SCF Done:  E(RB3LYP) =  -808.729897889     A.U. after    7 cycles
 SCF Done:  E(RB3LYP) =  -808.729897900     A.U. after    6 cycles
 SCF Done:  E(RB3LYP) =  -808.729897907     A.U. after    6 cycles
 Optimization completed.
    -- Stationary point found.
 Normal termination of Gaussian 16 at Mon Dec 14 13:56:33 2020.

 --------------------------------------------------------------------
 #N Geom=AllCheck Guess=TCheck SCRF=Check GenChk RB3LYP/6-31G(d) Freq
 --------------------------------------------------------------------

 Structure from the checkpoint file:  "JID_10324.chk"
 -------------------------------
 CID_43633338_JID_10324_neutraal
 -------------------------------
 Charge =  0 Multiplicity = 1

 SCF Done:  E(RB3LYP) =  -808.729897907     A.U. after    1 cycles

  Exact polarizability: 254.996  -1.687 213.337   1.070  20.115 116.986
 Approx polarizability: 345.390   0.987 338.050   1.162  44.687 187.929

                      1                      2                      3
                      A                      A                      A
 Frequencies --     14.6448                21.0533                30.1151
 Red. masses --      5.1975                 3.7770                 1.0737
 Frc consts  --      0.0007                 0.0010                 0.0006
 IR Inten    --      0.0470                 0.7608                 0.1326

                      4                      5                      6
                      A                      A                      A
 Frequencies --     32.0766                37.4784                68.3626
 Red. masses --      3.7582                 3.6780                 4.7284
 Frc consts  --      0.0023                 0.0030                 0.0130
 IR Inten    --      0.9605                 0.0424                 0.4204

                      7                      8                      9
                      A                      A                      A
 Frequencies --    118.8641               127.4586               140.6556
 Red. masses --      4.3468                 3.5788                 3.0314
 Frc consts  --      0.0362                 0.0343                 0.0353
 IR Inten    --      0.6241                 0.0093                 0.1524

                     10                     11                     12
                      A                      A                      A
 Frequencies --    199.4068               212.8131               234.0800
 Red. masses --      3.3364                 3.1300                 4.3454
 Frc consts  --      0.0782                 0.0835                 0.1403
 IR Inten    --      0.4753                 1.8026                 2.2207

                     13                     14                     15
                      A                      A                      A
 Frequencies --    243.4467               287.9241               332.3537
 Red. masses --      2.9042                 3.3924                 3.0339
 Frc consts  --      0.1014                 0.1657                 0.1974
 IR Inten    --      1.6460                 0.5451                 1.8317

                     16                     17                     18
                      A                      A                      A
 Frequencies --    341.1086               376.6428               407.0138
 Red. masses --      2.6505                 3.1259                 2.1931
 Frc consts  --      0.1817                 0.2613                 0.2141
 IR Inten    --      4.5810                 0.0656                 1.2162

                     19                     20                     21
                      A                      A                      A
 Frequencies --    419.3092               453.0993               453.5830
 Red. masses --      3.6331                 2.4130                 2.8293
 Frc consts  --      0.3764                 0.2919                 0.3430
 IR Inten    --      2.5566                 3.8665                 1.1329

                     22                     23                     24
                      A                      A                      A
 Frequencies --    497.5079               512.9844               528.1158
 Red. masses --      2.4154                 3.6356                 4.6065
 Frc consts  --      0.3522                 0.5637                 0.7570
 IR Inten    --      2.2874                 1.9556                 0.7117

                     25                     26                     27
                      A                      A                      A
 Frequencies --    571.6972               588.1115               598.4595
 Red. masses --      2.3852                 3.5131                 2.9067
 Frc consts  --      0.4593                 0.7159                 0.6134
 IR Inten    --      0.3805                 1.6177                 0.7218

                     28                     29                     30
                      A                      A                      A
 Frequencies --    643.6991               655.2664               719.7153
 Red. masses --      6.6985                 4.1302                 2.2298
 Frc consts  --      1.6353                 1.0449                 0.6805
 IR Inten    --      2.3101                13.1386                11.9765

                     31                     32                     33
                      A                      A                      A
 Frequencies --    735.8624               765.5496               775.9257
 Red. masses --      3.6805                 1.7070                 2.5026
 Frc consts  --      1.1742                 0.5894                 0.8877
 IR Inten    --     12.3011                11.2022                36.4285

                     34                     35                     36
                      A                      A                      A
 Frequencies --    790.3314               801.2556               817.0879
 Red. masses --      1.9493                 1.4421                 1.8447
 Frc consts  --      0.7174                 0.5455                 0.7256
 IR Inten    --      6.5306                25.5094                 2.8178

                     37                     38                     39
                      A                      A                      A
 Frequencies --    819.9471               851.3236               870.0704
 Red. masses --      1.8259                 2.0139                 2.3503
 Frc consts  --      0.7232                 0.8599                 1.0483
 IR Inten    --     24.2253                48.8598                 4.6415

                     40                     41                     42
                      A                      A                      A
 Frequencies --    901.4678               905.0485               909.8713
 Red. masses --      1.3358                 1.3184                 1.5583
 Frc consts  --      0.6396                 0.6363                 0.7601
 IR Inten    --      1.6729                 0.8335                 0.3391

                     43                     44                     45
                      A                      A                      A
 Frequencies --    921.7781               947.6046               961.7526
 Red. masses --      2.5955                 2.0443                 2.1583
 Frc consts  --      1.2994                 1.0815                 1.1762
 IR Inten    --      3.4437                11.7970                15.2811

                     46                     47                     48
                      A                      A                      A
 Frequencies --    974.1070               975.1879               994.4053
 Red. masses --      1.3092                 1.3885                 2.0291
 Frc consts  --      0.7319                 0.7780                 1.1822
 IR Inten    --      1.0759                 0.1914                 3.8570

                     49                     50                     51
                      A                      A                      A
 Frequencies --   1005.2598              1013.9847              1020.9961
 Red. masses --      1.2930                 5.6512                 5.5916
 Frc consts  --      0.7699                 3.4234                 3.4343
 IR Inten    --      0.1119                 8.5073                 0.0617

                     52                     53                     54
                      A                      A                      A
 Frequencies --   1031.0482              1040.4075              1045.6137
 Red. masses --      1.7756                 2.2348                 1.9773
 Frc consts  --      1.1122                 1.4253                 1.2737
 IR Inten    --      0.2748                 3.4134                 0.7664

                     55                     56                     57
                      A                      A                      A
 Frequencies --   1073.4991              1075.8394              1082.2287
 Red. masses --      1.8710                 1.5235                 2.3148
 Frc consts  --      1.2704                 1.0389                 1.5974
 IR Inten    --     14.8119                10.0836                 6.8259

                     58                     59                     60
                      A                      A                      A
 Frequencies --   1088.4225              1124.7217              1129.6617
 Red. masses --      2.8608                 1.7034                 1.6873
 Frc consts  --      1.9968                 1.2696                 1.2687
 IR Inten    --      6.4584                 2.8142                 1.6364

                     61                     62                     63
                      A                      A                      A
 Frequencies --   1153.4222              1163.7322              1188.0080
 Red. masses --      1.7749                 2.0234                 1.1327
 Frc consts  --      1.3912                 1.6145                 0.9419
 IR Inten    --      1.0395                44.8550                 3.2047

                     64                     65                     66
                      A                      A                      A
 Frequencies --   1198.8497              1205.8015              1212.7648
 Red. masses --      1.4905                 1.2998                 1.1481
 Frc consts  --      1.2621                 1.1134                 0.9949
 IR Inten    --      1.6413                 0.3139                 0.5277

                     67                     68                     69
                      A                      A                      A
 Frequencies --   1233.9683              1245.1384              1259.2072
 Red. masses --      1.6290                 1.3848                 2.3453
 Frc consts  --      1.4615                 1.2649                 2.1910
 IR Inten    --     45.7628                13.7830                 7.9991

                     70                     71                     72
                      A                      A                      A
 Frequencies --   1268.0878              1276.5846              1283.5211
 Red. masses --      1.2262                 1.4504                 2.3084
 Frc consts  --      1.1618                 1.3926                 2.2407
 IR Inten    --      1.4635                 0.6460                 0.7948

                     73                     74                     75
                      A                      A                      A
 Frequencies --   1303.3674              1314.4600              1318.0026
 Red. masses --      1.3941                 2.7239                 2.2910
 Frc consts  --      1.3954                 2.7729                 2.3448
 IR Inten    --      0.4969                19.4679                15.7867

                     76                     77                     78
                      A                      A                      A
 Frequencies --   1334.2077              1350.4618              1366.4294
 Red. masses --      2.1173                 1.3954                 2.0586
 Frc consts  --      2.2206                 1.4993                 2.2646
 IR Inten    --      5.5696                13.8127                 0.3929

                     79                     80                     81
                      A                      A                      A
 Frequencies --   1374.3429              1388.0988              1399.5705
 Red. masses --      1.4316                 1.5400                 1.3196
 Frc consts  --      1.5932                 1.7483                 1.5230
 IR Inten    --      6.0400                26.5532                19.4741

                     82                     83                     84
                      A                      A                      A
 Frequencies --   1418.4308              1441.7482              1481.2796
 Red. masses --      1.3372                 1.2483                 2.0919
 Frc consts  --      1.5851                 1.5288                 2.7044
 IR Inten    --      7.9014                 0.1263                21.5859

                     85                     86                     87
                      A                      A                      A
 Frequencies --   1486.2340              1505.5022              1510.8332
 Red. masses --      2.0810                 1.0972                 1.1339
 Frc consts  --      2.7082                 1.4652                 1.5250
 IR Inten    --      1.9764                 4.7163                 0.2826

                     88                     89                     90
                      A                      A                      A
 Frequencies --   1513.3538              1518.4341              1524.7272
 Red. masses --      1.1315                 1.0513                 2.0944
 Frc consts  --      1.5268                 1.4281                 2.8687
 IR Inten    --      4.2734                 5.6263                22.6640

                     91                     92                     93
                      A                      A                      A
 Frequencies --   1525.5279              1535.7748              1545.9555
 Red. masses --      1.2299                 1.2174                 1.9948
 Frc consts  --      1.6863                 1.6918                 2.8090
 IR Inten    --      7.9257                 5.5994                22.6316

                     94                     95                     96
                      A                      A                      A
 Frequencies --   1554.1856              1628.9604              1649.7230
 Red. masses --      1.2249                 5.5827                 5.2069
 Frc consts  --      1.7432                 8.7280                 8.3493
 IR Inten    --     52.4422                14.4160                 1.5182

                     97                     98                     99
                      A                      A                      A
 Frequencies --   1653.2130              1669.3459              3033.0079
 Red. masses --      5.3999                 5.7641                 1.0615
 Frc consts  --      8.6955                 9.4639                 5.7531
 IR Inten    --     48.4886                22.9427                53.4935

                    100                    101                    102
                      A                      A                      A
 Frequencies --   3039.9468              3046.5429              3060.8002
 Red. masses --      1.0404                 1.0853                 1.0670
 Frc consts  --      5.6647                 5.9350                 5.8894
 IR Inten    --     38.0010                40.2545                28.8355

                    103                    104                    105
                      A                      A                      A
 Frequencies --   3061.6541              3066.5951              3069.9594
 Red. masses --      1.0703                 1.0674                 1.0717
 Frc consts  --      5.9109                 5.9140                 5.9508
 IR Inten    --     32.1786                12.2125                37.3167

                    106                    107                    108
                      A                      A                      A
 Frequencies --   3078.7994              3096.4363              3120.9103
 Red. masses --      1.1015                 1.0957                 1.0983
 Frc consts  --      6.1518                 6.1898                 6.3031
 IR Inten    --     47.2256                23.7487                22.4625

                    109                    110                    111
                      A                      A                      A
 Frequencies --   3121.2128              3123.3106              3143.9845
 Red. masses --      1.1068                 1.1026                 1.1021
 Frc consts  --      6.3530                 6.3370                 6.4185
 IR Inten    --     48.6451                18.3906                15.8072

                    112                    113                    114
                      A                      A                      A
 Frequencies --   3163.3834              3170.3346              3171.8053
 Red. masses --      1.0894                 1.0892                 1.0854
 Frc consts  --      6.4230                 6.4501                 6.4334
 IR Inten    --     24.2497                20.5979                 3.0340

                    115                    116                    117
                      A                      A                      A
 Frequencies --   3183.2557              3191.4224              3197.7559
 Red. masses --      1.0902                 1.0874                 1.0963
 Frc consts  --      6.5085                 6.5256                 6.6048
 IR Inten    --     25.7763                 4.7606                23.7283

                    118                    119                    120
                      A                      A                      A
 Frequencies --   3206.4947              3218.4229              3490.9508
 Red. masses --      1.0929                 1.0976                 1.0727
 Frc consts  --      6.6207                 6.6984                 7.7026
 IR Inten    --     21.5561                17.8112                 3.1931

 - Thermochemistry -
 -------------------
 Temperature   298.150 Kelvin.  Pressure   1.00000 Atm.
 Atom     1 has atomic number  6 and mass  12.00000

 Molecular mass:   266.17830 amu.
 Principal axes and moments of inertia in atomic units:
                           1         2         3
     Eigenvalues --  2979.91485********************
           X            0.99999  -0.00516   0.00078
           Y            0.00515   0.99993   0.01097
           Z           -0.00084  -0.01097   0.99994
 This molecule is an asymmetric top.
 Rotational symmetry number  1.
 Warning -- assumption of classical behavior for rotation
           may cause significant error
 Rotational temperatures (Kelvin)      0.02907     0.00821     0.00676
 Rotational constants (GHZ):           0.60564     0.17101     0.14076
 Zero-point vibrational energy     959258.8 (Joules/Mol)
                                  229.26836 (Kcal/Mol)
 Warning -- explicit consideration of  27 degrees of freedom as
           vibrations may cause significant error
 Vibrational temperatures:     21.07    30.29    43.33    46.15    53.92
          (Kelvin)             98.36   171.02   183.38   202.37   286.90
                              306.19   336.79   350.27   414.26   478.18
                              490.78   541.91   585.60   603.29   651.91
                              652.60   715.80   738.07   759.84   822.54
                              846.16   861.05   926.14   942.78  1035.51
                             1058.74  1101.46  1116.38  1137.11  1152.83
                             1175.61  1179.72  1224.86  1251.84  1297.01
                             1302.16  1309.10  1326.23  1363.39  1383.75
                             1401.52  1403.08  1430.73  1446.34  1458.90
                             1468.99  1483.45  1496.91  1504.40  1544.53
                             1547.89  1557.09  1566.00  1618.22  1625.33
                             1659.52  1674.35  1709.28  1724.88  1734.88
                             1744.90  1775.41  1791.48  1811.72  1824.50
                             1836.72  1846.70  1875.26  1891.21  1896.31
                             1919.63  1943.01  1965.99  1977.37  1997.16
                             2013.67  2040.81  2074.35  2131.23  2138.36
                             2166.08  2173.75  2177.38  2184.69  2193.74
                             2194.89  2209.64  2224.29  2236.13  2343.71
                             2373.58  2378.60  2401.82  4363.82  4373.81
                             4383.30  4403.81  4405.04  4412.15  4416.99
                             4429.71  4455.08  4490.29  4490.73  4493.75
                             4523.49  4551.40  4561.40  4563.52  4579.99
                             4591.75  4600.86  4613.43  4630.59  5022.70

 Zero-point correction=                           0.365362 (Hartree/Particle)
 Thermal correction to Energy=                    0.383535
 Thermal correction to Enthalpy=                  0.384479
 Thermal correction to Gibbs Free Energy=         0.315135
 Sum of electronic and zero-point Energies=           -808.364536
 Sum of electronic and thermal Energies=              -808.346363
 Sum of electronic and thermal Enthalpies=            -808.345419
 Sum of electronic and thermal Free Energies=         -808.414763

                     E (Thermal)             CV                S
                      KCal/Mol        Cal/Mol-Kelvin    Cal/Mol-Kelvin
 Total                  240.672             70.568            145.947
 Electronic               0.000              0.000              0.000
 Translational            0.889              2.981             42.636
 Rotational               0.889              2.981             34.355
 Vibrational            238.894             64.607             68.956
 Vibration     1          0.593              1.986              7.253
 Vibration     2          0.593              1.985              6.532
 Vibration     3          0.594              1.984              5.822
 Vibration     4          0.594              1.983              5.697
 Vibration     5          0.594              1.982              5.388
 Vibration     6          0.598              1.969              4.200
 Vibration     7          0.609              1.934              3.119
 Vibration     8          0.611              1.926              2.984
 Vibration     9          0.615              1.913              2.795
 Vibration    10          0.638              1.841              2.139
 Vibration    11          0.644              1.821              2.019
 Vibration    12          0.654              1.789              1.847
 Vibration    13          0.659              1.774              1.778
 Vibration    14          0.685              1.696              1.486
 Vibration    15          0.714              1.611              1.249
 Vibration    16          0.721              1.593              1.207
 Vibration    17          0.747              1.520              1.053
 Vibration    18          0.772              1.455              0.937
 Vibration    19          0.782              1.428              0.894
 Vibration    20          0.812              1.354              0.786
 Vibration    21          0.812              1.353              0.785
 Vibration    22          0.853              1.256              0.664
 Vibration    23          0.868              1.221              0.626
 Vibration    24          0.883              1.188              0.591
 Vibration    25          0.928              1.092              0.501
 Vibration    26          0.945              1.057              0.471
 Vibration    27          0.956              1.035              0.452

 Optimization completed.
    -- Stationary point found.
 Normal termination of Gaussian 16 at Mon Dec 14 14:17:50 2020.

 ----------------------------------------------------------------------
 # B3LYP/6-311++G(d,p) empiricaldispersion=gd3bj scf=xqc pop=npa geom=c
 heck
 ----------------------------------------------------------------------

 ---------------------------------------
 CID_43633338_JID_10324_Energie_neutraal
 ---------------------------------------
 Structure from the checkpoint file:  "JID_10324.chk"
 Charge =  0 Multiplicity = 1

 SCF Done:  E(RB3LYP) =  -808.939058590     A.U. after   14 cycles
 Normal termination of Gaussian 16 at Mon Dec 14 14:26:22 2020.

 ----------------------------------------------------------------------
 # B3LYP/6-311++G(d,p) empiricaldispersion=gd3bj scf=xqc pop=npa geom=c
 heck
 ----------------------------------------------------------------------

 -------------------------------------
 CID_43633338_JID_10324_Energie_kation
 -------------------------------------
 Structure from the checkpoint file:  "JID_10324.chk"
 Charge =  1 Multiplicity = 2

 SCF Done:  E(UB3LYP) =  -808.666333561     A.U. after   25 cycles
 Normal termination of Gaussian 16 at Mon Dec 14 14:47:15 2020.
 Gaussian 16:  ES64L-G16RevA.03 25-Dec-2016

 ----------------------------------------------------------------------
 # B3LYP/6-311++G(d,p) empiricaldispersion=gd3bj scf=xqc pop=npa geom=c
 heck
 ----------------------------------------------------------------------

 ------------------------------------
 CID_43633338_JID_10324_Energie_anion
 ------------------------------------
 Structure from the checkpoint file:  "JID_10324.chk"
 Charge = -1 Multiplicity = 2

                         Standard orientation:
 ---------------------------------------------------------------------
 Center     Atomic      Atomic             Coordinates (Angstroms)
 Number     Number       Type             X           Y           Z
 ---------------------------------------------------------------------
      1          6           0       -6.149948    0.566098   -0.580333
      2          6           0       -4.683836    0.681191   -0.238030
      3          6           0       -3.846821   -0.439630   -0.302503
      4          6           0       -2.479603   -0.363158   -0.021340
      5          6           0       -1.942393    0.882727    0.335970
      6          6           0       -2.759925    2.006989    0.409263
      7          6           0       -4.123348    1.909073    0.126036
      8          6           0       -1.610819   -1.589924   -0.080894
      9          6           0       -0.234813   -1.502372   -0.802595
     10          6           0        0.396709   -2.344869    0.357202
     11          6           0       -0.849317   -2.021102    1.210518
     12          7           0        1.662449   -2.005282    0.974656
     13          6           0        2.848817   -2.216441    0.161199
     14          6           0        3.079909   -1.222707   -1.013972
     15          6           0        3.298563    0.191283   -0.541286
     16          6           0        4.563629    0.791317   -0.599593
     17          6           0        4.730353    2.088292   -0.122438
     18          6           0        3.627694    2.756907    0.407293
     19          6           0        2.408176    2.083792    0.434496
     20          7           0        2.235258    0.837901   -0.022400
     21          1           0       -6.313077    0.647531   -1.663271
     22          1           0       -6.560679   -0.398689   -0.263441
     23          1           0       -6.735846    1.357849   -0.102042
     24          1           0       -4.273531   -1.402491   -0.578616
     25          1           0       -0.880971    0.970126    0.553976
     26          1           0       -2.335099    2.967347    0.690375
     27          1           0       -4.756147    2.791330    0.187355
     28          1           0       -2.194417   -2.431312   -0.469794
     29          1           0       -0.184695   -1.903700   -1.820947
     30          1           0        0.158315   -0.483459   -0.799329
     31          1           0        0.426121   -3.407783    0.085630
     32          1           0       -0.660394   -1.157126    1.857755
     33          1           0       -1.282908   -2.821575    1.817624
     34          1           0        1.631212   -1.029039    1.264907
     35          1           0        3.728431   -2.178869    0.817436
     36          1           0        2.802636   -3.232825   -0.249597
     37          1           0        3.956724   -1.555116   -1.582621
     38          1           0        2.220168   -1.253632   -1.689459
     39          1           0        5.401037    0.242243   -1.019629
     40          1           0        5.703461    2.569692   -0.165141
     41          1           0        3.706729    3.770026    0.788447
     42          1           0        1.520820    2.566356    0.840627
 ---------------------------------------------------------------------

 SCF Done:  E(UB3LYP) =  -808.930707939     A.U. after   33 cycles
 SCF Done:  E(UB3LYP) =  -808.930707938     a.u. after    1 cycles

 The electronic state is 2-A.
 Alpha  occ. eigenvalues --  -14.18811 -14.17794 -10.09568 -10.09200 -10.09161
 Alpha  occ. eigenvalues --  -10.09051 -10.08882 -10.08599 -10.08286 -10.08077
 Alpha  occ. eigenvalues --  -10.07854 -10.07841 -10.07639 -10.07489 -10.06943
 Alpha  occ. eigenvalues --  -10.06335 -10.06322 -10.06263 -10.06209 -10.05737
 Alpha  occ. eigenvalues --   -0.82614  -0.80656  -0.77032  -0.73407  -0.68611
 Alpha  occ. eigenvalues --   -0.68142  -0.67366  -0.65696  -0.61408  -0.59541
 Alpha  occ. eigenvalues --   -0.56248  -0.55931  -0.52611  -0.51603  -0.50772
 Alpha  occ. eigenvalues --   -0.48849  -0.47772  -0.44722  -0.41751  -0.40307
 Alpha  occ. eigenvalues --   -0.39569  -0.38491  -0.37593  -0.36688  -0.35566
 Alpha  occ. eigenvalues --   -0.34816  -0.34516  -0.33225  -0.32208  -0.31754
 Alpha  occ. eigenvalues --   -0.31710  -0.30448  -0.29722  -0.29438  -0.28631
 Alpha  occ. eigenvalues --   -0.28345  -0.27951  -0.27235  -0.26058  -0.25976
 Alpha  occ. eigenvalues --   -0.25447  -0.24693  -0.23593  -0.22838  -0.21974
 Alpha  occ. eigenvalues --   -0.20474  -0.17833  -0.15745  -0.15051  -0.14789
 Alpha  occ. eigenvalues --   -0.14296  -0.11358   0.04299
 Alpha virt. eigenvalues --    0.05377   0.06606   0.06826   0.07402   0.07510
 Alpha virt. eigenvalues --    0.07549   0.07773   0.08743   0.08874   0.08982
 Alpha virt. eigenvalues --    0.09443   0.09752   0.10147   0.10704   0.10802

  Beta  occ. eigenvalues --  -14.18811 -14.17468 -10.09563 -10.09162 -10.09115
  Beta  occ. eigenvalues --  -10.09024 -10.08843 -10.08599 -10.08284 -10.08073
  Beta  occ. eigenvalues --  -10.07844 -10.07809 -10.07630 -10.07488 -10.06942
  Beta  occ. eigenvalues --  -10.06347 -10.06308 -10.06267 -10.05933 -10.05728
  Beta  occ. eigenvalues --   -0.82221  -0.80597  -0.77024  -0.73394  -0.68235
  Beta  occ. eigenvalues --   -0.68050  -0.67228  -0.65667  -0.61302  -0.59500
  Beta  occ. eigenvalues --   -0.56221  -0.55900  -0.52515  -0.51325  -0.50745
  Beta  occ. eigenvalues --   -0.48753  -0.47604  -0.44699  -0.41729  -0.40206
  Beta  occ. eigenvalues --   -0.39539  -0.38467  -0.37459  -0.36654  -0.35474
  Beta  occ. eigenvalues --   -0.34724  -0.34461  -0.33195  -0.32121  -0.31691
  Beta  occ. eigenvalues --   -0.31645  -0.30365  -0.29640  -0.29402  -0.28557
  Beta  occ. eigenvalues --   -0.28166  -0.27852  -0.26867  -0.25966  -0.25814
  Beta  occ. eigenvalues --   -0.25423  -0.24647  -0.23501  -0.22822  -0.21950
  Beta  occ. eigenvalues --   -0.20460  -0.16370  -0.15732  -0.14845  -0.14446
  Beta  occ. eigenvalues --   -0.13960  -0.11287
  Beta virt. eigenvalues --    0.06061   0.06638   0.06887   0.07450   0.07646
  Beta virt. eigenvalues --    0.07706   0.07814   0.08658   0.08796   0.09035
  Beta virt. eigenvalues --    0.09160   0.09654   0.09964   0.10178   0.10759

 Mulliken charges and spin densities:
               1          2
     1  C    1.890495  -2.317478
     2  C   -0.345743   0.931844
     3  C   -0.637642   0.303975
     4  C    0.391979   0.305419
     5  C   -0.218402   0.055401
     6  C    0.196105  -0.150218
     7  C   -0.646360  -0.348147
     8  C    0.168533  -0.262840
     9  C   -0.730181   0.020263
    10  C   -0.386468  -0.170951
    11  C   -0.492386  -0.088358
    12  N    0.150137   0.004794
    13  C    0.069992  -0.441072
    14  C   -0.068182  -0.023027
    15  C   -0.054573   0.118570
    16  C   -0.050361  -0.090954
    17  C   -0.510410   0.031595
    18  C    0.021971  -0.086317
    19  C   -0.193147   0.062390
    20  N    0.061128   0.162189
    21  H   -0.015947   0.183381
    22  H   -0.250425   0.392170
    23  H   -0.290264   0.433231
    24  H    0.002628   0.129348
    25  H    0.218508  -0.111655
    26  H    0.098505   0.044649
    27  H   -0.151297   0.290463
    28  H   -0.021038   0.209692
    29  H    0.015760   0.145673
    30  H    0.113181   0.108974
    31  H    0.051627   0.081878
    32  H    0.106118   0.039410
    33  H    0.131668   0.047221
    34  H    0.234053  -0.023809
    35  H    0.098437   0.079082
    36  H   -0.160892   0.282372
    37  H   -0.113130   0.308816
    38  H    0.106742   0.041870
    39  H    0.005358   0.129188
    40  H    0.037972   0.079391
    41  H    0.121914   0.016640
    42  H    0.044038   0.074934
 Sum of Mulliken charges =  -1.00000   1.00000

 Dipole moment (field-independent basis, Debye):
    X=              2.0392    Y=              0.2725    Z=              0.7511  Tot=              2.1901
 Quadrupole moment (field-independent basis, Debye-Ang):
   XX=           -235.1714   YY=           -156.6025   ZZ=           -146.6558
   XY=              5.9969   XZ=             -1.5632   YZ=              2.7814

 Summary of Natural Population Analysis:

                                       Natural Population
                Natural  -----------------------------------------------
    Atom  No    Charge         Core      Valence    Rydberg      Total
 -----------------------------------------------------------------------
      C    1   -0.29299      0.99964     2.28759    0.00577     3.29299
      C    2   -0.01506      0.99952     2.00643    0.00911     3.01506
      C    3   -0.09936      0.99947     2.09130    0.00859     3.09936
      C    4   -0.00721      0.99950     1.99770    0.01000     3.00721
      C    5   -0.10645      0.99951     2.09934    0.00760     3.10645
      C    6   -0.09636      0.99957     2.08750    0.00928     3.09636
      C    7   -0.11032      0.99951     2.10105    0.00976     3.11032
      C    8   -0.11739      0.99958     2.10697    0.01084     3.11739
      C    9   -0.20171      0.99961     2.19355    0.00855     3.20171
      C   10   -0.00783      0.99959     1.99428    0.01397     3.00783
      C   11   -0.18029      0.99962     2.17125    0.00942     3.18029
      N   12   -0.34278      0.99973     2.83175    0.01131     3.84278
      C   13   -0.07979      0.99963     2.06790    0.01227     3.07979
      C   14   -0.21438      0.99959     2.20580    0.00900     3.21438
      C   15    0.11982      0.99953     1.86613    0.01451     2.88018
      C   16   -0.12997      0.99951     2.12242    0.00804     3.12997
      C   17   -0.03839      0.99957     2.02856    0.01026     3.03839
      C   18   -0.13294      0.99956     2.12389    0.00949     3.13294
      C   19    0.03380      0.99959     1.95276    0.01385     2.96620
      N   20   -0.22217      0.99967     2.71136    0.01113     3.72217
      H   21    0.10455      0.00000     0.39445    0.00100     0.39545
      H   22    0.10334      0.00000     0.39553    0.00113     0.39666
      H   23    0.10264      0.00000     0.39622    0.00114     0.39736
      H   24    0.09695      0.00000     0.40150    0.00156     0.40305
      H   25    0.10717      0.00000     0.39110    0.00172     0.39283
      H   26    0.09866      0.00000     0.40051    0.00083     0.40134
      H   27    0.09832      0.00000     0.40082    0.00086     0.40168
      H   28    0.09735      0.00000     0.40103    0.00162     0.40265
      H   29    0.09571      0.00000     0.40328    0.00100     0.40429
      H   30    0.11618      0.00000     0.38218    0.00165     0.38382
      H   31    0.08838      0.00000     0.41034    0.00128     0.41162
      H   32    0.09839      0.00000     0.40030    0.00131     0.40161
      H   33    0.09641      0.00000     0.40268    0.00091     0.40359
      H   34    0.18402      0.00000     0.31312    0.00286     0.31598
      H   35    0.09071      0.00000     0.40828    0.00101     0.40929
      H   36    0.08981      0.00000     0.40892    0.00127     0.41019
      H   37    0.09788      0.00000     0.40098    0.00115     0.40212
      H   38    0.10554      0.00000     0.39298    0.00148     0.39446
      H   39    0.09749      0.00000     0.40145    0.00106     0.40251
      H   40    0.09215      0.00000     0.40705    0.00080     0.40785
      H   41    0.09686      0.00000     0.40230    0.00084     0.40314
      H   42    0.08327      0.00000     0.41565    0.00108     0.41673
 =======================================================================
   * Total *    0.00000     19.99150    51.77821    0.23029    72.00000

 Normal termination of Gaussian 16 at Mon Dec 14 15:15:06 2020.
