 Gaussian 16, Revision A.03,

 -----------------------------------------------------------
 # opt freq B3LYP/6-31G(d) empiricaldispersion=gd3bj scf=xqc
 -----------------------------------------------------------

 -------------------------------
 CID_106148083_JID_3536_neutraal
 -------------------------------
 Symbolic Z-matrix:
 Charge =  0 Multiplicity = 1

 SCF Done:  E(RB3LYP) =  -614.994434190     A.U. after   14 cycles
 SCF Done:  E(RB3LYP) =  -614.988002260     A.U. after   14 cycles
 SCF Done:  E(RB3LYP) =  -614.997061872     A.U. after   12 cycles
 SCF Done:  E(RB3LYP) =  -614.998796826     A.U. after   13 cycles
 SCF Done:  E(RB3LYP) =  -614.998858048     A.U. after   12 cycles
 SCF Done:  E(RB3LYP) =  -614.999612747     A.U. after   11 cycles
 SCF Done:  E(RB3LYP) =  -615.000070110     A.U. after   11 cycles
 SCF Done:  E(RB3LYP) =  -615.000178161     A.U. after   10 cycles
 SCF Done:  E(RB3LYP) =  -615.000194670     A.U. after   10 cycles
 SCF Done:  E(RB3LYP) =  -615.000203049     A.U. after    9 cycles
 SCF Done:  E(RB3LYP) =  -615.000211694     A.U. after    9 cycles
 SCF Done:  E(RB3LYP) =  -615.000212503     A.U. after    8 cycles
 SCF Done:  E(RB3LYP) =  -615.000212889     A.U. after    7 cycles
 SCF Done:  E(RB3LYP) =  -615.000213033     A.U. after    7 cycles
 SCF Done:  E(RB3LYP) =  -615.000213135     A.U. after    7 cycles
 SCF Done:  E(RB3LYP) =  -615.000213159     A.U. after    6 cycles
 Optimization completed.
    -- Stationary point found.
 Normal termination of Gaussian 16 at Mon Dec 14 18:49:49 2020.

 --------------------------------------------------------------------
 #N Geom=AllCheck Guess=TCheck SCRF=Check GenChk RB3LYP/6-31G(d) Freq
 --------------------------------------------------------------------

 Structure from the checkpoint file:  "JID_3536.chk"
 -------------------------------
 CID_106148083_JID_3536_neutraal
 -------------------------------
 Charge =  0 Multiplicity = 1

 SCF Done:  E(RB3LYP) =  -615.000213159     A.U. after    1 cycles

  Exact polarizability: 131.248   3.172 120.592  -0.586  -3.704  95.971
 Approx polarizability: 161.777   8.762 170.515  -3.277  -9.390 145.684

                      1                      2                      3
                      A                      A                      A
 Frequencies --     41.7021                44.5491                59.7159
 Red. masses --      3.6438                 5.3790                 3.1151
 Frc consts  --      0.0037                 0.0063                 0.0065
 IR Inten    --      1.3099                 1.9127                 2.3455

                      4                      5                      6
                      A                      A                      A
 Frequencies --     69.2446                80.7054               106.0587
 Red. masses --      3.6911                 2.9146                 2.0023
 Frc consts  --      0.0104                 0.0112                 0.0133
 IR Inten    --      0.6963                 6.3127                 2.1967

                      7                      8                      9
                      A                      A                      A
 Frequencies --    178.5294               199.2943               224.6480
 Red. masses --      4.1282                 2.7358                 2.4392
 Frc consts  --      0.0775                 0.0640                 0.0725
 IR Inten    --      4.1232                 5.0128                 0.2954

                     10                     11                     12
                      A                      A                      A
 Frequencies --    236.6219               249.5744               262.5572
 Red. masses --      1.2795                 2.1117                 1.5316
 Frc consts  --      0.0422                 0.0775                 0.0622
 IR Inten    --      2.9639                 0.8114                 1.5034

                     13                     14                     15
                      A                      A                      A
 Frequencies --    269.4067               294.2877               317.0638
 Red. masses --      1.6325                 1.4819                 2.7791
 Frc consts  --      0.0698                 0.0756                 0.1646
 IR Inten    --      1.8358                 5.8302                 0.5975

                     16                     17                     18
                      A                      A                      A
 Frequencies --    329.5192               366.7251               374.0654
 Red. masses --      2.3929                 1.5685                 1.7009
 Frc consts  --      0.1531                 0.1243                 0.1402
 IR Inten    --      0.8402                78.9276                44.1990

                     19                     20                     21
                      A                      A                      A
 Frequencies --    401.7564               424.8193               450.4489
 Red. masses --      2.0575                 2.1622                 2.8367
 Frc consts  --      0.1957                 0.2299                 0.3391
 IR Inten    --      2.9976                 2.6458                 6.1555

                     22                     23                     24
                      A                      A                      A
 Frequencies --    509.8080               526.7133               614.8578
 Red. masses --      2.9893                 2.4812                 3.6466
 Frc consts  --      0.4578                 0.4056                 0.8122
 IR Inten    --      6.5475                 5.7839                35.8194

                     25                     26                     27
                      A                      A                      A
 Frequencies --    696.6647               733.0365               825.8300
 Red. masses --      4.1462                 3.3278                 1.2964
 Frc consts  --      1.1856                 1.0536                 0.5209
 IR Inten    --     10.2583                 0.1946                89.1550

                     28                     29                     30
                      A                      A                      A
 Frequencies --    835.4136               854.9087               868.0917
 Red. masses --      1.1464                 2.3873                 2.4214
 Frc consts  --      0.4714                 1.0280                 1.0751
 IR Inten    --     93.7691                 6.1910                 6.0300

                     31                     32                     33
                      A                      A                      A
 Frequencies --    891.4703               927.5299               963.4322
 Red. masses --      2.5676                 1.9487                 1.4760
 Frc consts  --      1.2022                 0.9878                 0.8072
 IR Inten    --      9.3047                 3.2155                 1.5323

                     34                     35                     36
                      A                      A                      A
 Frequencies --    984.4822               993.7540              1009.6766
 Red. masses --      1.9027                 2.0523                 1.8276
 Frc consts  --      1.0865                 1.1941                 1.0978
 IR Inten    --     59.4776                 5.3340                17.1361

                     37                     38                     39
                      A                      A                      A
 Frequencies --   1018.8725              1039.3781              1066.6825
 Red. masses --      1.3738                 1.7595                 1.7188
 Frc consts  --      0.8403                 1.1199                 1.1523
 IR Inten    --      4.3038                 6.2156                16.1353

                     40                     41                     42
                      A                      A                      A
 Frequencies --   1098.4457              1139.1424              1153.6895
 Red. masses --      2.7840                 2.1994                 2.1546
 Frc consts  --      1.9791                 1.6815                 1.6896
 IR Inten    --     36.4820                30.7275                 7.0414

                     43                     44                     45
                      A                      A                      A
 Frequencies --   1169.6948              1189.3883              1191.9553
 Red. masses --      1.7703                 1.6461                 1.5514
 Frc consts  --      1.4271                 1.3720                 1.2986
 IR Inten    --     37.7164                 1.8344                 4.3627

                     46                     47                     48
                      A                      A                      A
 Frequencies --   1209.5761              1241.7232              1279.7306
 Red. masses --      2.3415                 2.1009                 1.3010
 Frc consts  --      2.0184                 1.9085                 1.2553
 IR Inten    --      6.2362                31.4884                64.1920

                     49                     50                     51
                      A                      A                      A
 Frequencies --   1286.5839              1287.9045              1347.3580
 Red. masses --      1.2993                 1.5509                 1.4285
 Frc consts  --      1.2672                 1.5157                 1.5279
 IR Inten    --      3.4841                12.4978                26.7548

                     52                     53                     54
                      A                      A                      A
 Frequencies --   1364.4041              1372.2098              1390.9442
 Red. masses --      1.3457                 1.3037                 1.3506
 Frc consts  --      1.4760                 1.4463                 1.5396
 IR Inten    --     20.2792                 5.8156                 8.6257

                     55                     56                     57
                      A                      A                      A
 Frequencies --   1416.2940              1428.2065              1440.1472
 Red. masses --      1.4109                 1.2548                 1.7441
 Frc consts  --      1.6675                 1.5080                 2.1313
 IR Inten    --      5.6437                 6.1927                52.6752

                     58                     59                     60
                      A                      A                      A
 Frequencies --   1457.6725              1472.1432              1480.9984
 Red. masses --      1.3233                 1.4913                 1.1810
 Frc consts  --      1.6566                 1.9042                 1.5262
 IR Inten    --     12.2955                23.2395                 6.8742

                     61                     62                     63
                      A                      A                      A
 Frequencies --   1493.5249              1504.4510              1508.5001
 Red. masses --      1.1060                 1.1163                 1.2157
 Frc consts  --      1.4535                 1.4886                 1.6300
 IR Inten    --      3.4262                 6.1683                 4.3296

                     64                     65                     66
                      A                      A                      A
 Frequencies --   1516.7366              1518.5421              1523.5063
 Red. masses --      1.0653                 1.0600                 1.0598
 Frc consts  --      1.4439                 1.4401                 1.4493
 IR Inten    --      5.9236                 8.2488                 3.0386

                     67                     68                     69
                      A                      A                      A
 Frequencies --   1531.4737              1538.7035              1541.8001
 Red. masses --      1.0862                 1.0889                 1.0756
 Frc consts  --      1.5010                 1.5190                 1.5065
 IR Inten    --     11.0751                 4.7870                 1.8923

                     70                     71                     72
                      A                      A                      A
 Frequencies --   1548.2040              1555.6749              1560.4285
 Red. masses --      1.0674                 1.4532                 1.0996
 Frc consts  --      1.5074                 2.0721                 1.5775
 IR Inten    --      6.7856                90.3377                 7.7745

                     73                     74                     75
                      A                      A                      A
 Frequencies --   1774.9778              2968.2389              3008.3276
 Red. masses --      7.1088                 1.0580                 1.0629
 Frc consts  --     13.1957                 5.4921                 5.6674
 IR Inten    --    425.1389               108.4285                57.9162

                     76                     77                     78
                      A                      A                      A
 Frequencies --   3015.7081              3017.7260              3032.1778
 Red. masses --      1.0616                 1.0713                 1.0584
 Frc consts  --      5.6885                 5.7481                 5.7332
 IR Inten    --     33.1929                54.0542                18.2646

                     79                     80                     81
                      A                      A                      A
 Frequencies --   3040.4301              3051.0279              3056.1738
 Red. masses --      1.0380                 1.0424                 1.1014
 Frc consts  --      5.6537                 5.7169                 6.0609
 IR Inten    --     35.8475                31.4172                49.3551

                     82                     83                     84
                      A                      A                      A
 Frequencies --   3057.1651              3073.7640              3074.7411
 Red. masses --      1.0993                 1.1011                 1.0765
 Frc consts  --      6.0537                 6.1292                 5.9963
 IR Inten    --     31.2375                38.5611                33.3827

                     85                     86                     87
                      A                      A                      A
 Frequencies --   3105.5669              3113.1516              3119.2754
 Red. masses --      1.1013                 1.1021                 1.0982
 Frc consts  --      6.2583                 6.2934                 6.2957
 IR Inten    --     37.0081                18.5431                42.1780

                     88                     89                     90
                      A                      A                      A
 Frequencies --   3122.0206              3138.6607              3155.7335
 Red. masses --      1.1022                 1.1011                 1.0902
 Frc consts  --      6.3300                 6.3910                 6.3966
 IR Inten    --     31.8963                14.6332                15.2303

                     91                     92                     93
                      A                      A                      A
 Frequencies --   3489.6326              3492.0040              3751.2592
 Red. masses --      1.0742                 1.0766                 1.0663
 Frc consts  --      7.7070                 7.7351                 8.8409
 IR Inten    --      0.7707               307.7849                26.7892

 - Thermochemistry -
 -------------------
 Temperature   298.150 Kelvin.  Pressure   1.00000 Atm.
 Atom     1 has atomic number  6 and mass  12.00000

 Molecular mass:   188.15248 amu.
 Principal axes and moments of inertia in atomic units:
                           1         2         3
     Eigenvalues --  1773.187673443.936884610.51113
           X            0.99988  -0.01472   0.00490
           Y            0.01474   0.99988  -0.00521
           Z           -0.00482   0.00528   0.99997
 This molecule is an asymmetric top.
 Rotational symmetry number  1.
 Warning -- assumption of classical behavior for rotation
           may cause significant error
 Rotational temperatures (Kelvin)      0.04885     0.02515     0.01879
 Rotational constants (GHZ):           1.01779     0.52403     0.39144
 Zero-point vibrational energy     782115.0 (Joules/Mol)
                                  186.92997 (Kcal/Mol)
 Warning -- explicit consideration of  24 degrees of freedom as
           vibrations may cause significant error
 Vibrational temperatures:     60.00    64.10    85.92    99.63   116.12
          (Kelvin)            152.59   256.86   286.74   323.22   340.45
                              359.08   377.76   387.62   423.41   456.18
                              474.10   527.64   538.20   578.04   611.22
                              648.10   733.50   757.82   884.64  1002.35
                             1054.68  1188.19  1201.97  1230.02  1248.99
                             1282.63  1334.51  1386.16  1416.45  1429.79
                             1452.70  1465.93  1495.43  1534.72  1580.42
                             1638.97  1659.90  1682.93  1711.26  1714.96
                             1740.31  1786.56  1841.25  1851.11  1853.01
                             1938.55  1963.07  1974.30  2001.26  2037.73
                             2054.87  2072.05  2097.27  2118.09  2130.83
                             2148.85  2164.57  2170.40  2182.25  2184.84
                             2191.99  2203.45  2213.85  2218.31  2227.52
                             2238.27  2245.11  2553.80  4270.63  4328.31
                             4338.93  4341.83  4362.63  4374.50  4389.75
                             4397.15  4398.58  4422.46  4423.87  4468.22
                             4479.13  4487.94  4491.89  4515.83  4540.40
                             5020.80  5024.21  5397.23

 Zero-point correction=                           0.297892 (Hartree/Particle)
 Thermal correction to Energy=                    0.313594
 Thermal correction to Enthalpy=                  0.314538
 Thermal correction to Gibbs Free Energy=         0.254668
 Sum of electronic and zero-point Energies=           -614.702321
 Sum of electronic and thermal Energies=              -614.686619
 Sum of electronic and thermal Enthalpies=            -614.685675
 Sum of electronic and thermal Free Energies=         -614.745545

                     E (Thermal)             CV                S
                      KCal/Mol        Cal/Mol-Kelvin    Cal/Mol-Kelvin
 Total                  196.783             57.545            126.007
 Electronic               0.000              0.000              0.000
 Translational            0.889              2.981             41.602
 Rotational               0.889              2.981             31.710
 Vibrational            195.006             51.583             52.695
 Vibration     1          0.594              1.981              5.177
 Vibration     2          0.595              1.980              5.046
 Vibration     3          0.597              1.974              4.467
 Vibration     4          0.598              1.969              4.175
 Vibration     5          0.600              1.962              3.874
 Vibration     6          0.605              1.944              3.340
 Vibration     7          0.629              1.869              2.344
 Vibration     8          0.637              1.841              2.140
 Vibration     9          0.649              1.804              1.921
 Vibration    10          0.656              1.785              1.828
 Vibration    11          0.662              1.763              1.734
 Vibration    12          0.670              1.741              1.645
 Vibration    13          0.674              1.729              1.600
 Vibration    14          0.689              1.684              1.449
 Vibration    15          0.704              1.641              1.325
 Vibration    16          0.712              1.617              1.262
 Vibration    17          0.740              1.541              1.093
 Vibration    18          0.745              1.525              1.063
 Vibration    19          0.767              1.466              0.956
 Vibration    20          0.787              1.416              0.876
 Vibration    21          0.809              1.360              0.794
 Vibration    22          0.865              1.228              0.634
 Vibration    23          0.882              1.191              0.595
 Vibration    24          0.974              1.000              0.425

 Optimization completed.
    -- Stationary point found.
 Normal termination of Gaussian 16 at Mon Dec 14 18:59:15 2020.

 ----------------------------------------------------------------------
 # B3LYP/6-311++G(d,p) empiricaldispersion=gd3bj scf=xqc pop=npa geom=c
 heck
 ----------------------------------------------------------------------

 ---------------------------------------
 CID_106148083_JID_3536_Energie_neutraal
 ---------------------------------------
 Structure from the checkpoint file:  "JID_3536.chk"
 Charge =  0 Multiplicity = 1

 SCF Done:  E(RB3LYP) =  -615.196665247     A.U. after   14 cycles
 Normal termination of Gaussian 16 at Mon Dec 14 19:03:45 2020.

 ----------------------------------------------------------------------
 # B3LYP/6-311++G(d,p) empiricaldispersion=gd3bj scf=xqc pop=npa geom=c
 heck
 ----------------------------------------------------------------------

 -------------------------------------
 CID_106148083_JID_3536_Energie_kation
 -------------------------------------
 Structure from the checkpoint file:  "JID_3536.chk"
 Charge =  1 Multiplicity = 2

 SCF Done:  E(UB3LYP) =  -614.892944744     A.U. after   27 cycles
 Normal termination of Gaussian 16 at Mon Dec 14 19:15:16 2020.
 Gaussian 16:  ES64L-G16RevA.03 25-Dec-2016

 ----------------------------------------------------------------------
 # B3LYP/6-311++G(d,p) empiricaldispersion=gd3bj scf=xqc pop=npa geom=c
 heck
 ----------------------------------------------------------------------

 ------------------------------------
 CID_106148083_JID_3536_Energie_anion
 ------------------------------------
 Structure from the checkpoint file:  "JID_3536.chk"
 Charge = -1 Multiplicity = 2

                         Standard orientation:
 ---------------------------------------------------------------------
 Center     Atomic      Atomic             Coordinates (Angstroms)
 Number     Number       Type             X           Y           Z
 ---------------------------------------------------------------------
      1          6           0        0.620506    1.243656    1.338119
      2          6           0        1.207968    1.160904   -0.077932
      3          6           0        1.270978    2.578258   -0.679136
      4          6           0        2.664839    0.623984   -0.048663
      5          6           0        2.974204   -0.698721    0.647094
      6          8           0        2.605421   -1.794199   -0.202375
      7          6           0        0.268532    0.340585   -1.001761
      8          7           0       -0.061942   -0.981241   -0.508418
      9          6           0       -1.277258   -1.506277   -0.202872
     10          8           0       -1.391098   -2.634290    0.274507
     11          6           0       -2.520482   -0.654454   -0.476962
     12          7           0       -2.603074    0.490417    0.431685
     13          6           0       -3.843623    1.240194    0.265588
     14          1           0        1.263510    1.847187    1.990564
     15          1           0        0.508290    0.252703    1.788168
     16          1           0       -0.375297    1.694799    1.306191
     17          1           0        1.919648    3.229498   -0.082146
     18          1           0        1.666113    2.559952   -1.702533
     19          1           0        0.274488    3.033198   -0.708881
     20          1           0        3.050495    0.556680   -1.075082
     21          1           0        3.273972    1.384928    0.458085
     22          1           0        4.054649   -0.743864    0.845521
     23          1           0        2.456493   -0.764937    1.613592
     24          1           0        2.767990   -2.619559    0.279951
     25          1           0       -0.657930    0.903468   -1.115732
     26          1           0        0.738937    0.256426   -1.992486
     27          1           0        0.731622   -1.600753   -0.352675
     28          1           0       -2.501642   -0.269561   -1.505507
     29          1           0       -3.379196   -1.338344   -0.393944
     30          1           0       -2.546325    0.142611    1.387485
     31          1           0       -4.757188    0.624641    0.352222
     32          1           0       -3.890378    2.038722    1.012867
     33          1           0       -3.851697    1.707115   -0.726436
 ---------------------------------------------------------------------

 SCF Done:  E(UB3LYP) =  -615.185350091     A.U. after   30 cycles

 The electronic state is 2-A.
 Alpha  occ. eigenvalues --  -19.03494 -18.98241 -14.22259 -14.21392 -10.16826
 Alpha  occ. eigenvalues --  -10.11925 -10.10591 -10.10304 -10.09704 -10.08990
 Alpha  occ. eigenvalues --  -10.07142 -10.06454 -10.05358  -0.93435  -0.93080
 Alpha  occ. eigenvalues --   -0.82353  -0.81165  -0.72558  -0.64216  -0.63217
 Alpha  occ. eigenvalues --   -0.59209  -0.58914  -0.55338  -0.52831  -0.48228
 Alpha  occ. eigenvalues --   -0.44820  -0.43013  -0.42101  -0.39000  -0.37298
 Alpha  occ. eigenvalues --   -0.36834  -0.35815  -0.35058  -0.34717  -0.34071
 Alpha  occ. eigenvalues --   -0.31363  -0.30890  -0.30080  -0.29444  -0.29106
 Alpha  occ. eigenvalues --   -0.28414  -0.27766  -0.27177  -0.26641  -0.25414
 Alpha  occ. eigenvalues --   -0.24000  -0.22898  -0.22383  -0.18925  -0.15331
 Alpha  occ. eigenvalues --   -0.15121  -0.14035   0.04109
 Alpha virt. eigenvalues --    0.05679   0.07011   0.07678   0.08561   0.08763
 Alpha virt. eigenvalues --    0.09040   0.09597   0.10283   0.10490   0.11261
 Alpha virt. eigenvalues --    0.11916   0.12029   0.12461   0.12862   0.13378

  Beta  occ. eigenvalues --  -19.03461 -18.98237 -14.22254 -14.21380 -10.16824
  Beta  occ. eigenvalues --  -10.11886 -10.10581 -10.10294 -10.09663 -10.08989
  Beta  occ. eigenvalues --  -10.07126 -10.06433 -10.05337  -0.93383  -0.93052
  Beta  occ. eigenvalues --   -0.82340  -0.81151  -0.72537  -0.64153  -0.63180
  Beta  occ. eigenvalues --   -0.59180  -0.58874  -0.55263  -0.52750  -0.48209
  Beta  occ. eigenvalues --   -0.44774  -0.42908  -0.42068  -0.38973  -0.37270
  Beta  occ. eigenvalues --   -0.36800  -0.35784  -0.35028  -0.34692  -0.34035
  Beta  occ. eigenvalues --   -0.31326  -0.30864  -0.30058  -0.29413  -0.29068
  Beta  occ. eigenvalues --   -0.28386  -0.27735  -0.27149  -0.26620  -0.25372
  Beta  occ. eigenvalues --   -0.23976  -0.22873  -0.22340  -0.18884  -0.15321
  Beta  occ. eigenvalues --   -0.15107  -0.14015
  Beta virt. eigenvalues --    0.06240   0.06998   0.07636   0.08168   0.09095
  Beta virt. eigenvalues --    0.09234   0.09396   0.09960   0.10554   0.10878
  Beta virt. eigenvalues --    0.11515   0.12195   0.12301   0.12647   0.13211

 Mulliken charges and spin densities:
               1          2
     1  C    0.082261  -0.884620
     2  C    0.103531   0.749565
     3  C    0.286664  -0.722815
     4  C   -1.592648   1.274884
     5  C    1.600513  -2.083062
     6  O   -0.339994   0.033068
     7  C    0.025420  -0.737463
     8  N   -0.261806   0.103614
     9  C   -0.301963   0.204239
    10  O   -0.330827   0.003757
    11  C   -0.013563  -0.373958
    12  N   -0.303018   0.191089
    13  C    0.888700  -1.246848
    14  H   -0.229293   0.400865
    15  H    0.144085   0.005056
    16  H    0.241385  -0.051928
    17  H   -0.160093   0.304277
    18  H   -0.020448   0.155640
    19  H   -0.128444   0.259193
    20  H    0.108552   0.075795
    21  H   -0.027042   0.171151
    22  H   -0.816119   0.990915
    23  H   -0.192631   0.338826
    24  H   -0.103347   0.367791
    25  H    0.356491  -0.137076
    26  H    0.041671   0.138757
    27  H    0.520747  -0.086434
    28  H    0.080422   0.094425
    29  H    0.101543   0.061962
    30  H    0.121646   0.122821
    31  H   -0.200640   0.316460
    32  H   -0.363758   0.501493
    33  H   -0.317995   0.458560
 Sum of Mulliken charges =  -1.00000   1.00000

 Dipole moment (field-independent basis, Debye):
    X=             -1.6423    Y=              0.7370    Z=             -2.5140  Tot=              3.0920
 Quadrupole moment (field-independent basis, Debye-Ang):
   XX=           -161.1683   YY=           -137.8318   ZZ=           -111.3035
   XY=              9.0231   XZ=             -4.9896   YZ=              0.9363

 Summary of Natural Population Analysis:

                                       Natural Population
                Natural  -----------------------------------------------
    Atom  No    Charge         Core      Valence    Rydberg      Total
 -----------------------------------------------------------------------
      C    1   -0.29267      0.99962     2.28489    0.00816     3.29267
      C    2   -0.04758      0.99957     2.03595    0.01206     3.04758
      C    3   -0.28309      0.99963     2.27597    0.00749     3.28309
      C    4   -0.20128      0.99958     2.18958    0.01212     3.20128
      C    5   -0.01040      0.99958     1.99867    0.01214     3.01040
      O    6   -0.37899      0.99989     3.37190    0.00720     4.37899
      C    7   -0.08661      0.99955     2.07615    0.01091     3.08661
      N    8   -0.32092      0.99965     2.81246    0.00882     3.82092
      C    9    0.33619      0.99966     1.64228    0.02187     2.66381
      O   10   -0.33041      0.99988     3.32471    0.00582     4.33041
      C   11   -0.12762      0.99960     2.11744    0.01059     3.12762
      N   12   -0.33779      0.99976     2.82725    0.01078     3.83779
      C   13   -0.17765      0.99966     2.16941    0.00858     3.17765
      H   14    0.09875      0.00000     0.40023    0.00102     0.40125
      H   15    0.10160      0.00000     0.39702    0.00138     0.39840
      H   16    0.10909      0.00000     0.38924    0.00168     0.39091
      H   17    0.10137      0.00000     0.39769    0.00094     0.39863
      H   18    0.09792      0.00000     0.40117    0.00091     0.40208
      H   19    0.10153      0.00000     0.39743    0.00104     0.39847
      H   20    0.10163      0.00000     0.39700    0.00137     0.39837
      H   21    0.10447      0.00000     0.39407    0.00147     0.39553
      H   22    0.08379      0.00000     0.41330    0.00291     0.41621
      H   23    0.08153      0.00000     0.41642    0.00205     0.41847
      H   24    0.23784      0.00000     0.25749    0.00467     0.26216
      H   25    0.10762      0.00000     0.39056    0.00182     0.39238
      H   26    0.09208      0.00000     0.40679    0.00112     0.40792
      H   27    0.21012      0.00000     0.28685    0.00304     0.28988
      H   28    0.09553      0.00000     0.40326    0.00122     0.40447
      H   29    0.09289      0.00000     0.40570    0.00141     0.40711
      H   30    0.17236      0.00000     0.32493    0.00271     0.32764
      H   31    0.07896      0.00000     0.41940    0.00164     0.42104
      H   32    0.09783      0.00000     0.40093    0.00124     0.40217
      H   33    0.09192      0.00000     0.40670    0.00138     0.40808
 =======================================================================
   * Total *   -0.00000     12.99563    38.83281    0.17156    52.00000

 Normal termination of Gaussian 16 at Mon Dec 14 19:27:11 2020.
