 Gaussian 16, Revision A.03,

 -----------------------------------------------------------
 # opt freq B3LYP/6-31G(d) empiricaldispersion=gd3bj scf=xqc
 -----------------------------------------------------------

 ------------------------------
 CID_64570248_JID_3474_neutraal
 ------------------------------
 Symbolic Z-matrix:
 Charge =  0 Multiplicity = 1

 SCF Done:  E(RB3LYP) =  -527.140247342     A.U. after   12 cycles
 SCF Done:  E(RB3LYP) =  -527.144531926     A.U. after   10 cycles
 SCF Done:  E(RB3LYP) =  -527.144387498     A.U. after   11 cycles
 SCF Done:  E(RB3LYP) =  -527.145220015     A.U. after   10 cycles
 SCF Done:  E(RB3LYP) =  -527.145401047     A.U. after   10 cycles
 SCF Done:  E(RB3LYP) =  -527.145447054     A.U. after   10 cycles
 SCF Done:  E(RB3LYP) =  -527.145513028     A.U. after    9 cycles
 SCF Done:  E(RB3LYP) =  -527.145537786     A.U. after    9 cycles
 SCF Done:  E(RB3LYP) =  -527.145553429     A.U. after    9 cycles
 SCF Done:  E(RB3LYP) =  -527.145564415     A.U. after    9 cycles
 SCF Done:  E(RB3LYP) =  -527.145617703     A.U. after    8 cycles
 SCF Done:  E(RB3LYP) =  -527.145617431     A.U. after    8 cycles
 SCF Done:  E(RB3LYP) =  -527.145617041     A.U. after    8 cycles
 SCF Done:  E(RB3LYP) =  -527.145617614     A.U. after    7 cycles
 SCF Done:  E(RB3LYP) =  -527.145617023     A.U. after    7 cycles
 SCF Done:  E(RB3LYP) =  -527.145616944     A.U. after    5 cycles
 Optimization completed on the basis of negligible forces.
    -- Stationary point found.
 Normal termination of Gaussian 16 at Wed Dec  9 23:35:12 2020.

 --------------------------------------------------------------------
 #N Geom=AllCheck Guess=TCheck SCRF=Check GenChk RB3LYP/6-31G(d) Freq
 --------------------------------------------------------------------

 Structure from the checkpoint file:  "JID_3474.chk"
 ------------------------------
 CID_64570248_JID_3474_neutraal
 ------------------------------
 Charge =  0 Multiplicity = 1

 SCF Done:  E(RB3LYP) =  -527.145616944     A.U. after    1 cycles

  Exact polarizability: 156.168   0.182 122.782  -2.351  -0.956 117.554
 Approx polarizability: 180.288  -2.562 177.622  -2.294  -0.415 175.665

                      1                      2                      3
                      A                      A                      A
 Frequencies --     18.9450                30.5683                50.7171
 Red. masses --      2.7863                 3.0812                 2.5192
 Frc consts  --      0.0006                 0.0017                 0.0038
 IR Inten    --      0.0282                 0.1682                 0.0367

                      4                      5                      6
                      A                      A                      A
 Frequencies --     65.4473                76.1896               132.1227
 Red. masses --      2.3839                 2.8680                 2.7661
 Frc consts  --      0.0060                 0.0098                 0.0284
 IR Inten    --      0.0790                 0.0451                 0.7073

                      7                      8                      9
                      A                      A                      A
 Frequencies --    177.3860               201.1725               215.3436
 Red. masses --      1.8353                 2.2017                 1.1985
 Frc consts  --      0.0340                 0.0525                 0.0327
 IR Inten    --      0.5737                 0.9252                 0.1147

                     10                     11                     12
                      A                      A                      A
 Frequencies --    226.7047               235.3749               281.7830
 Red. masses --      1.4700                 2.3128                 1.5413
 Frc consts  --      0.0445                 0.0755                 0.0721
 IR Inten    --      0.2010                 0.8954                 1.6666

                     13                     14                     15
                      A                      A                      A
 Frequencies --    288.8963               308.5727               369.4579
 Red. masses --      2.1513                 1.4658                 2.2686
 Frc consts  --      0.1058                 0.0822                 0.1825
 IR Inten    --      0.0285                 0.9107                 0.7181

                     16                     17                     18
                      A                      A                      A
 Frequencies --    381.3129               413.0162               419.3940
 Red. masses --      2.0545                 2.1721                 2.3287
 Frc consts  --      0.1760                 0.2183                 0.2413
 IR Inten    --      0.1140                 0.7616                 0.0615

                     19                     20                     21
                      A                      A                      A
 Frequencies --    432.0206               504.4679               533.5240
 Red. masses --      2.0909                 2.5890                 2.7253
 Frc consts  --      0.2299                 0.3882                 0.4571
 IR Inten    --      0.1070                 2.1709                 0.7342

                     22                     23                     24
                      A                      A                      A
 Frequencies --    566.1758               624.2437               748.7341
 Red. masses --      1.8752                 2.6963                 1.3236
 Frc consts  --      0.3542                 0.6190                 0.4372
 IR Inten    --      2.1625                 0.8609                86.1190

                     25                     26                     27
                      A                      A                      A
 Frequencies --    785.9321               796.3223               840.6969
 Red. masses --      2.0860                 1.4162                 2.5175
 Frc consts  --      0.7592                 0.5291                 1.0483
 IR Inten    --      0.5884                12.7224                 0.3962

                     28                     29                     30
                      A                      A                      A
 Frequencies --    865.6358               891.7380               912.3217
 Red. masses --      1.8278                 1.9218                 2.2196
 Frc consts  --      0.8070                 0.9004                 1.0885
 IR Inten    --      3.1760                 0.8336                 0.7412

                     31                     32                     33
                      A                      A                      A
 Frequencies --    917.7719               940.3947               946.4129
 Red. masses --      2.2724                 1.1780                 1.7522
 Frc consts  --      1.1278                 0.6138                 0.9247
 IR Inten    --      0.2336                 1.2634                 0.2331

                     34                     35                     36
                      A                      A                      A
 Frequencies --    949.1381               966.3063               980.8604
 Red. masses --      1.6350                 1.6019                 1.4513
 Frc consts  --      0.8678                 0.8813                 0.8227
 IR Inten    --      3.1319                 2.8199                 0.9799

                     37                     38                     39
                      A                      A                      A
 Frequencies --    985.4053              1013.0312              1024.4902
 Red. masses --      1.9683                 1.2629                 1.7195
 Frc consts  --      1.1261                 0.7636                 1.0633
 IR Inten    --      2.1788                 4.7202                 0.7242

                     40                     41                     42
                      A                      A                      A
 Frequencies --   1032.5233              1042.1298              1082.1252
 Red. masses --      1.9967                 1.6985                 2.1482
 Frc consts  --      1.2542                 1.0868                 1.4821
 IR Inten    --      3.6959                 0.3973                 3.8973

                     43                     44                     45
                      A                      A                      A
 Frequencies --   1092.9096              1115.2220              1146.8998
 Red. masses --      2.2292                 2.6825                 1.8405
 Frc consts  --      1.5688                 1.9657                 1.4264
 IR Inten    --      0.4189                 9.4814                 2.6768

                     46                     47                     48
                      A                      A                      A
 Frequencies --   1170.2621              1178.7403              1198.9059
 Red. masses --      2.0342                 3.1348                 1.7640
 Frc consts  --      1.6414                 2.5663                 1.4939
 IR Inten    --     21.9122                36.9371                 1.1377

                     49                     50                     51
                      A                      A                      A
 Frequencies --   1202.9658              1205.6044              1221.0877
 Red. masses --      1.7670                 1.4927                 1.8039
 Frc consts  --      1.5065                 1.2783                 1.5848
 IR Inten    --      2.2151                 0.9293                 2.3515

                     52                     53                     54
                      A                      A                      A
 Frequencies --   1249.3579              1265.8614              1285.6775
 Red. masses --      1.4105                 1.3212                 1.2931
 Frc consts  --      1.2972                 1.2473                 1.2593
 IR Inten    --      0.9843                 0.7238                 5.4165

                     55                     56                     57
                      A                      A                      A
 Frequencies --   1304.4127              1313.7059              1330.8888
 Red. masses --      1.2976                 1.2537                 1.2315
 Frc consts  --      1.3009                 1.2748                 1.2852
 IR Inten    --      4.6502                 0.9482                 0.4808

                     58                     59                     60
                      A                      A                      A
 Frequencies --   1343.1207              1344.6658              1351.8826
 Red. masses --      1.3316                 1.2392                 1.3247
 Frc consts  --      1.4154                 1.3201                 1.4264
 IR Inten    --      4.8669                 4.3747                 0.7685

                     61                     62                     63
                      A                      A                      A
 Frequencies --   1364.6302              1368.6634              1373.4641
 Red. masses --      1.3024                 1.3545                 1.3481
 Frc consts  --      1.4290                 1.4950                 1.4984
 IR Inten    --      0.5762                 1.0541                 2.5468

                     64                     65                     66
                      A                      A                      A
 Frequencies --   1392.3970              1402.0271              1410.1378
 Red. masses --      1.4465                 1.4282                 1.3261
 Frc consts  --      1.6523                 1.6541                 1.5537
 IR Inten    --      2.5757                 4.2310                18.9090

                     67                     68                     69
                      A                      A                      A
 Frequencies --   1427.3142              1430.5881              1439.4207
 Red. masses --      1.2799                 1.3343                 1.2359
 Frc consts  --      1.5363                 1.6089                 1.5087
 IR Inten    --      0.9128                 2.0530                 8.2874

                     70                     71                     72
                      A                      A                      A
 Frequencies --   1449.6127              1501.3330              1514.7756
 Red. masses --      1.2170                 1.0867                 1.1202
 Frc consts  --      1.5068                 1.4432                 1.5144
 IR Inten    --      2.8576                 2.4509                13.2689

                     73                     74                     75
                      A                      A                      A
 Frequencies --   1517.9004              1519.7281              1522.8242
 Red. masses --      1.0795                 1.0846                 1.0480
 Frc consts  --      1.4655                 1.4759                 1.4320
 IR Inten    --      0.2592                 4.1324                 2.6394

                     76                     77                     78
                      A                      A                      A
 Frequencies --   1523.7034              1525.5523              1531.3169
 Red. masses --      1.0940                 1.1061                 1.0619
 Frc consts  --      1.4964                 1.5167                 1.4671
 IR Inten    --      3.6395                 6.5327                 4.8437

                     79                     80                     81
                      A                      A                      A
 Frequencies --   1536.2206              1544.0865              1546.5622
 Red. masses --      1.0557                 1.0898                 1.0784
 Frc consts  --      1.4680                 1.5309                 1.5197
 IR Inten    --      9.7549                 7.4551                 5.1102

                     82                     83                     84
                      A                      A                      A
 Frequencies --   1551.4539              1555.7768              2957.1397
 Red. masses --      1.0618                 1.0695                 1.0714
 Frc consts  --      1.5058                 1.5252                 5.5202
 IR Inten    --      9.5247                 6.7227                46.7865

                     85                     86                     87
                      A                      A                      A
 Frequencies --   2999.3618              3005.0103              3017.7236
 Red. masses --      1.0819                 1.0824                 1.0622
 Frc consts  --      5.7346                 5.7587                 5.6992
 IR Inten    --     14.4222                13.2554                13.1008

                     88                     89                     90
                      A                      A                      A
 Frequencies --   3027.2555              3028.8618              3036.5849
 Red. masses --      1.0682                 1.0795                 1.0386
 Frc consts  --      5.7675                 5.8351                 5.6427
 IR Inten    --     69.0560                12.3083                21.2168

                     91                     92                     93
                      A                      A                      A
 Frequencies --   3041.4239              3042.3311              3044.8949
 Red. masses --      1.0666                 1.0465                 1.0416
 Frc consts  --      5.8131                 5.7071                 5.6900
 IR Inten    --     38.1210                30.4813                38.3698

                     94                     95                     96
                      A                      A                      A
 Frequencies --   3049.9883              3050.4747              3060.4139
 Red. masses --      1.0659                 1.0807                 1.1037
 Frc consts  --      5.8421                 5.9248                 6.0907
 IR Inten    --     44.8937                15.5144                25.1157

                     97                     98                     99
                      A                      A                      A
 Frequencies --   3064.5288              3090.8986              3092.9359
 Red. masses --      1.0633                 1.0982                 1.0951
 Frc consts  --      5.8837                 6.1814                 6.1722
 IR Inten    --     55.6203                30.3444                42.7377

                    100                    101                    102
                      A                      A                      A
 Frequencies --   3098.3788              3098.4639              3105.2935
 Red. masses --      1.1005                 1.1012                 1.0991
 Frc consts  --      6.2246                 6.2289                 6.2444
 IR Inten    --      6.5743                27.2729                 5.3981

                    103                    104                    105
                      A                      A                      A
 Frequencies --   3106.3767              3111.5862              3116.0401
 Red. masses --      1.0990                 1.1050                 1.1011
 Frc consts  --      6.2484                 6.3036                 6.2994
 IR Inten    --     95.9924                86.6816                36.3944

                    106                    107                    108
                      A                      A                      A
 Frequencies --   3123.3754              3137.2985              3525.3983
 Red. masses --      1.1011                 1.0974                 1.0729
 Frc consts  --      6.3289                 6.3638                 7.8565
 IR Inten    --     48.6236                41.2804                 0.7304

 - Thermochemistry -
 -------------------
 Temperature   298.150 Kelvin.  Pressure   1.00000 Atm.
 Atom     1 has atomic number  6 and mass  12.00000

 Molecular mass:   183.19870 amu.
 Principal axes and moments of inertia in atomic units:
                           1         2         3
     Eigenvalues --  1151.364335908.048946030.63312
           X            1.00000  -0.00109  -0.00178
           Y            0.00102   0.99928  -0.03783
           Z            0.00182   0.03783   0.99928
 This molecule is an asymmetric top.
 Rotational symmetry number  1.
 Warning -- assumption of classical behavior for rotation
           may cause significant error
 Rotational temperatures (Kelvin)      0.07523     0.01466     0.01436
 Rotational constants (GHZ):           1.56748     0.30547     0.29926
 Zero-point vibrational energy     942528.8 (Joules/Mol)
                                  225.26978 (Kcal/Mol)
 Warning -- explicit consideration of  22 degrees of freedom as
           vibrations may cause significant error
 Vibrational temperatures:     27.26    43.98    72.97    94.16   109.62
          (Kelvin)            190.10   255.22   289.44   309.83   326.18
                              338.65   405.42   415.66   443.97   531.57
                              548.62   594.24   603.41   621.58   725.82
                              767.62   814.60   898.15  1077.26  1130.78
                             1145.73  1209.58  1245.46  1283.01  1312.63
                             1320.47  1353.02  1361.68  1365.60  1390.30
                             1411.24  1417.78  1457.53  1474.01  1485.57
                             1499.39  1556.94  1572.45  1604.56  1650.13
                             1683.75  1695.94  1724.96  1730.80  1734.60
                             1756.87  1797.55  1821.29  1849.80  1876.76
                             1890.13  1914.85  1932.45  1934.67  1945.06
                             1963.40  1969.20  1976.11  2003.35  2017.20
                             2028.87  2053.59  2058.30  2071.01  2085.67
                             2160.08  2179.42  2183.92  2186.55  2191.00
                             2192.27  2194.93  2203.22  2210.28  2221.60
                             2225.16  2232.20  2238.42  4254.66  4315.41
                             4323.54  4341.83  4355.55  4357.86  4368.97
                             4375.93  4377.24  4380.92  4388.25  4388.95
                             4403.25  4409.17  4447.11  4450.04  4457.88
                             4458.00  4467.82  4469.38  4476.88  4483.29
                             4493.84  4513.87  5072.26

 Zero-point correction=                           0.358990 (Hartree/Particle)
 Thermal correction to Energy=                    0.374343
 Thermal correction to Enthalpy=                  0.375287
 Thermal correction to Gibbs Free Energy=         0.314899
 Sum of electronic and zero-point Energies=           -526.786627
 Sum of electronic and thermal Energies=              -526.771274
 Sum of electronic and thermal Enthalpies=            -526.770330
 Sum of electronic and thermal Free Energies=         -526.830717

                     E (Thermal)             CV                S
                      KCal/Mol        Cal/Mol-Kelvin    Cal/Mol-Kelvin
 Total                  234.904             57.908            127.097
 Electronic               0.000              0.000              0.000
 Translational            0.889              2.981             41.523
 Rotational               0.889              2.981             32.084
 Vibrational            233.126             51.947             53.490
 Vibration     1          0.593              1.986              6.742
 Vibration     2          0.594              1.984              5.792
 Vibration     3          0.595              1.977              4.789
 Vibration     4          0.597              1.971              4.286
 Vibration     5          0.599              1.965              3.987
 Vibration     6          0.612              1.921              2.915
 Vibration     7          0.628              1.870              2.356
 Vibration     8          0.638              1.838              2.122
 Vibration     9          0.645              1.818              1.998
 Vibration    10          0.650              1.800              1.905
 Vibration    11          0.655              1.787              1.838
 Vibration    12          0.681              1.707              1.523
 Vibration    13          0.685              1.694              1.480
 Vibration    14          0.698              1.657              1.370
 Vibration    15          0.742              1.535              1.082
 Vibration    16          0.751              1.510              1.034
 Vibration    17          0.777              1.442              0.916
 Vibration    18          0.782              1.428              0.894
 Vibration    19          0.793              1.400              0.852
 Vibration    20          0.860              1.240              0.647
 Vibration    21          0.889              1.176              0.579
 Vibration    22          0.922              1.104              0.512

 Optimization completed.
    -- Stationary point found.
 Normal termination of Gaussian 16 at Wed Dec  9 23:46:43 2020.

 ----------------------------------------------------------------------
 # B3LYP/6-311++G(d,p) empiricaldispersion=gd3bj scf=xqc pop=npa geom=c
 heck
 ----------------------------------------------------------------------

 --------------------------------------
 CID_64570248_JID_3474_Energie_neutraal
 --------------------------------------
 Structure from the checkpoint file:  "JID_3474.chk"
 Charge =  0 Multiplicity = 1

 SCF Done:  E(RB3LYP) =  -527.294135491     A.U. after   12 cycles
 Normal termination of Gaussian 16 at Wed Dec  9 23:52:09 2020.

 ----------------------------------------------------------------------
 # B3LYP/6-311++G(d,p) empiricaldispersion=gd3bj scf=xqc pop=npa geom=c
 heck
 ----------------------------------------------------------------------

 ------------------------------------
 CID_64570248_JID_3474_Energie_kation
 ------------------------------------
 Structure from the checkpoint file:  "JID_3474.chk"
 Charge =  1 Multiplicity = 2

 SCF Done:  E(UB3LYP) =  -527.000040835     A.U. after   16 cycles
 Normal termination of Gaussian 16 at Thu Dec 10 00:02:14 2020.
 Gaussian 16:  ES64L-G16RevA.03 25-Dec-2016

 ----------------------------------------------------------------------
 # B3LYP/6-311++G(d,p) empiricaldispersion=gd3bj scf=xqc pop=npa geom=c
 heck
 ----------------------------------------------------------------------

 -----------------------------------
 CID_64570248_JID_3474_Energie_anion
 -----------------------------------
 Structure from the checkpoint file:  "JID_3474.chk"
 Charge = -1 Multiplicity = 2

                         Standard orientation:
 ---------------------------------------------------------------------
 Center     Atomic      Atomic             Coordinates (Angstroms)
 Number     Number       Type             X           Y           Z
 ---------------------------------------------------------------------
      1          6           0        4.449073   -0.793733   -0.411448
      2          6           0        2.937798   -0.575878   -0.577589
      3          6           0        2.203563   -1.888071   -0.263308
      4          6           0        2.426906    0.624752    0.261394
      5          6           0        3.069174    1.942804   -0.197758
      6          6           0        0.888557    0.765283    0.229898
      7          7           0        0.250303    0.090592    1.358017
      8          6           0       -1.195031    0.252508    1.473320
      9          6           0       -2.088952   -0.341251    0.366716
     10          6           0       -3.562813   -0.459940    0.810052
     11          6           0       -4.344834   -0.530108   -0.505647
     12          6           0       -3.647361    0.529346   -1.376514
     13          6           0       -2.150661    0.463975   -0.967627
     14          1           0        4.698124   -0.983628    0.640705
     15          1           0        5.035211    0.067646   -0.743868
     16          1           0        4.781984   -1.661616   -0.992338
     17          1           0        2.742973   -0.335373   -1.634776
     18          1           0        2.334591   -2.168852    0.790251
     19          1           0        1.130631   -1.823537   -0.472164
     20          1           0        2.603623   -2.707726   -0.870931
     21          1           0        2.704245    0.452702    1.311400
     22          1           0        2.788912    2.171687   -1.234602
     23          1           0        2.730621    2.774577    0.429611
     24          1           0        4.161237    1.915768   -0.146948
     25          1           0        0.617060    1.825668    0.311923
     26          1           0        0.522851    0.436296   -0.759685
     27          1           0        0.477236   -0.900059    1.345533
     28          1           0       -1.487056   -0.200659    2.430405
     29          1           0       -1.408300    1.327878    1.562207
     30          1           0       -1.720937   -1.355263    0.149775
     31          1           0       -3.734026   -1.315807    1.472418
     32          1           0       -3.853753    0.444708    1.364514
     33          1           0       -5.418533   -0.348746   -0.386593
     34          1           0       -4.226736   -1.526344   -0.952802
     35          1           0       -4.056590    1.519222   -1.139894
     36          1           0       -3.801058    0.369474   -2.448738
     37          1           0       -1.738608    1.470429   -0.837662
     38          1           0       -1.548334   -0.020723   -1.742806
 ---------------------------------------------------------------------

 SCF Done:  E(UB3LYP) =  -527.277897695     A.U. after   29 cycles

 The electronic state is 2-A.
 Alpha  occ. eigenvalues --  -14.19546 -10.09142 -10.08884 -10.07681 -10.07414
 Alpha  occ. eigenvalues --  -10.06826 -10.06423 -10.06416 -10.06364 -10.06331
 Alpha  occ. eigenvalues --  -10.06133 -10.06130 -10.06104  -0.80697  -0.73660
 Alpha  occ. eigenvalues --   -0.71899  -0.65511  -0.63091  -0.60843  -0.59203
 Alpha  occ. eigenvalues --   -0.57327  -0.53004  -0.50883  -0.47348  -0.46299
 Alpha  occ. eigenvalues --   -0.45274  -0.39846  -0.38365  -0.37428  -0.36137
 Alpha  occ. eigenvalues --   -0.35316  -0.34889  -0.32033  -0.31945  -0.31663
 Alpha  occ. eigenvalues --   -0.30963  -0.30176  -0.28951  -0.27577  -0.27185
 Alpha  occ. eigenvalues --   -0.26300  -0.25550  -0.24824  -0.24069  -0.23770
 Alpha  occ. eigenvalues --   -0.22933  -0.22767  -0.22237  -0.21797  -0.21307
 Alpha  occ. eigenvalues --   -0.21140  -0.12351   0.04459
 Alpha virt. eigenvalues --    0.06108   0.06857   0.07476   0.07890   0.08169
 Alpha virt. eigenvalues --    0.08596   0.09459   0.09974   0.10127   0.10486
 Alpha virt. eigenvalues --    0.10676   0.11063   0.11649   0.12323   0.12626

  Beta  occ. eigenvalues --  -14.19540 -10.09135 -10.08877 -10.07669 -10.07411
  Beta  occ. eigenvalues --  -10.06814 -10.06406 -10.06398 -10.06342 -10.06311
  Beta  occ. eigenvalues --  -10.06116 -10.06107 -10.06078  -0.80683  -0.73632
  Beta  occ. eigenvalues --   -0.71876  -0.65483  -0.63059  -0.60801  -0.59155
  Beta  occ. eigenvalues --   -0.57285  -0.52963  -0.50842  -0.47278  -0.46255
  Beta  occ. eigenvalues --   -0.45229  -0.39811  -0.38334  -0.37383  -0.36114
  Beta  occ. eigenvalues --   -0.35280  -0.34851  -0.32007  -0.31914  -0.31634
  Beta  occ. eigenvalues --   -0.30936  -0.30150  -0.28924  -0.27548  -0.27158
  Beta  occ. eigenvalues --   -0.26272  -0.25514  -0.24799  -0.24028  -0.23731
  Beta  occ. eigenvalues --   -0.22896  -0.22724  -0.22204  -0.21770  -0.21279
  Beta  occ. eigenvalues --   -0.21114  -0.12341
  Beta virt. eigenvalues --    0.06430   0.06899   0.07326   0.07954   0.08358
  Beta virt. eigenvalues --    0.08564   0.08964   0.09832   0.10269   0.10435
  Beta virt. eigenvalues --    0.10800   0.10990   0.11401   0.11777   0.12631

 Mulliken charges and spin densities:
               1          2
     1  C    0.914028  -1.622822
     2  C   -1.243412   1.788925
     3  C    0.579240  -1.262019
     4  C    0.137472   0.073400
     5  C    0.304116  -1.170663
     6  C   -1.043798   0.271145
     7  N    0.113612   0.029634
     8  C    0.547023  -1.411428
     9  C   -0.966618   1.824205
    10  C    0.889528  -1.499898
    11  C   -0.631426   0.422988
    12  C    1.471980  -2.207874
    13  C   -0.557938   0.451703
    14  H   -0.056897   0.193242
    15  H   -0.154147   0.279260
    16  H   -0.200623   0.337673
    17  H   -0.152212   0.326688
    18  H   -0.040393   0.183244
    19  H   -0.478157   0.628379
    20  H   -0.226106   0.376171
    21  H    0.137085   0.063250
    22  H   -0.066557   0.226192
    23  H    0.031966   0.088585
    24  H   -0.111181   0.241605
    25  H    0.108390   0.088619
    26  H    0.240363  -0.120239
    27  H    0.176856   0.064774
    28  H    0.048392   0.117299
    29  H    0.033827   0.126937
    30  H    0.200013  -0.041356
    31  H   -0.318674   0.469859
    32  H    0.056749   0.073103
    33  H   -0.335261   0.496792
    34  H   -0.050893   0.183600
    35  H    0.041231   0.086814
    36  H   -0.244675   0.402020
    37  H   -0.071422   0.202635
    38  H   -0.081481   0.217561
 Sum of Mulliken charges =  -1.00000   1.00000

 Dipole moment (field-independent basis, Debye):
    X=              0.3443    Y=              2.6273    Z=              2.6687  Tot=              3.7607
 Quadrupole moment (field-independent basis, Debye-Ang):
   XX=           -185.1633   YY=           -125.5434   ZZ=           -126.0933
   XY=             -1.1886   XZ=              2.2235   YZ=             -1.7216

 Summary of Natural Population Analysis:

                                       Natural Population
                Natural  -----------------------------------------------
    Atom  No    Charge         Core      Valence    Rydberg      Total
 -----------------------------------------------------------------------
      C    1   -0.28451      0.99965     2.27867    0.00618     3.28451
      C    2   -0.11019      0.99960     2.10037    0.01023     3.11019
      C    3   -0.28878      0.99965     2.28247    0.00667     3.28878
      C    4   -0.11460      0.99958     2.10451    0.01050     3.11460
      C    5   -0.28314      0.99965     2.27798    0.00552     3.28314
      C    6   -0.08649      0.99959     2.07667    0.01023     3.08649
      N    7   -0.33964      0.99974     2.82944    0.01046     3.83964
      C    8   -0.07788      0.99960     2.06775    0.01053     3.07788
      C    9   -0.12122      0.99959     2.11117    0.01046     3.12122
      C   10   -0.18869      0.99962     2.17982    0.00925     3.18869
      C   11   -0.19049      0.99964     2.18326    0.00759     3.19049
      C   12   -0.19110      0.99964     2.18356    0.00790     3.19110
      C   13   -0.19395      0.99963     2.18567    0.00865     3.19395
      H   14    0.09487      0.00000     0.40411    0.00102     0.40513
      H   15    0.09946      0.00000     0.39950    0.00104     0.40054
      H   16    0.09980      0.00000     0.39923    0.00097     0.40020
      H   17    0.09263      0.00000     0.40553    0.00183     0.40737
      H   18    0.09436      0.00000     0.40462    0.00102     0.40564
      H   19    0.10075      0.00000     0.39774    0.00151     0.39925
      H   20    0.10220      0.00000     0.39685    0.00095     0.39780
      H   21    0.09604      0.00000     0.40193    0.00203     0.40396
      H   22    0.09723      0.00000     0.40180    0.00097     0.40277
      H   23    0.09740      0.00000     0.40185    0.00075     0.40260
      H   24    0.09941      0.00000     0.39976    0.00083     0.40059
      H   25    0.09038      0.00000     0.40815    0.00147     0.40962
      H   26    0.08298      0.00000     0.41463    0.00239     0.41702
      H   27    0.17302      0.00000     0.32344    0.00354     0.32698
      H   28    0.09268      0.00000     0.40624    0.00108     0.40732
      H   29    0.08724      0.00000     0.41150    0.00127     0.41276
      H   30    0.09492      0.00000     0.40317    0.00191     0.40508
      H   31    0.10119      0.00000     0.39769    0.00112     0.39881
      H   32    0.09127      0.00000     0.40754    0.00119     0.40873
      H   33    0.09793      0.00000     0.40093    0.00114     0.40207
      H   34    0.09500      0.00000     0.40339    0.00162     0.40500
      H   35    0.09190      0.00000     0.40682    0.00129     0.40810
      H   36    0.09998      0.00000     0.39889    0.00113     0.40002
      H   37    0.09642      0.00000     0.40234    0.00124     0.40358
      H   38    0.10164      0.00000     0.39696    0.00140     0.39836
 =======================================================================
   * Total *    0.00000     12.99519    38.85595    0.14886    52.00000

 Normal termination of Gaussian 16 at Thu Dec 10 00:20:13 2020.
