 Gaussian 16, Revision A.03,

 -----------------------------------------------------------
 # opt freq B3LYP/6-31G(d) empiricaldispersion=gd3bj scf=xqc
 -----------------------------------------------------------

 ------------------------------
 CID_80895608_JID_8356_neutraal
 ------------------------------
 Symbolic Z-matrix:
 Charge =  0 Multiplicity = 1

 SCF Done:  E(RB3LYP) =  -820.137839361     A.U. after   14 cycles
 SCF Done:  E(RB3LYP) =  -820.141894790     A.U. after   13 cycles
 SCF Done:  E(RB3LYP) =  -820.146576518     A.U. after   13 cycles
 SCF Done:  E(RB3LYP) =  -820.149045477     A.U. after   12 cycles
 SCF Done:  E(RB3LYP) =  -820.149659604     A.U. after   12 cycles
 SCF Done:  E(RB3LYP) =  -820.150369020     A.U. after   11 cycles
 SCF Done:  E(RB3LYP) =  -820.150196367     A.U. after   12 cycles
 SCF Done:  E(RB3LYP) =  -820.150642356     A.U. after   11 cycles
 SCF Done:  E(RB3LYP) =  -820.150694721     A.U. after   11 cycles
 SCF Done:  E(RB3LYP) =  -820.150726562     A.U. after   10 cycles
 SCF Done:  E(RB3LYP) =  -820.150736781     A.U. after    8 cycles
 SCF Done:  E(RB3LYP) =  -820.150737245     A.U. after    7 cycles
 SCF Done:  E(RB3LYP) =  -820.150737828     A.U. after    8 cycles
 SCF Done:  E(RB3LYP) =  -820.150737950     A.U. after    6 cycles
 SCF Done:  E(RB3LYP) =  -820.150738126     A.U. after    6 cycles
 Optimization completed.
    -- Stationary point found.
 Normal termination of Gaussian 16 at Fri Dec 11 20:15:18 2020.

 --------------------------------------------------------------------
 #N Geom=AllCheck Guess=TCheck SCRF=Check GenChk RB3LYP/6-31G(d) Freq
 --------------------------------------------------------------------

 Structure from the checkpoint file:  "JID_8356.chk"
 ------------------------------
 CID_80895608_JID_8356_neutraal
 ------------------------------
 Charge =  0 Multiplicity = 1

 SCF Done:  E(RB3LYP) =  -820.150738126     A.U. after    1 cycles

  Exact polarizability: 198.466  -0.948 136.052  -3.775   9.290 159.541
 Approx polarizability: 293.114  -1.493 189.871  -1.913  25.435 244.068

                      1                      2                      3
                      A                      A                      A
 Frequencies --     34.3355                47.3987                57.0767
 Red. masses --      4.3546                 3.8818                 3.8007
 Frc consts  --      0.0030                 0.0051                 0.0073
 IR Inten    --      2.0176                 1.0806                 0.3625

                      4                      5                      6
                      A                      A                      A
 Frequencies --     78.1597               100.4768               102.8143
 Red. masses --      4.1802                 2.2409                 3.3747
 Frc consts  --      0.0150                 0.0133                 0.0210
 IR Inten    --      1.0502                 1.1277                 0.7534

                      7                      8                      9
                      A                      A                      A
 Frequencies --    114.6410               123.8983               148.7785
 Red. masses --      2.2314                 4.0909                 2.9323
 Frc consts  --      0.0173                 0.0370                 0.0382
 IR Inten    --      0.6848                 0.0369                 3.2317

                     10                     11                     12
                      A                      A                      A
 Frequencies --    162.9785               183.5309               192.3096
 Red. masses --      1.1986                 1.8325                 2.3748
 Frc consts  --      0.0188                 0.0364                 0.0517
 IR Inten    --     11.9406                 3.5160                 0.7920

                     13                     14                     15
                      A                      A                      A
 Frequencies --    203.9415               213.0489               227.0194
 Red. masses --      1.9458                 1.2535                 2.9198
 Frc consts  --      0.0477                 0.0335                 0.0887
 IR Inten    --      3.6871                 0.0891                 1.5846

                     16                     17                     18
                      A                      A                      A
 Frequencies --    245.3621               247.7857               268.9419
 Red. masses --      3.4372                 2.6579                 1.5066
 Frc consts  --      0.1219                 0.0961                 0.0642
 IR Inten    --      7.0633                13.3465                 2.9842

                     19                     20                     21
                      A                      A                      A
 Frequencies --    288.2831               289.3552               320.2290
 Red. masses --      3.5949                 2.5057                 2.6304
 Frc consts  --      0.1760                 0.1236                 0.1589
 IR Inten    --      0.6165                 1.6166                 2.6104

                     22                     23                     24
                      A                      A                      A
 Frequencies --    345.9916               414.5436               433.8944
 Red. masses --      2.3609                 3.0088                 3.2200
 Frc consts  --      0.1665                 0.3046                 0.3572
 IR Inten    --      8.7406                16.3547                 5.2930

                     25                     26                     27
                      A                      A                      A
 Frequencies --    454.8740               473.9898               489.4312
 Red. masses --      2.5625                 2.2419                 1.3749
 Frc consts  --      0.3124                 0.2968                 0.1941
 IR Inten    --      2.0762                11.0479               175.2393

                     28                     29                     30
                      A                      A                      A
 Frequencies --    540.6623               562.3548               577.5891
 Red. masses --      3.3814                 2.6018                 3.3117
 Frc consts  --      0.5824                 0.4848                 0.6509
 IR Inten    --     17.6538                 8.3093                 4.1184

                     31                     32                     33
                      A                      A                      A
 Frequencies --    583.8582               615.3146               627.9404
 Red. masses --      3.1489                 2.0390                 1.8238
 Frc consts  --      0.6324                 0.4548                 0.4237
 IR Inten    --      4.7476               123.2005                90.3733

                     34                     35                     36
                      A                      A                      A
 Frequencies --    721.5978               748.3607               777.5743
 Red. masses --      4.5184                 2.2170                 2.3295
 Frc consts  --      1.3862                 0.7315                 0.8298
 IR Inten    --      4.3039                 3.4028                13.7919

                     37                     38                     39
                      A                      A                      A
 Frequencies --    823.1488               844.0753               865.3970
 Red. masses --      4.1902                 3.6757                 2.6459
 Frc consts  --      1.6728                 1.5430                 1.1675
 IR Inten    --      9.9262                 7.3510                11.9848

                     40                     41                     42
                      A                      A                      A
 Frequencies --    884.9675               889.5497               911.7825
 Red. masses --      2.3580                 2.4863                 2.7012
 Frc consts  --      1.0881                 1.1591                 1.3231
 IR Inten    --      7.5154                 2.5576                 5.2506

                     43                     44                     45
                      A                      A                      A
 Frequencies --    925.3466               946.3034               949.0626
 Red. masses --      1.7453                 2.1467                 1.2888
 Frc consts  --      0.8805                 1.1326                 0.6839
 IR Inten    --     20.9254                35.0084                 2.6821

                     46                     47                     48
                      A                      A                      A
 Frequencies --    978.7037               984.8637              1007.0989
 Red. masses --      1.3820                 1.4803                 2.1042
 Frc consts  --      0.7800                 0.8460                 1.2574
 IR Inten    --      0.2405                 5.0201                76.8399

                     49                     50                     51
                      A                      A                      A
 Frequencies --   1049.3519              1074.1402              1087.1928
 Red. masses --      2.0114                 2.3272                 2.4562
 Frc consts  --      1.3049                 1.5820                 1.7105
 IR Inten    --      8.4211                13.6884                67.7940

                     52                     53                     54
                      A                      A                      A
 Frequencies --   1101.4800              1105.1869              1135.3013
 Red. masses --      3.1586                 2.0832                 2.5052
 Frc consts  --      2.2579                 1.4992                 1.9025
 IR Inten    --     34.7898                22.6081                 0.3043

                     55                     56                     57
                      A                      A                      A
 Frequencies --   1137.8074              1155.8698              1172.9747
 Red. masses --      2.0809                 2.2270                 2.2286
 Frc consts  --      1.5872                 1.7531                 1.8066
 IR Inten    --     16.0939                 5.3121                 5.2273

                     58                     59                     60
                      A                      A                      A
 Frequencies --   1195.1573              1217.6483              1246.5551
 Red. masses --      2.5850                 2.1180                 1.7692
 Frc consts  --      2.1755                 1.8502                 1.6198
 IR Inten    --     26.2619                21.4533                66.8903

                     61                     62                     63
                      A                      A                      A
 Frequencies --   1260.7787              1276.2717              1310.0299
 Red. masses --      1.6872                 2.7491                 1.3323
 Frc consts  --      1.5801                 2.6383                 1.3472
 IR Inten    --     34.2509                 5.4341                 9.0808

                     64                     65                     66
                      A                      A                      A
 Frequencies --   1317.0823              1337.2715              1362.7649
 Red. masses --      1.3739                 1.8948                 1.7453
 Frc consts  --      1.4042                 1.9964                 1.9097
 IR Inten    --      3.7592                 6.8786                26.5348

                     67                     68                     69
                      A                      A                      A
 Frequencies --   1373.0732              1379.4638              1387.3730
 Red. masses --      1.4245                 1.3523                 1.7757
 Frc consts  --      1.5823                 1.5162                 2.0138
 IR Inten    --     23.9284                59.3392                 4.8888

                     70                     71                     72
                      A                      A                      A
 Frequencies --   1397.9019              1405.5382              1406.3193
 Red. masses --      1.4085                 1.3532                 1.3509
 Frc consts  --      1.6217                 1.5751                 1.5741
 IR Inten    --     24.2810                 0.3643                37.3763

                     73                     74                     75
                      A                      A                      A
 Frequencies --   1418.1865              1423.2736              1432.4466
 Red. masses --      1.4500                 1.4760                 1.2230
 Frc consts  --      1.7183                 1.7616                 1.4785
 IR Inten    --      6.0903                12.3933                 3.2432

                     76                     77                     78
                      A                      A                      A
 Frequencies --   1441.5795              1447.4663              1456.9246
 Red. masses --      1.3563                 1.2966                 1.2334
 Frc consts  --      1.6606                 1.6005                 1.5425
 IR Inten    --      3.8574                 8.0089                26.2240

                     79                     80                     81
                      A                      A                      A
 Frequencies --   1457.6476              1476.1489              1498.4969
 Red. masses --      1.2806                 1.8843                 1.1051
 Frc consts  --      1.6032                 2.4191                 1.4620
 IR Inten    --      2.2897               126.1694                 7.3467

                     82                     83                     84
                      A                      A                      A
 Frequencies --   1508.6871              1515.5973              1517.7734
 Red. masses --      1.0938                 1.4345                 1.1213
 Frc consts  --      1.4668                 1.9415                 1.5218
 IR Inten    --      4.7636                52.6305                18.5236

                     85                     86                     87
                      A                      A                      A
 Frequencies --   1522.2075              1527.2885              1529.0533
 Red. masses --      1.1034                 1.2994                 1.1170
 Frc consts  --      1.5064                 1.7859                 1.5386
 IR Inten    --     15.1141                36.6439                 0.1243

                     88                     89                     90
                      A                      A                      A
 Frequencies --   1534.8929              1536.0207              1540.8128
 Red. masses --      1.1691                 1.0928                 1.0591
 Frc consts  --      1.6228                 1.5191                 1.4815
 IR Inten    --      3.8074                 5.0958                 6.8375

                     91                     92                     93
                      A                      A                      A
 Frequencies --   1542.1994              1599.4055              1625.4360
 Red. masses --      1.0861                 5.1468                 5.1581
 Frc consts  --      1.5219                 7.7572                 8.0293
 IR Inten    --      6.2998                71.2210               509.8848

                     94                     95                     96
                      A                      A                      A
 Frequencies --   1748.1014              3000.3509              3031.9941
 Red. masses --      1.0620                 1.0688                 1.0613
 Frc consts  --      1.9122                 5.6688                 5.7482
 IR Inten    --     24.4070                58.0221                34.6376

                     97                     98                     99
                      A                      A                      A
 Frequencies --   3043.3432              3046.5966              3050.8437
 Red. masses --      1.0660                 1.0380                 1.0683
 Frc consts  --      5.8172                 5.6765                 5.8587
 IR Inten    --     21.4987                31.4607                41.5830

                    100                    101                    102
                      A                      A                      A
 Frequencies --   3055.2123              3056.5472              3072.1871
 Red. masses --      1.0369                 1.0369                 1.0962
 Frc consts  --      5.7026                 5.7075                 6.0960
 IR Inten    --     18.2698                32.6633                40.0286

                    103                    104                    105
                      A                      A                      A
 Frequencies --   3080.1383              3088.8192              3101.0925
 Red. masses --      1.0943                 1.0874                 1.1020
 Frc consts  --      6.1168                 6.1125                 6.2441
 IR Inten    --     64.4142                 7.8277                25.0917

                    106                    107                    108
                      A                      A                      A
 Frequencies --   3108.5946              3118.1981              3120.2429
 Red. masses --      1.0956                 1.1019                 1.1017
 Frc consts  --      6.2377                 6.3127                 6.3196
 IR Inten    --     29.2405                41.2501                30.5512

                    109                    110                    111
                      A                      A                      A
 Frequencies --   3125.1536              3129.7070              3132.8056
 Red. masses --      1.1015                 1.0970                 1.1013
 Frc consts  --      6.3386                 6.3308                 6.3680
 IR Inten    --     44.2042                23.0253                41.0242

                    112                    113                    114
                      A                      A                      A
 Frequencies --   3138.1105              3176.6421              3434.6712
 Red. masses --      1.0998                 1.0908                 1.0485
 Frc consts  --      6.3811                 6.4852                 7.2879
 IR Inten    --     22.2045                36.0051                 3.7956

                    115                    116                    117
                      A                      A                      A
 Frequencies --   3506.9672              3635.7928              3666.8612
 Red. masses --      1.0928                 1.0671                 1.0772
 Frc consts  --      7.9189                 8.3107                 8.5337
 IR Inten    --      1.0613               168.3970                40.3509

 - Thermochemistry -
 -------------------
 Temperature   298.150 Kelvin.  Pressure   1.00000 Atm.
 Atom     1 has atomic number  6 and mass  12.00000

 Molecular mass:   253.19026 amu.
 Principal axes and moments of inertia in atomic units:
                           1         2         3
     Eigenvalues --  3439.850325731.351485923.55790
           X            0.99985  -0.00283   0.01724
           Y            0.00455   0.99490  -0.10073
           Z           -0.01686   0.10079   0.99476
 This molecule is an asymmetric top.
 Rotational symmetry number  1.
 Warning -- assumption of classical behavior for rotation
           may cause significant error
 Rotational temperatures (Kelvin)      0.02518     0.01511     0.01462
 Rotational constants (GHZ):           0.52466     0.31489     0.30467
 Zero-point vibrational energy     951878.7 (Joules/Mol)
                                  227.50447 (Kcal/Mol)
 Warning -- explicit consideration of  32 degrees of freedom as
           vibrations may cause significant error
 Vibrational temperatures:     49.40    68.20    82.12   112.45   144.56
          (Kelvin)            147.93   164.94   178.26   214.06   234.49
                              264.06   276.69   293.43   306.53   326.63
                              353.02   356.51   386.95   414.78   416.32
                              460.74   497.80   596.44   624.28   654.46
                              681.97   704.18   777.89   809.10   831.02
                              840.04   885.30   903.47  1038.22  1076.72
                             1118.76  1184.33  1214.44  1245.11  1273.27
                             1279.86  1311.85  1331.37  1361.52  1365.49
                             1408.14  1417.00  1448.99  1509.78  1545.45
                             1564.23  1584.78  1590.12  1633.45  1637.05
                             1663.04  1687.65  1719.56  1751.92  1793.51
                             1813.98  1836.27  1884.84  1894.99  1924.04
                             1960.71  1975.55  1984.74  1996.12  2011.27
                             2022.26  2023.38  2040.45  2047.77  2060.97
                             2074.11  2082.58  2096.19  2097.23  2123.85
                             2156.00  2170.66  2180.61  2183.74  2190.12
                             2197.43  2199.97  2208.37  2209.99  2216.89
                             2218.88  2301.19  2338.64  2515.13  4316.84
                             4362.36  4378.69  4383.37  4389.48  4395.77
                             4397.69  4420.19  4431.63  4444.12  4461.78
                             4472.57  4486.39  4489.33  4496.40  4502.95
                             4507.41  4515.04  4570.48  4941.73  5045.74
                             5231.09  5275.80

 Zero-point correction=                           0.362551 (Hartree/Particle)
 Thermal correction to Energy=                    0.382372
 Thermal correction to Enthalpy=                  0.383316
 Thermal correction to Gibbs Free Energy=         0.314748
 Sum of electronic and zero-point Energies=           -819.788187
 Sum of electronic and thermal Energies=              -819.768366
 Sum of electronic and thermal Enthalpies=            -819.767422
 Sum of electronic and thermal Free Energies=         -819.835990

                     E (Thermal)             CV                S
                      KCal/Mol        Cal/Mol-Kelvin    Cal/Mol-Kelvin
 Total                  239.942             73.749            144.314
 Electronic               0.000              0.000              0.000
 Translational            0.889              2.981             42.487
 Rotational               0.889              2.981             33.123
 Vibrational            238.164             67.787             68.703
 Vibration     1          0.594              1.983              5.562
 Vibration     2          0.595              1.979              4.923
 Vibration     3          0.596              1.975              4.556
 Vibration     4          0.599              1.964              3.937
 Vibration     5          0.604              1.949              3.445
 Vibration     6          0.605              1.947              3.400
 Vibration     7          0.608              1.937              3.189
 Vibration     8          0.610              1.929              3.039
 Vibration     9          0.618              1.904              2.688
 Vibration    10          0.623              1.888              2.515
 Vibration    11          0.631              1.862              2.292
 Vibration    12          0.634              1.851              2.205
 Vibration    13          0.640              1.834              2.097
 Vibration    14          0.644              1.821              2.017
 Vibration    15          0.651              1.800              1.902
 Vibration    16          0.660              1.770              1.764
 Vibration    17          0.661              1.766              1.746
 Vibration    18          0.673              1.730              1.603
 Vibration    19          0.685              1.695              1.484
 Vibration    20          0.686              1.694              1.478
 Vibration    21          0.706              1.635              1.309
 Vibration    22          0.724              1.583              1.184
 Vibration    23          0.778              1.439              0.911
 Vibration    24          0.795              1.396              0.846
 Vibration    25          0.813              1.350              0.781
 Vibration    26          0.831              1.308              0.726
 Vibration    27          0.845              1.273              0.685
 Vibration    28          0.896              1.160              0.564
 Vibration    29          0.918              1.113              0.519
 Vibration    30          0.934              1.080              0.490
 Vibration    31          0.941              1.066              0.478
 Vibration    32          0.975              0.999              0.424

                           ! Non-Optimized Parameters !
 Normal termination of Gaussian 16 at Fri Dec 11 20:36:14 2020.

 ----------------------------------------------------------------------
 # B3LYP/6-311++G(d,p) empiricaldispersion=gd3bj scf=xqc pop=npa geom=c
 heck
 ----------------------------------------------------------------------

 --------------------------------------
 CID_80895608_JID_8356_Energie_neutraal
 --------------------------------------
 Structure from the checkpoint file:  "JID_8356.chk"
 Charge =  0 Multiplicity = 1

 SCF Done:  E(RB3LYP) =  -820.391975608     A.U. after   14 cycles
 Normal termination of Gaussian 16 at Fri Dec 11 20:43:51 2020.

 ----------------------------------------------------------------------
 # B3LYP/6-311++G(d,p) empiricaldispersion=gd3bj scf=xqc pop=npa geom=c
 heck
 ----------------------------------------------------------------------

 ------------------------------------
 CID_80895608_JID_8356_Energie_kation
 ------------------------------------
 Structure from the checkpoint file:  "JID_8356.chk"
 Charge =  1 Multiplicity = 2

 SCF Done:  E(UB3LYP) =  -820.111398643     A.U. after   22 cycles
 Normal termination of Gaussian 16 at Fri Dec 11 21:00:31 2020.
 Gaussian 16:  ES64L-G16RevA.03 25-Dec-2016

 ----------------------------------------------------------------------
 # B3LYP/6-311++G(d,p) empiricaldispersion=gd3bj scf=xqc pop=npa geom=c
 heck
 ----------------------------------------------------------------------

 -----------------------------------
 CID_80895608_JID_8356_Energie_anion
 -----------------------------------
 Structure from the checkpoint file:  "JID_8356.chk"
 Charge = -1 Multiplicity = 2

                         Standard orientation:
 ---------------------------------------------------------------------
 Center     Atomic      Atomic             Coordinates (Angstroms)
 Number     Number       Type             X           Y           Z
 ---------------------------------------------------------------------
      1          6           0       -1.447884    2.578044   -1.604660
      2          6           0       -2.620649    2.210097   -0.691138
      3          6           0       -2.764897    0.714692   -0.385474
      4          7           0       -1.646758    0.191739    0.415738
      5          6           0       -2.031952   -0.762345    1.468267
      6          6           0       -2.694395   -2.043606    0.943681
      7          8           0       -1.833940   -2.803925    0.117493
      8          6           0       -0.463551   -0.136539   -0.287932
      9          7           0       -0.615057   -0.670710   -1.524343
     10          6           0        0.499062   -0.962371   -2.184424
     11          7           0        1.748938   -0.814727   -1.754453
     12          6           0        1.895008   -0.286815   -0.523968
     13          6           0        0.791993    0.111235    0.279724
     14          6           0        0.924295    0.829096    1.613423
     15          6           0        1.509630   -0.042836    2.741662
     16          6           0        1.665134    2.174167    1.483241
     17          7           0        3.192682   -0.122103   -0.106288
     18          7           0        4.279294   -0.677541   -0.816957
     19          1           0       -0.485273    2.367592   -1.128849
     20          1           0       -1.470422    3.645814   -1.849779
     21          1           0       -1.482789    2.011492   -2.541596
     22          1           0       -2.533137    2.751828    0.259576
     23          1           0       -3.558275    2.540534   -1.159321
     24          1           0       -3.672815    0.570488    0.208502
     25          1           0       -2.889919    0.147952   -1.316474
     26          1           0       -1.132207   -1.040105    2.023438
     27          1           0       -2.710413   -0.253100    2.165509
     28          1           0       -2.956941   -2.680788    1.796720
     29          1           0       -3.634283   -1.793522    0.425939
     30          1           0       -1.656612   -2.278097   -0.684860
     31          1           0        0.378827   -1.385589   -3.180429
     32          1           0       -0.100283    1.074065    1.904488
     33          1           0        2.578142   -0.256822    2.616001
     34          1           0        1.404418    0.470892    3.703694
     35          1           0        0.994060   -1.006109    2.810220
     36          1           0        1.161915    2.817975    0.754395
     37          1           0        1.669804    2.693713    2.448251
     38          1           0        2.703011    2.056536    1.158598
     39          1           0        3.369354   -0.049174    0.882362
     40          1           0        3.954797   -1.553016   -1.233136
     41          1           0        4.456105   -0.064681   -1.613480
 ---------------------------------------------------------------------

 SCF Done:  E(UB3LYP) =  -820.380337125     A.U. after   33 cycles
 SCF Done:  E(UB3LYP) =  -820.380337125     a.u. after    1 cycles

 The electronic state is 2-A.
 Alpha  occ. eigenvalues --  -19.01806 -14.26785 -14.24949 -14.21991 -14.20905
 Alpha  occ. eigenvalues --  -14.20812 -10.16155 -10.14546 -10.13670 -10.11840
 Alpha  occ. eigenvalues --  -10.10347 -10.09592 -10.08659 -10.08486 -10.07340
 Alpha  occ. eigenvalues --  -10.06822 -10.06167 -10.05865  -0.92492  -0.92148
 Alpha  occ. eigenvalues --   -0.88378  -0.83857  -0.77829  -0.74008  -0.70020
 Alpha  occ. eigenvalues --   -0.68346  -0.65927  -0.63111  -0.59483  -0.58738
 Alpha  occ. eigenvalues --   -0.56843  -0.54544  -0.51407  -0.49810  -0.48326
 Alpha  occ. eigenvalues --   -0.44903  -0.43857  -0.41980  -0.41434  -0.39827
 Alpha  occ. eigenvalues --   -0.38930  -0.38707  -0.36723  -0.35077  -0.34806
 Alpha  occ. eigenvalues --   -0.34441  -0.33966  -0.32993  -0.32542  -0.31558
 Alpha  occ. eigenvalues --   -0.30711  -0.29940  -0.29549  -0.28553  -0.27304
 Alpha  occ. eigenvalues --   -0.25611  -0.25269  -0.24839  -0.24400  -0.24254
 Alpha  occ. eigenvalues --   -0.24108  -0.23355  -0.20980  -0.19477  -0.19351
 Alpha  occ. eigenvalues --   -0.18475  -0.16599  -0.14259  -0.12018   0.04246
 Alpha virt. eigenvalues --    0.06076   0.06297   0.06745   0.07183   0.07364
 Alpha virt. eigenvalues --    0.08293   0.08700   0.08845   0.09032   0.09964
 Alpha virt. eigenvalues --    0.10223   0.10962   0.11266   0.11537   0.11660

  Beta  occ. eigenvalues --  -19.01798 -14.26780 -14.24936 -14.21997 -14.20845
  Beta  occ. eigenvalues --  -14.20836 -10.16165 -10.14480 -10.13590 -10.11827
  Beta  occ. eigenvalues --  -10.10319 -10.09580 -10.08656 -10.08431 -10.07318
  Beta  occ. eigenvalues --  -10.06802 -10.06125 -10.05850  -0.92466  -0.92122
  Beta  occ. eigenvalues --   -0.88316  -0.83801  -0.77789  -0.73936  -0.69984
  Beta  occ. eigenvalues --   -0.68313  -0.65848  -0.63070  -0.59418  -0.58696
  Beta  occ. eigenvalues --   -0.56735  -0.54484  -0.51343  -0.49763  -0.48265
  Beta  occ. eigenvalues --   -0.44863  -0.43806  -0.41957  -0.41411  -0.39787
  Beta  occ. eigenvalues --   -0.38880  -0.38667  -0.36684  -0.35033  -0.34757
  Beta  occ. eigenvalues --   -0.34360  -0.33880  -0.32934  -0.32507  -0.31471
  Beta  occ. eigenvalues --   -0.30679  -0.29899  -0.29484  -0.28517  -0.27234
  Beta  occ. eigenvalues --   -0.25553  -0.25217  -0.24801  -0.24363  -0.24206
  Beta  occ. eigenvalues --   -0.24072  -0.23317  -0.20928  -0.19452  -0.19076
  Beta  occ. eigenvalues --   -0.18440  -0.16566  -0.14147  -0.11919
  Beta virt. eigenvalues --    0.06229   0.06760   0.06849   0.07288   0.07527
  Beta virt. eigenvalues --    0.07688   0.08518   0.09010   0.09220   0.09323
  Beta virt. eigenvalues --    0.10171   0.10697   0.11163   0.11472   0.11662

 Mulliken charges and spin densities:
               1          2
     1  C   -0.115047  -0.428666
     2  C    0.038413  -0.241692
     3  C    0.068650  -0.163890
     4  N    0.618635   0.041073
     5  C    0.290719  -0.282864
     6  C    0.223055  -0.617521
     7  O   -0.199752   0.006678
     8  C   -0.854968  -0.417195
     9  N   -0.032028   0.079751
    10  C   -0.016485   0.074973
    11  N   -0.122405  -0.021280
    12  C   -0.867944   0.212731
    13  C    2.404571  -1.891040
    14  C   -2.800677   2.493279
    15  C    0.516671  -1.076271
    16  C    0.624732  -1.237811
    17  N   -0.107857   0.049589
    18  N   -0.239447  -0.041659
    19  H    0.404667  -0.250670
    20  H   -0.147607   0.298341
    21  H    0.004643   0.135709
    22  H   -0.039009   0.180013
    23  H   -0.106726   0.245710
    24  H   -0.278883   0.435304
    25  H    0.116931   0.078831
    26  H    0.302614  -0.235329
    27  H   -0.555804   0.747603
    28  H   -0.140225   0.325770
    29  H    0.094735   0.028892
    30  H    0.247518   0.042974
    31  H    0.085835   0.089605
    32  H    0.059064   0.183351
    33  H   -0.061370   0.182632
    34  H   -0.330068   0.500427
    35  H    0.053024   0.097530
    36  H   -0.194923   0.333468
    37  H   -0.447360   0.609936
    38  H   -0.108890   0.254139
    39  H    0.320249  -0.035805
    40  H    0.155198   0.085866
    41  H    0.137553   0.127517
 Sum of Mulliken charges =  -1.00000   1.00000

 Dipole moment (field-independent basis, Debye):
    X=              1.6430    Y=             -2.7486    Z=             -3.7851  Tot=              4.9579
 Quadrupole moment (field-independent basis, Debye-Ang):
   XX=           -174.1470   YY=           -163.8053   ZZ=           -160.1297
   XY=             -2.0011   XZ=              0.3396   YZ=             -6.0821

 Summary of Natural Population Analysis:

                                       Natural Population
                Natural  -----------------------------------------------
    Atom  No    Charge         Core      Valence    Rydberg      Total
 -----------------------------------------------------------------------
      C    1   -0.28724      0.99966     2.28310    0.00449     3.28724
      C    2   -0.18985      0.99963     2.18231    0.00791     3.18985
      C    3   -0.08475      0.99959     2.07311    0.01205     3.08475
      N    4   -0.29033      0.99967     2.77480    0.01586     3.79033
      C    5   -0.09170      0.99959     2.08046    0.01165     3.09170
      C    6   -0.01800      0.99960     2.00557    0.01283     3.01800
      O    7   -0.37757      0.99990     3.37089    0.00678     4.37757
      C    8    0.23731      0.99945     1.74670    0.01654     2.76269
      N    9   -0.30367      0.99966     2.79284    0.01117     3.80367
      C   10    0.16760      0.99965     1.81486    0.01789     2.83240
      N   11   -0.28329      0.99967     2.77236    0.01127     3.78329
      C   12    0.21106      0.99950     1.77414    0.01530     2.78894
      C   13   -0.06245      0.99939     2.05125    0.01181     3.06245
      C   14   -0.13108      0.99959     2.12020    0.01129     3.13108
      C   15   -0.27706      0.99964     2.27164    0.00578     3.27706
      C   16   -0.28120      0.99964     2.27531    0.00624     3.28120
      N   17   -0.22361      0.99965     2.71260    0.01136     3.72361
      N   18   -0.31511      0.99978     2.80548    0.00985     3.81511
      H   19    0.10012      0.00000     0.39849    0.00139     0.39988
      H   20    0.09665      0.00000     0.40247    0.00088     0.40335
      H   21    0.09810      0.00000     0.40076    0.00114     0.40190
      H   22    0.09676      0.00000     0.40167    0.00157     0.40324
      H   23    0.09286      0.00000     0.40605    0.00109     0.40714
      H   24    0.09672      0.00000     0.40187    0.00141     0.40328
      H   25    0.09566      0.00000     0.40224    0.00210     0.40434
      H   26    0.09938      0.00000     0.39909    0.00153     0.40062
      H   27    0.09917      0.00000     0.39872    0.00211     0.40083
      H   28    0.08545      0.00000     0.41337    0.00118     0.41455
      H   29    0.07566      0.00000     0.42313    0.00121     0.42434
      H   30    0.23989      0.00000     0.25678    0.00334     0.26011
      H   31    0.07971      0.00000     0.41920    0.00109     0.42029
      H   32    0.11336      0.00000     0.38340    0.00325     0.38664
      H   33    0.08592      0.00000     0.41286    0.00123     0.41408
      H   34    0.10330      0.00000     0.39579    0.00090     0.39670
      H   35    0.10084      0.00000     0.39811    0.00105     0.39916
      H   36    0.10257      0.00000     0.39615    0.00128     0.39743
      H   37    0.10199      0.00000     0.39638    0.00162     0.39801
      H   38    0.09584      0.00000     0.40263    0.00153     0.40416
      H   39    0.19097      0.00000     0.30622    0.00281     0.30903
      H   40    0.17693      0.00000     0.32088    0.00219     0.32307
      H   41    0.17310      0.00000     0.32484    0.00206     0.32690
 =======================================================================
   * Total *    0.00000     17.99323    50.76875    0.23801    69.00000

 Normal termination of Gaussian 16 at Fri Dec 11 21:26:05 2020.
