 Gaussian 16, Revision A.03,

 -----------------------------------------------------------
 # opt freq B3LYP/6-31G(d) empiricaldispersion=gd3bj scf=xqc
 -----------------------------------------------------------

 -------------------------------
 CID_102521871_JID_2428_neutraal
 -------------------------------
 Symbolic Z-matrix:
 Charge =  0 Multiplicity = 1

 SCF Done:  E(RB3LYP) =  -511.424385104     A.U. after   15 cycles
 SCF Done:  E(RB3LYP) =  -511.439261659     A.U. after   13 cycles
 SCF Done:  E(RB3LYP) =  -511.440478812     A.U. after   11 cycles
 SCF Done:  E(RB3LYP) =  -511.440522211     A.U. after   10 cycles
 SCF Done:  E(RB3LYP) =  -511.440525382     A.U. after    8 cycles
 Optimization completed.
    -- Stationary point found.
 Normal termination of Gaussian 16 at Sun Dec 13 15:51:51 2020.

 --------------------------------------------------------------------
 #N Geom=AllCheck Guess=TCheck SCRF=Check GenChk RB3LYP/6-31G(d) Freq
 --------------------------------------------------------------------

 Structure from the checkpoint file:  "JID_2428.chk"
 -------------------------------
 CID_102521871_JID_2428_neutraal
 -------------------------------
 Charge =  0 Multiplicity = 1

 SCF Done:  E(RB3LYP) =  -511.440525382     A.U. after    1 cycles

  Exact polarizability: 169.148   2.052 112.038  -0.000  -0.000  37.405
 Approx polarizability: 274.564   9.258 202.798  -0.000  -0.000  59.380

 ******    1 imaginary frequencies (negative Signs) ******

                      1                      2                      3
                      A                      A                      A
 Frequencies --   -165.9909               120.2435               187.2139
 Red. masses --      1.5400                 5.9085                 4.3118
 Frc consts  --      0.0250                 0.0503                 0.0890
 IR Inten    --     95.3018                 0.2290                 0.2445

                      4                      5                      6
                      A                      A                      A
 Frequencies --    255.4363               283.8365               295.6021
 Red. masses --      4.7208                 1.5291                 4.0737
 Frc consts  --      0.1815                 0.0726                 0.2097
 IR Inten    --      0.5439                79.3962                50.9006

                      7                      8                      9
                      A                      A                      A
 Frequencies --    362.2765               449.7317               476.3702
 Red. masses --      2.3907                 3.0334                 7.6116
 Frc consts  --      0.1849                 0.3615                 1.0177
 IR Inten    --      0.5389                 2.8337                 1.8240

                     10                     11                     12
                      A                      A                      A
 Frequencies --    541.3482               601.6783               606.7069
 Red. masses --      4.3407                 3.7629                 3.0713
 Frc consts  --      0.7495                 0.8026                 0.6661
 IR Inten    --      4.3591                 7.9163                 2.7004

                     13                     14                     15
                      A                      A                      A
 Frequencies --    625.0308               654.8663               715.7672
 Red. masses --      6.7873                 1.4608                 6.5838
 Frc consts  --      1.5623                 0.3691                 1.9873
 IR Inten    --      6.6472                32.0885                17.5782

                     16                     17                     18
                      A                      A                      A
 Frequencies --    739.7239               785.9697               789.1357
 Red. masses --      4.0112                 4.6625                 6.0128
 Frc consts  --      1.2932                 1.6970                 2.2061
 IR Inten    --     17.8661                 0.1410                 0.4750

                     19                     20                     21
                      A                      A                      A
 Frequencies --    828.1902               837.3913               861.9638
 Red. masses --      1.2548                 1.4560                 5.7138
 Frc consts  --      0.5071                 0.6016                 2.5012
 IR Inten    --     22.3671                10.6226                 9.3512

                     22                     23                     24
                      A                      A                      A
 Frequencies --    915.5144               926.7379               958.1192
 Red. masses --      1.3461                 4.9269                 1.3528
 Frc consts  --      0.6648                 2.4931                 0.7317
 IR Inten    --      0.4721                 5.3054                 0.0107

                     25                     26                     27
                      A                      A                      A
 Frequencies --   1022.3158              1063.8092              1073.0891
 Red. masses --      2.5130                 2.1159                 2.4292
 Frc consts  --      1.5474                 1.4108                 1.6481
 IR Inten    --     10.7841                 3.6095                16.1362

                     28                     29                     30
                      A                      A                      A
 Frequencies --   1120.6459              1179.4660              1218.1382
 Red. masses --      1.7517                 2.9695                 1.6471
 Frc consts  --      1.2961                 2.4339                 1.4400
 IR Inten    --      4.2394                 2.4595                 2.1381

                     31                     32                     33
                      A                      A                      A
 Frequencies --   1246.3628              1262.0832              1319.1558
 Red. masses --      1.9956                 1.6709                 4.2456
 Frc consts  --      1.8265                 1.5681                 4.3529
 IR Inten    --     18.1873                37.0470                48.9923

                     34                     35                     36
                      A                      A                      A
 Frequencies --   1336.2341              1369.1820              1395.8609
 Red. masses --      1.6420                 2.7179                 1.6646
 Frc consts  --      1.7274                 3.0019                 1.9109
 IR Inten    --      1.5636                 8.7933                 0.1176

                     37                     38                     39
                      A                      A                      A
 Frequencies --   1465.3054              1496.2909              1516.7651
 Red. masses --      3.3375                 2.9336                 3.6019
 Frc consts  --      4.2221                 3.8698                 4.8822
 IR Inten    --     11.6210                44.4968                13.8043

                     40                     41                     42
                      A                      A                      A
 Frequencies --   1519.4126              1565.1940              1613.2169
 Red. masses --      4.9834                 3.6621                 6.4152
 Frc consts  --      6.7784                 5.2859                 9.8366
 IR Inten    --     35.3557                 7.6932                24.1206

                     43                     44                     45
                      A                      A                      A
 Frequencies --   1639.2312              1666.5557              3150.7989
 Red. masses --      5.9931                 7.0567                 1.0898
 Frc consts  --      9.4881                11.5476                 6.3741
 IR Inten    --     71.2256               140.8615                40.3599

                     46                     47                     48
                      A                      A                      A
 Frequencies --   3173.3738              3206.5848              3265.4271
 Red. masses --      1.0885                 1.0939                 1.0910
 Frc consts  --      6.4586                 6.6269                 6.8541
 IR Inten    --     29.2741                22.0814                 4.1478

                     49                     50                     51
                      A                      A                      A
 Frequencies --   3289.6722              3680.5108              3683.0338
 Red. masses --      1.1017                 1.0803                 1.0799
 Frc consts  --      7.0247                 8.6217                 8.6307
 IR Inten    --      2.8319                48.1056                83.7524

 - Thermochemistry -
 -------------------
 Temperature   298.150 Kelvin.  Pressure   1.00000 Atm.
 Atom     1 has atomic number  6 and mass  12.00000

 Molecular mass:   157.06400 amu.
 Principal axes and moments of inertia in atomic units:
                           1         2         3
     Eigenvalues --   651.524702532.020703183.54541
           X            0.99999   0.00318  -0.00000
           Y           -0.00318   0.99999   0.00000
           Z            0.00000  -0.00000   1.00000
 This molecule is an asymmetric top.
 Rotational symmetry number  1.
 Warning -- assumption of classical behavior for rotation
           may cause significant error
 Rotational temperatures (Kelvin)      0.13294     0.03421     0.02721
 Rotational constants (GHZ):           2.77003     0.71277     0.56690
    1 imaginary frequencies ignored.
 Zero-point vibrational energy     384937.8 (Joules/Mol)
                                   92.00234 (Kcal/Mol)
 Warning -- explicit consideration of  11 degrees of freedom as
           vibrations may cause significant error
 Vibrational temperatures:    173.00   269.36   367.52   408.38   425.31
          (Kelvin)            521.24   647.06   685.39   778.88   865.68
                              872.92   899.28   942.21  1029.83  1064.30
                             1130.84  1135.39  1191.58  1204.82  1240.17
                             1317.22  1333.37  1378.52  1470.88  1530.58
                             1543.94  1612.36  1696.99  1752.63  1793.24
                             1815.86  1897.97  1922.54  1969.95  2008.33
                             2108.25  2152.83  2182.29  2186.10  2251.97
                             2321.06  2358.49  2397.80  4533.30  4565.78
                             4613.56  4698.22  4733.10  5295.43  5299.06

 Zero-point correction=                           0.146615 (Hartree/Particle)
 Thermal correction to Energy=                    0.154668
 Thermal correction to Enthalpy=                  0.155613
 Thermal correction to Gibbs Free Energy=         0.113597
 Sum of electronic and zero-point Energies=           -511.293910
 Sum of electronic and thermal Energies=              -511.285857
 Sum of electronic and thermal Enthalpies=            -511.284913
 Sum of electronic and thermal Free Energies=         -511.326928

                     E (Thermal)             CV                S
                      KCal/Mol        Cal/Mol-Kelvin    Cal/Mol-Kelvin
 Total                   97.056             33.205             88.428
 Electronic               0.000              0.000              0.000
 Translational            0.889              2.981             41.064
 Rotational               0.889              2.981             30.042
 Vibrational             95.278             27.243             17.323
 Vibration     1          0.609              1.932              3.096
 Vibration     2          0.632              1.857              2.255
 Vibration     3          0.666              1.754              1.693
 Vibration     4          0.682              1.704              1.510
 Vibration     5          0.690              1.682              1.442
 Vibration     6          0.736              1.550              1.112
 Vibration     7          0.809              1.361              0.797
 Vibration     8          0.833              1.302              0.720
 Vibration     9          0.896              1.159              0.562
 Vibration    10          0.960              1.028              0.447
 Vibration    11          0.965              1.018              0.438

 Optimization completed.
    -- Stationary point found.
 Normal termination of Gaussian 16 at Sun Dec 13 15:55:40 2020.

 ----------------------------------------------------------------------
 # B3LYP/6-311++G(d,p) empiricaldispersion=gd3bj scf=xqc pop=npa geom=c
 heck
 ----------------------------------------------------------------------

 ---------------------------------------
 CID_102521871_JID_2428_Energie_neutraal
 ---------------------------------------
 Structure from the checkpoint file:  "JID_2428.chk"
 Charge =  0 Multiplicity = 1

 SCF Done:  E(RB3LYP) =  -511.575916096     A.U. after   15 cycles
 Normal termination of Gaussian 16 at Sun Dec 13 15:56:56 2020.

 ----------------------------------------------------------------------
 # B3LYP/6-311++G(d,p) empiricaldispersion=gd3bj scf=xqc pop=npa geom=c
 heck
 ----------------------------------------------------------------------

 -------------------------------------
 CID_102521871_JID_2428_Energie_kation
 -------------------------------------
 Structure from the checkpoint file:  "JID_2428.chk"
 Charge =  1 Multiplicity = 2

 SCF Done:  E(UB3LYP) =  -511.306004101     A.U. after   24 cycles
 Normal termination of Gaussian 16 at Sun Dec 13 15:59:34 2020.
 Gaussian 16:  ES64L-G16RevA.03 25-Dec-2016

 ----------------------------------------------------------------------
 # B3LYP/6-311++G(d,p) empiricaldispersion=gd3bj scf=xqc pop=npa geom=c
 heck
 ----------------------------------------------------------------------

 ------------------------------------
 CID_102521871_JID_2428_Energie_anion
 ------------------------------------
 Structure from the checkpoint file:  "JID_2428.chk"
 Charge = -1 Multiplicity = 2

                         Standard orientation:
 ---------------------------------------------------------------------
 Center     Atomic      Atomic             Coordinates (Angstroms)
 Number     Number       Type             X           Y           Z
 ---------------------------------------------------------------------
      1          6           0       -2.138536    1.414130    0.000002
      2          6           0       -3.203504    0.546052    0.000009
      3          7           0       -2.726792   -0.776421   -0.000004
      4          6           0       -1.367467   -0.713689   -0.000005
      5          6           0       -0.946114    0.615957   -0.000005
      6          6           0        0.491963    0.571946   -0.000004
      7          6           0        0.854947   -0.812753    0.000001
      8          7           0       -0.308576   -1.592358   -0.000001
      9          6           0        2.190805   -1.196143    0.000004
     10          7           0        3.178015   -0.295477    0.000004
     11          6           0        2.845074    1.009762    0.000001
     12          6           0        1.540936    1.498078   -0.000004
     13          1           0       -2.212111    2.492410    0.000001
     14          1           0       -4.266730    0.732904    0.000014
     15          1           0       -3.302202   -1.602876    0.000001
     16          1           0       -0.339700   -2.598488   -0.000007
     17          1           0        2.480247   -2.247099    0.000005
     18          1           0        3.681615    1.705660    0.000002
     19          1           0        1.351737    2.567233   -0.000006
 ---------------------------------------------------------------------

 SCF Done:  E(UB3LYP) =  -511.571822419     A.U. after   32 cycles

 The electronic state is 2-A.
 Alpha  occ. eigenvalues --  -14.25595 -14.25394 -14.20152 -10.13467 -10.11238
 Alpha  occ. eigenvalues --  -10.10312 -10.09675 -10.09488 -10.08868 -10.07775
 Alpha  occ. eigenvalues --  -10.06495 -10.05992  -0.90215  -0.85288  -0.82701
 Alpha  occ. eigenvalues --   -0.71386  -0.66748  -0.65115  -0.62329  -0.54843
 Alpha  occ. eigenvalues --   -0.52237  -0.49340  -0.46893  -0.46809  -0.41593
 Alpha  occ. eigenvalues --   -0.39169  -0.36862  -0.35289  -0.34765  -0.33854
 Alpha  occ. eigenvalues --   -0.32828  -0.29503  -0.29386  -0.27895  -0.25852
 Alpha  occ. eigenvalues --   -0.24761  -0.20188  -0.15817  -0.15472  -0.12207
 Alpha  occ. eigenvalues --   -0.09533   0.04375
 Alpha virt. eigenvalues --    0.07236   0.07326   0.07583   0.09089   0.09538
 Alpha virt. eigenvalues --    0.09733   0.11545   0.12112   0.13257   0.13439
 Alpha virt. eigenvalues --    0.13925   0.15168   0.15885   0.16717   0.16837

  Beta  occ. eigenvalues --  -14.25526 -14.25304 -14.20151 -10.13469 -10.11234
  Beta  occ. eigenvalues --  -10.10304 -10.09675 -10.09468 -10.08867 -10.07774
  Beta  occ. eigenvalues --  -10.06495 -10.05985  -0.90153  -0.85216  -0.82678
  Beta  occ. eigenvalues --   -0.71338  -0.66695  -0.65089  -0.62272  -0.54800
  Beta  occ. eigenvalues --   -0.52191  -0.49240  -0.46837  -0.46715  -0.41542
  Beta  occ. eigenvalues --   -0.39132  -0.36842  -0.35231  -0.34732  -0.33819
  Beta  occ. eigenvalues --   -0.32782  -0.29481  -0.29364  -0.27866  -0.25838
  Beta  occ. eigenvalues --   -0.24722  -0.20175  -0.15814  -0.15461  -0.12177
  Beta  occ. eigenvalues --   -0.09512
  Beta virt. eigenvalues --    0.07284   0.07314   0.08090   0.08601   0.09672
  Beta virt. eigenvalues --    0.09736   0.10477   0.12037   0.13056   0.13265
  Beta virt. eigenvalues --    0.13569   0.13783   0.14989   0.16180   0.16627

 Mulliken charges and spin densities:
               1          2
     1  C   -0.456156  -0.183895
     2  C   -0.703387   0.643597
     3  N   -0.496552   0.354520
     4  C    0.237224  -0.319268
     5  C    2.260242  -1.081583
     6  C    1.038427  -0.964049
     7  C   -0.790145   0.407880
     8  N    0.031260  -0.219291
     9  C    0.218435  -0.965360
    10  N   -0.116532   0.007321
    11  C   -0.299647  -0.180586
    12  C    0.468863  -0.308559
    13  H    0.058814   0.066376
    14  H   -0.972400   1.154859
    15  H   -0.959576   1.296506
    16  H   -0.678493   1.006480
    17  H   -0.078204   0.242410
    18  H    0.143234  -0.004901
    19  H    0.094592   0.047543
 Sum of Mulliken charges =  -1.00000   1.00000

 Dipole moment (field-independent basis, Debye):
    X=              6.5458    Y=              8.1065    Z=              0.0000  Tot=             10.4194
 Quadrupole moment (field-independent basis, Debye-Ang):
   XX=           -144.2466   YY=           -110.8408   ZZ=            -89.3650
   XY=            -15.6327   XZ=              0.0000   YZ=             -0.0001

 Summary of Natural Population Analysis:

                                       Natural Population
                Natural  -----------------------------------------------
    Atom  No    Charge         Core      Valence    Rydberg      Total
 -----------------------------------------------------------------------
      C    1   -0.14034      0.99954     2.13223    0.00858     3.14034
      C    2   -0.01509      0.99957     2.00183    0.01370     3.01509
      N    3   -0.27335      0.99965     2.76247    0.01122     3.77335
      C    4    0.19236      0.99943     1.79359    0.01461     2.80764
      C    5   -0.08698      0.99943     2.07701    0.01054     3.08698
      C    6   -0.02576      0.99948     2.01642    0.00986     3.02576
      C    7    0.06574      0.99947     1.92335    0.01145     2.93426
      N    8   -0.27847      0.99963     2.76835    0.01049     3.77847
      C    9    0.00882      0.99953     1.97617    0.01548     2.99118
      N   10   -0.24750      0.99972     2.73706    0.01072     3.74750
      C   11    0.00473      0.99960     1.98194    0.01373     2.99527
      C   12   -0.12321      0.99953     2.11543    0.00825     3.12321
      H   13    0.10330      0.00000     0.39597    0.00073     0.39670
      H   14    0.10206      0.00000     0.39653    0.00140     0.39794
      H   15    0.22074      0.00000     0.21777    0.06149     0.27926
      H   16    0.21510      0.00000     0.26436    0.02054     0.28490
      H   17    0.09232      0.00000     0.40602    0.00167     0.40768
      H   18    0.08463      0.00000     0.41429    0.00109     0.41537
      H   19    0.10091      0.00000     0.39820    0.00089     0.39909
 =======================================================================
   * Total *    0.00000     11.99458    28.77898    0.22644    41.00000

 Normal termination of Gaussian 16 at Sun Dec 13 16:03:01 2020.
