 Gaussian 16, Revision A.03,

 -----------------------------------------------------------
 # opt freq B3LYP/6-31G(d) empiricaldispersion=gd3bj scf=xqc
 -----------------------------------------------------------

 ------------------------------
 CID_82450457_JID_8037_neutraal
 ------------------------------
 Symbolic Z-matrix:
 Charge =  0 Multiplicity = 1

 SCF Done:  E(RB3LYP) =  -751.206691870     A.U. after   15 cycles
 SCF Done:  E(RB3LYP) =  -751.213469100     A.U. after   12 cycles
 SCF Done:  E(RB3LYP) =  -751.214240738     A.U. after   12 cycles
 SCF Done:  E(RB3LYP) =  -751.214828005     A.U. after   12 cycles
 SCF Done:  E(RB3LYP) =  -751.215224862     A.U. after   12 cycles
 SCF Done:  E(RB3LYP) =  -751.215444869     A.U. after   12 cycles
 SCF Done:  E(RB3LYP) =  -751.215627953     A.U. after   11 cycles
 SCF Done:  E(RB3LYP) =  -751.215812389     A.U. after   11 cycles
 SCF Done:  E(RB3LYP) =  -751.215819615     A.U. after    9 cycles
 SCF Done:  E(RB3LYP) =  -751.215835989     A.U. after   10 cycles
 SCF Done:  E(RB3LYP) =  -751.217015163     A.U. after   11 cycles
 SCF Done:  E(RB3LYP) =  -751.217029607     A.U. after   10 cycles
 SCF Done:  E(RB3LYP) =  -751.217028201     A.U. after    9 cycles
 SCF Done:  E(RB3LYP) =  -751.217029788     A.U. after    9 cycles
 SCF Done:  E(RB3LYP) =  -751.217029837     A.U. after    7 cycles
 SCF Done:  E(RB3LYP) =  -751.217029848     A.U. after    6 cycles
 Optimization completed.
    -- Stationary point found.
 Normal termination of Gaussian 16 at Fri Dec 11 18:57:19 2020.

 --------------------------------------------------------------------
 #N Geom=AllCheck Guess=TCheck SCRF=Check GenChk RB3LYP/6-31G(d) Freq
 --------------------------------------------------------------------

 Structure from the checkpoint file:  "JID_8037.chk"
 ------------------------------
 CID_82450457_JID_8037_neutraal
 ------------------------------
 Charge =  0 Multiplicity = 1

 SCF Done:  E(RB3LYP) =  -751.217029848     A.U. after    1 cycles

  Exact polarizability: 273.791  -3.841 173.839  -3.316  -7.304 101.479
 Approx polarizability: 385.448 -10.138 294.312  -9.256 -17.259 159.594

                      1                      2                      3
                      A                      A                      A
 Frequencies --     36.2843                47.6790                52.0316
 Red. masses --      3.3701                 2.9321                 4.0738
 Frc consts  --      0.0026                 0.0039                 0.0065
 IR Inten    --      0.3025                 0.2158                 2.3452

                      4                      5                      6
                      A                      A                      A
 Frequencies --     82.5278               102.4342               125.1422
 Red. masses --      2.8823                 3.6322                 3.4413
 Frc consts  --      0.0116                 0.0225                 0.0318
 IR Inten    --      0.1753                 0.2565                 0.2631

                      7                      8                      9
                      A                      A                      A
 Frequencies --    161.0084               180.2851               221.0909
 Red. masses --      3.0914                 2.2645                 1.9956
 Frc consts  --      0.0472                 0.0434                 0.0575
 IR Inten    --      1.5092                 0.3469                 1.2467

                     10                     11                     12
                      A                      A                      A
 Frequencies --    251.4898               281.0328               296.9124
 Red. masses --      2.1260                 3.1935                 2.3017
 Frc consts  --      0.0792                 0.1486                 0.1196
 IR Inten    --      2.0439                 2.5010                 1.4914

                     13                     14                     15
                      A                      A                      A
 Frequencies --    302.2813               329.4798               356.3973
 Red. masses --      1.5009                 1.8005                 3.1309
 Frc consts  --      0.0808                 0.1152                 0.2343
 IR Inten    --     42.7013                31.7110                 2.6533

                     16                     17                     18
                      A                      A                      A
 Frequencies --    373.0981               391.9254               431.5656
 Red. masses --      2.6684                 2.6077                 4.8057
 Frc consts  --      0.2188                 0.2360                 0.5273
 IR Inten    --     24.5685                10.1352                 2.3667

                     19                     20                     21
                      A                      A                      A
 Frequencies --    452.7286               463.6003               490.9355
 Red. masses --      3.1877                 3.4398                 3.4820
 Frc consts  --      0.3850                 0.4356                 0.4945
 IR Inten    --      0.5890                 0.5342                 2.1953

                     22                     23                     24
                      A                      A                      A
 Frequencies --    502.9954               540.8778               573.2880
 Red. masses --      2.9556                 4.3110                 3.8555
 Frc consts  --      0.4406                 0.7431                 0.7466
 IR Inten    --      0.4971                 6.7275                 0.2233

                     25                     26                     27
                      A                      A                      A
 Frequencies --    620.6553               633.5085               680.3101
 Red. masses --      3.3095                 3.7168                 3.5389
 Frc consts  --      0.7511                 0.8789                 0.9650
 IR Inten    --      4.5892                 5.8777                 2.6150

                     28                     29                     30
                      A                      A                      A
 Frequencies --    705.6381               719.6004               757.8855
 Red. masses --      4.2888                 4.5873                 3.9989
 Frc consts  --      1.2582                 1.3996                 1.3533
 IR Inten    --      0.1263                 4.9245                 2.7427

                     31                     32                     33
                      A                      A                      A
 Frequencies --    799.0915               802.3777               833.6967
 Red. masses --      2.1605                 1.4019                 3.5191
 Frc consts  --      0.8128                 0.5318                 1.4411
 IR Inten    --      0.6706                 2.1016                 2.3723

                     34                     35                     36
                      A                      A                      A
 Frequencies --    849.7298               858.1396               885.2071
 Red. masses --      1.5392                 1.7648                 1.6082
 Frc consts  --      0.6548                 0.7657                 0.7425
 IR Inten    --      6.7696                21.6056                 2.0617

                     37                     38                     39
                      A                      A                      A
 Frequencies --    897.3135               907.9935               930.4321
 Red. masses --      2.3708                 3.1467                 1.5807
 Frc consts  --      1.1247                 1.5285                 0.8062
 IR Inten    --      2.7597                 3.9257                 2.3476

                     40                     41                     42
                      A                      A                      A
 Frequencies --    952.3097               984.1757               985.4291
 Red. masses --      2.3849                 1.4565                 1.9665
 Frc consts  --      1.2743                 0.8312                 1.1251
 IR Inten    --      2.1595                 3.6262                16.2273

                     43                     44                     45
                      A                      A                      A
 Frequencies --    993.7364              1029.8738              1047.1352
 Red. masses --      2.2114                 4.0609                 2.1461
 Frc consts  --      1.2867                 2.5377                 1.3865
 IR Inten    --      0.1082                59.0331                 9.7478

                     46                     47                     48
                      A                      A                      A
 Frequencies --   1072.5547              1088.5150              1094.5207
 Red. masses --      3.0360                 2.0111                 1.7083
 Frc consts  --      2.0577                 1.4040                 1.2058
 IR Inten    --     22.7800                15.0755                 2.7267

                     49                     50                     51
                      A                      A                      A
 Frequencies --   1105.3517              1113.8441              1154.2051
 Red. masses --      1.6271                 1.9002                 2.1642
 Frc consts  --      1.1713                 1.3890                 1.6987
 IR Inten    --      0.0251                 1.9919                 2.1779

                     52                     53                     54
                      A                      A                      A
 Frequencies --   1167.3182              1176.2588              1203.7336
 Red. masses --      1.1873                 1.5158                 1.4890
 Frc consts  --      0.9532                 1.2356                 1.2712
 IR Inten    --      2.1605                15.5746                 5.8752

                     55                     56                     57
                      A                      A                      A
 Frequencies --   1213.5405              1232.0986              1273.3577
 Red. masses --      1.2511                 2.2380                 2.2169
 Frc consts  --      1.0856                 2.0017                 2.1179
 IR Inten    --     13.1235                 2.5876                 8.3797

                     58                     59                     60
                      A                      A                      A
 Frequencies --   1287.1608              1296.0013              1305.9628
 Red. masses --      1.2957                 1.4052                 1.7090
 Frc consts  --      1.2648                 1.3906                 1.7173
 IR Inten    --     11.7524                 7.0469                 5.8668

                     61                     62                     63
                      A                      A                      A
 Frequencies --   1312.4535              1348.5155              1368.8532
 Red. masses --      1.4036                 1.8973                 1.5675
 Frc consts  --      1.4245                 2.0329                 1.7305
 IR Inten    --      3.6511                 2.2824                24.3511

                     64                     65                     66
                      A                      A                      A
 Frequencies --   1370.2575              1377.2696              1380.7813
 Red. masses --      1.4750                 1.6679                 1.6131
 Frc consts  --      1.6317                 1.8641                 1.8120
 IR Inten    --      4.1407                12.7976                 2.7162

                     67                     68                     69
                      A                      A                      A
 Frequencies --   1391.9833              1398.2215              1404.5381
 Red. masses --      1.6209                 2.4497                 2.1360
 Frc consts  --      1.8505                 2.8217                 2.4827
 IR Inten    --      3.3935                21.1013                 0.5097

                     70                     71                     72
                      A                      A                      A
 Frequencies --   1420.7651              1436.1143              1439.2172
 Red. masses --      2.3567                 1.2696                 1.3426
 Frc consts  --      2.8028                 1.5427                 1.6385
 IR Inten    --      3.6476                 4.9381                66.6965

                     73                     74                     75
                      A                      A                      A
 Frequencies --   1459.4613              1494.8723              1502.0824
 Red. masses --      3.2808                 2.7635                 1.2566
 Frc consts  --      4.1174                 3.6385                 1.6705
 IR Inten    --     12.3229                 4.4642                 4.1956

                     76                     77                     78
                      A                      A                      A
 Frequencies --   1514.2540              1516.8936              1522.6635
 Red. masses --      1.1577                 1.0738                 1.0922
 Frc consts  --      1.5641                 1.4558                 1.4920
 IR Inten    --      5.0984                 1.3017                 4.4815

                     79                     80                     81
                      A                      A                      A
 Frequencies --   1526.4139              1532.4111              1538.1841
 Red. masses --      1.0415                 1.1198                 1.0971
 Frc consts  --      1.4297                 1.5493                 1.5294
 IR Inten    --      8.3564                 2.7837                 1.8530

                     82                     83                     84
                      A                      A                      A
 Frequencies --   1549.1319              1566.5370              1612.3692
 Red. masses --      2.1756                 1.2651                 7.2605
 Frc consts  --      3.0761                 1.8292                11.1211
 IR Inten    --     22.5816                10.9960                 5.2586

                     85                     86                     87
                      A                      A                      A
 Frequencies --   1633.5998              1683.3702              3007.3473
 Red. masses --      9.3432                 6.0471                 1.0724
 Frc consts  --     14.6905                10.0962                 5.7144
 IR Inten    --     29.4947                 5.4081                18.2856

                     88                     89                     90
                      A                      A                      A
 Frequencies --   3023.7715              3032.2238              3039.9183
 Red. masses --      1.0725                 1.0675                 1.0610
 Frc consts  --      5.7776                 5.7831                 5.7769
 IR Inten    --     11.0395                22.0133                46.9108

                     91                     92                     93
                      A                      A                      A
 Frequencies --   3041.6341              3049.9653              3058.5973
 Red. masses --      1.0619                 1.0345                 1.0690
 Frc consts  --      5.7883                 5.6701                 5.8922
 IR Inten    --     35.3880                36.5081                47.5713

                     94                     95                     96
                      A                      A                      A
 Frequencies --   3080.3908              3085.8821              3086.8697
 Red. masses --      1.1016                 1.0956                 1.1009
 Frc consts  --      6.1585                 6.1468                 6.1806
 IR Inten    --      9.1569                75.5790                48.8963

                     97                     98                     99
                      A                      A                      A
 Frequencies --   3099.4001              3100.6562              3120.5880
 Red. masses --      1.0925                 1.0917                 1.1028
 Frc consts  --      6.1832                 6.1839                 6.3272
 IR Inten    --     15.6799                13.2938                52.3618

                    100                    101                    102
                      A                      A                      A
 Frequencies --   3123.1985              3123.8797              3180.4222
 Red. masses --      1.1034                 1.0948                 1.0885
 Frc consts  --      6.3412                 6.2945                 6.4873
 IR Inten    --     35.3354                19.8249                16.2223

                    103                    104                    105
                      A                      A                      A
 Frequencies --   3193.7224              3217.0322              3737.3439
 Red. masses --      1.0883                 1.0938                 1.0664
 Frc consts  --      6.5401                 6.6693                 8.7759
 IR Inten    --     18.8722                10.8621                11.1179

 - Thermochemistry -
 -------------------
 Temperature   298.150 Kelvin.  Pressure   1.00000 Atm.
 Atom     1 has atomic number  6 and mass  12.00000

 Molecular mass:   241.14666 amu.
 Principal axes and moments of inertia in atomic units:
                           1         2         3
     Eigenvalues --  2163.546567036.157618818.62870
           X            0.99998   0.00578   0.00348
           Y           -0.00575   0.99994  -0.00897
           Z           -0.00353   0.00895   0.99995
 This molecule is an asymmetric top.
 Rotational symmetry number  1.
 Warning -- assumption of classical behavior for rotation
           may cause significant error
 Rotational temperatures (Kelvin)      0.04003     0.01231     0.00982
 Rotational constants (GHZ):           0.83416     0.25650     0.20465
 Zero-point vibrational energy     839837.2 (Joules/Mol)
                                  200.72590 (Kcal/Mol)
 Warning -- explicit consideration of  25 degrees of freedom as
           vibrations may cause significant error
 Vibrational temperatures:     52.20    68.60    74.86   118.74   147.38
          (Kelvin)            180.05   231.66   259.39   318.10   361.84
                              404.34   427.19   434.92   474.05   512.78
                              536.80   563.89   620.93   651.38   667.02
                              706.35   723.70   778.20   824.83   892.98
                              911.48   978.81  1015.26  1035.34  1090.43
                             1149.71  1154.44  1199.50  1222.57  1234.67
                             1273.62  1291.03  1306.40  1338.68  1370.16
                             1416.01  1417.81  1429.76  1481.76  1506.59
                             1543.17  1566.13  1574.77  1590.35  1602.57
                             1660.64  1679.51  1692.37  1731.90  1746.01
                             1772.72  1832.08  1851.94  1864.66  1878.99
                             1888.33  1940.21  1969.47  1971.49  1981.58
                             1986.64  2002.75  2011.73  2020.82  2044.16
                             2066.25  2070.71  2099.84  2150.79  2161.16
                             2178.67  2182.47  2190.77  2196.17  2204.80
                             2213.10  2228.86  2253.90  2319.84  2350.39
                             2421.99  4326.90  4350.53  4362.69  4373.76
                             4376.23  4388.22  4400.64  4432.00  4439.90
                             4441.32  4459.35  4461.15  4489.83  4493.59
                             4494.57  4575.92  4595.05  4628.59  5377.20

 Zero-point correction=                           0.319877 (Hartree/Particle)
 Thermal correction to Energy=                    0.335896
 Thermal correction to Enthalpy=                  0.336840
 Thermal correction to Gibbs Free Energy=         0.275934
 Sum of electronic and zero-point Energies=           -750.897153
 Sum of electronic and thermal Energies=              -750.881134
 Sum of electronic and thermal Enthalpies=            -750.880190
 Sum of electronic and thermal Free Energies=         -750.941096

                     E (Thermal)             CV                S
                      KCal/Mol        Cal/Mol-Kelvin    Cal/Mol-Kelvin
 Total                  210.778             63.138            128.188
 Electronic               0.000              0.000              0.000
 Translational            0.889              2.981             42.342
 Rotational               0.889              2.981             33.262
 Vibrational            209.001             57.176             52.585
 Vibration     1          0.594              1.982              5.452
 Vibration     2          0.595              1.978              4.911
 Vibration     3          0.596              1.977              4.739
 Vibration     4          0.600              1.961              3.830
 Vibration     5          0.605              1.947              3.407
 Vibration     6          0.610              1.928              3.019
 Vibration     7          0.622              1.890              2.538
 Vibration     8          0.629              1.866              2.325
 Vibration     9          0.648              1.809              1.950
 Vibration    10          0.663              1.760              1.720
 Vibration    11          0.681              1.709              1.527
 Vibration    12          0.691              1.679              1.434
 Vibration    13          0.694              1.669              1.404
 Vibration    14          0.712              1.617              1.263
 Vibration    15          0.732              1.562              1.138
 Vibration    16          0.745              1.527              1.067
 Vibration    17          0.759              1.487              0.993
 Vibration    18          0.793              1.401              0.854
 Vibration    19          0.811              1.355              0.788
 Vibration    20          0.821              1.331              0.756
 Vibration    21          0.847              1.270              0.681
 Vibration    22          0.858              1.243              0.651
 Vibration    23          0.896              1.160              0.563
 Vibration    24          0.930              1.089              0.498
 Vibration    25          0.981              0.988              0.415

 Optimization completed.
    -- Stationary point found.
 Normal termination of Gaussian 16 at Fri Dec 11 19:13:17 2020.

 ----------------------------------------------------------------------
 # B3LYP/6-311++G(d,p) empiricaldispersion=gd3bj scf=xqc pop=npa geom=c
 heck
 ----------------------------------------------------------------------

 --------------------------------------
 CID_82450457_JID_8037_Energie_neutraal
 --------------------------------------
 Structure from the checkpoint file:  "JID_8037.chk"
 Charge =  0 Multiplicity = 1

 SCF Done:  E(RB3LYP) =  -751.417547259     A.U. after   15 cycles
 Normal termination of Gaussian 16 at Fri Dec 11 19:19:16 2020.

 ----------------------------------------------------------------------
 # B3LYP/6-311++G(d,p) empiricaldispersion=gd3bj scf=xqc pop=npa geom=c
 heck
 ----------------------------------------------------------------------

 ------------------------------------
 CID_82450457_JID_8037_Energie_kation
 ------------------------------------
 Structure from the checkpoint file:  "JID_8037.chk"
 Charge =  1 Multiplicity = 2

 SCF Done:  E(UB3LYP) =  -751.127018056     A.U. after   25 cycles
 Normal termination of Gaussian 16 at Fri Dec 11 19:32:54 2020.
 Gaussian 16:  ES64L-G16RevA.03 25-Dec-2016

 ----------------------------------------------------------------------
 # B3LYP/6-311++G(d,p) empiricaldispersion=gd3bj scf=xqc pop=npa geom=c
 heck
 ----------------------------------------------------------------------

 -----------------------------------
 CID_82450457_JID_8037_Energie_anion
 -----------------------------------
 Structure from the checkpoint file:  "JID_8037.chk"
 Charge = -1 Multiplicity = 2

                         Standard orientation:
 ---------------------------------------------------------------------
 Center     Atomic      Atomic             Coordinates (Angstroms)
 Number     Number       Type             X           Y           Z
 ---------------------------------------------------------------------
      1          6           0        5.191292    0.356913    0.953647
      2          6           0        4.506318    0.287423   -0.421148
      3          6           0        3.098494   -0.254251   -0.335233
      4          6           0        2.003589    0.581681   -0.405818
      5          6           0        0.673893    0.091459   -0.278122
      6          6           0        0.487255   -1.309892   -0.062850
      7          6           0        1.623411   -2.159876   -0.005549
      8          6           0        2.889371   -1.646485   -0.136863
      9          7           0       -0.738908   -1.871762    0.092130
     10          6           0       -1.806472   -1.093001    0.066537
     11          6           0       -3.131245   -1.794581    0.292872
     12          6           0       -4.343648   -0.968059   -0.140034
     13          6           0       -4.228434    0.445963    0.430525
     14          6           0       -3.005234    1.161554   -0.152253
     15          6           0       -1.741029    0.319098   -0.138110
     16          6           0       -0.497735    0.903440   -0.342588
     17          6           0       -0.393377    2.397176   -0.563347
     18          8           0       -0.499486    3.133890    0.658872
     19          1           0        4.635003    1.014952    1.630174
     20          1           0        6.213888    0.740201    0.864928
     21          1           0        5.238742   -0.633509    1.419718
     22          1           0        4.488856    1.287001   -0.871263
     23          1           0        5.103401   -0.346974   -1.089411
     24          1           0        2.174489    1.643797   -0.552469
     25          1           0        1.445985   -3.219464    0.147900
     26          1           0        3.752013   -2.307038   -0.090765
     27          1           0       -3.213240   -2.019334    1.366662
     28          1           0       -3.093229   -2.763791   -0.214798
     29          1           0       -5.266933   -1.454689    0.194556
     30          1           0       -4.390429   -0.915982   -1.236979
     31          1           0       -5.128808    1.034189    0.219698
     32          1           0       -4.136525    0.387129    1.523971
     33          1           0       -3.228447    1.446268   -1.192293
     34          1           0       -2.819674    2.094880    0.388075
     35          1           0        0.531422    2.650732   -1.094760
     36          1           0       -1.219961    2.748989   -1.184446
     37          1           0        0.122987    2.732497    1.285621
 ---------------------------------------------------------------------

 SCF Done:  E(UB3LYP) =  -751.426779068     A.U. after   26 cycles

 The electronic state is 2-A.
 Alpha  occ. eigenvalues --  -19.00181 -14.13338 -10.08909 -10.05903 -10.05725
 Alpha  occ. eigenvalues --  -10.05723 -10.05669 -10.05407 -10.05221 -10.04721
 Alpha  occ. eigenvalues --  -10.04268 -10.03858 -10.03716 -10.02873 -10.02816
 Alpha  occ. eigenvalues --  -10.02277 -10.02125 -10.01815  -0.90074  -0.78949
 Alpha  occ. eigenvalues --   -0.71543  -0.70268  -0.67116  -0.65275  -0.61890
 Alpha  occ. eigenvalues --   -0.60115  -0.58807  -0.56025  -0.52623  -0.51026
 Alpha  occ. eigenvalues --   -0.48246  -0.46526  -0.44795  -0.43452  -0.39255
 Alpha  occ. eigenvalues --   -0.38132  -0.36270  -0.34949  -0.33845  -0.33661
 Alpha  occ. eigenvalues --   -0.32130  -0.31485  -0.31099  -0.30270  -0.29621
 Alpha  occ. eigenvalues --   -0.28647  -0.28483  -0.27584  -0.26705  -0.25872
 Alpha  occ. eigenvalues --   -0.25261  -0.24254  -0.24013  -0.22624  -0.22350
 Alpha  occ. eigenvalues --   -0.22131  -0.20660  -0.20402  -0.18620  -0.18274
 Alpha  occ. eigenvalues --   -0.16016  -0.15244  -0.10160  -0.09923  -0.08915
 Alpha  occ. eigenvalues --    0.04218
 Alpha virt. eigenvalues --    0.07166   0.07718   0.09147   0.09428   0.09728
 Alpha virt. eigenvalues --    0.09788   0.10130   0.11073   0.11365   0.11828
 Alpha virt. eigenvalues --    0.11939   0.12674   0.13068   0.13253   0.13674

  Beta  occ. eigenvalues --  -19.00103 -14.12922 -10.08925 -10.05906 -10.05722
  Beta  occ. eigenvalues --  -10.05705 -10.05669 -10.05465 -10.05119 -10.04732
  Beta  occ. eigenvalues --  -10.04281 -10.03934 -10.03662 -10.02773 -10.02751
  Beta  occ. eigenvalues --  -10.02071 -10.01745 -10.01622  -0.89885  -0.78421
  Beta  occ. eigenvalues --   -0.71324  -0.70046  -0.66776  -0.65071  -0.61745
  Beta  occ. eigenvalues --   -0.59918  -0.58510  -0.55816  -0.52445  -0.50935
  Beta  occ. eigenvalues --   -0.48162  -0.46165  -0.44506  -0.43321  -0.39105
  Beta  occ. eigenvalues --   -0.37949  -0.36140  -0.34845  -0.33710  -0.33546
  Beta  occ. eigenvalues --   -0.32008  -0.31351  -0.31000  -0.30127  -0.29450
  Beta  occ. eigenvalues --   -0.28508  -0.28322  -0.27215  -0.26566  -0.25752
  Beta  occ. eigenvalues --   -0.25177  -0.23949  -0.23808  -0.22525  -0.22282
  Beta  occ. eigenvalues --   -0.22005  -0.20533  -0.20327  -0.18462  -0.17194
  Beta  occ. eigenvalues --   -0.15746  -0.14000  -0.09723  -0.09077  -0.07220
  Beta virt. eigenvalues --    0.07060   0.07660   0.09029   0.09183   0.09475
  Beta virt. eigenvalues --    0.09743   0.09995   0.10188   0.11037   0.11349
  Beta virt. eigenvalues --    0.11809   0.12031   0.12711   0.13028   0.13324

 Mulliken charges and spin densities:
               1          2
     1  C   -0.347144  -0.280630
     2  C   -0.543011   0.313988
     3  C    0.730988  -0.060378
     4  C   -0.851345   0.088901
     5  C    0.637937  -0.112551
     6  C   -0.092079  -0.037604
     7  C   -0.491923   0.123997
     8  C   -0.466585   0.068802
     9  N    0.069418   0.202663
    10  C   -0.482886   0.032934
    11  C   -0.504435  -0.018745
    12  C   -0.253152   0.010037
    13  C   -0.311415   0.005218
    14  C   -0.743411  -0.053119
    15  C    0.489788   0.072159
    16  C    0.780689   0.296095
    17  C   -0.571783  -0.106693
    18  O   -0.164211   0.000315
    19  H    0.108560   0.019406
    20  H   -0.058811   0.158407
    21  H    0.098046   0.037828
    22  H    0.040251   0.104956
    23  H    0.121259   0.003441
    24  H    0.102114  -0.060538
    25  H    0.125840  -0.010575
    26  H    0.106907   0.001813
    27  H    0.122243   0.034061
    28  H    0.142759   0.000172
    29  H    0.134739   0.008774
    30  H    0.115283  -0.000655
    31  H    0.136254   0.000203
    32  H    0.121182   0.000010
    33  H    0.116308   0.008412
    34  H    0.170093   0.025633
    35  H    0.054683   0.068968
    36  H    0.164108   0.016697
    37  H    0.192743   0.037598
 Sum of Mulliken charges =  -1.00000   1.00000

 Dipole moment (field-independent basis, Debye):
    X=             -1.5276    Y=              0.9058    Z=             -0.3105  Tot=              1.8029
 Quadrupole moment (field-independent basis, Debye-Ang):
   XX=           -150.6738   YY=           -141.4555   ZZ=           -119.1008
   XY=              0.2042   XZ=              0.9140   YZ=             -1.6172

 Summary of Natural Population Analysis:

                                       Natural Population
                Natural  -----------------------------------------------
    Atom  No    Charge         Core      Valence    Rydberg      Total
 -----------------------------------------------------------------------
      C    1   -0.27991      0.99967     2.27587    0.00438     3.27991
      C    2   -0.19355      0.99961     2.18480    0.00913     3.19355
      C    3   -0.02720      0.99953     2.01507    0.01259     3.02720
      C    4   -0.07003      0.99949     2.06192    0.00863     3.07003
      C    5   -0.05314      0.99946     2.04083    0.01285     3.05314
      C    6    0.05322      0.99952     1.92821    0.01905     2.94678
      C    7   -0.03633      0.99959     2.03099    0.00576     3.03633
      C    8   -0.08526      0.99956     2.07884    0.00685     3.08526
      N    9   -0.17151      0.99966     2.65906    0.01280     3.67151
      C   10    0.11754      0.99952     1.86670    0.01624     2.88246
      C   11   -0.19929      0.99961     2.19130    0.00838     3.19929
      C   12   -0.18727      0.99964     2.18102    0.00661     3.18727
      C   13   -0.18368      0.99964     2.17733    0.00670     3.18368
      C   14   -0.20005      0.99961     2.19317    0.00726     3.20005
      C   15   -0.01614      0.99944     2.00525    0.01145     3.01614
      C   16    0.04610      0.99944     1.94360    0.01086     2.95390
      C   17   -0.02079      0.99956     2.00881    0.01242     3.02079
      O   18   -0.36952      0.99990     3.36235    0.00727     4.36952
      H   19    0.09598      0.00000     0.40256    0.00147     0.40402
      H   20    0.08908      0.00000     0.40909    0.00183     0.41092
      H   21    0.09564      0.00000     0.40260    0.00176     0.40436
      H   22    0.09404      0.00000     0.40437    0.00158     0.40596
      H   23    0.09249      0.00000     0.40553    0.00198     0.40751
      H   24    0.08614      0.00000     0.41142    0.00244     0.41386
      H   25    0.08981      0.00000     0.40482    0.00538     0.41019
      H   26    0.08339      0.00000     0.41369    0.00293     0.41661
      H   27    0.09632      0.00000     0.40171    0.00197     0.40368
      H   28    0.10434      0.00000     0.39449    0.00116     0.39566
      H   29    0.08992      0.00000     0.40878    0.00130     0.41008
      H   30    0.09047      0.00000     0.40831    0.00122     0.40953
      H   31    0.09015      0.00000     0.40865    0.00120     0.40985
      H   32    0.09126      0.00000     0.40755    0.00120     0.40874
      H   33    0.09340      0.00000     0.40519    0.00141     0.40660
      H   34    0.10898      0.00000     0.38950    0.00152     0.39102
      H   35    0.07838      0.00000     0.41966    0.00196     0.42162
      H   36    0.08571      0.00000     0.41261    0.00168     0.41429
      H   37    0.22688      0.00000     0.26999    0.00313     0.27312
 =======================================================================
   * Total *    0.00558     17.99244    46.78563    0.21635    64.99442

 Normal termination of Gaussian 16 at Fri Dec 11 19:47:38 2020.
