 Gaussian 16, Revision A.03,

 -----------------------------------------------------------
 # opt freq B3LYP/6-31G(d) empiricaldispersion=gd3bj scf=xqc
 -----------------------------------------------------------

 -------------------------------
 CID_136220716_JID_5441_neutraal
 -------------------------------
 Symbolic Z-matrix:
 Charge =  0 Multiplicity = 1

 SCF Done:  E(RB3LYP) =  -698.647421570     A.U. after   15 cycles
 SCF Done:  E(RB3LYP) =  -698.654134781     A.U. after   12 cycles
 SCF Done:  E(RB3LYP) =  -698.654849245     A.U. after   12 cycles
 SCF Done:  E(RB3LYP) =  -698.654964836     A.U. after   11 cycles
 SCF Done:  E(RB3LYP) =  -698.655004764     A.U. after   11 cycles
 SCF Done:  E(RB3LYP) =  -698.655034420     A.U. after   10 cycles
 SCF Done:  E(RB3LYP) =  -698.655046303     A.U. after   10 cycles
 SCF Done:  E(RB3LYP) =  -698.655051115     A.U. after    9 cycles
 SCF Done:  E(RB3LYP) =  -698.655054579     A.U. after    9 cycles
 SCF Done:  E(RB3LYP) =  -698.655055706     A.U. after    8 cycles
 SCF Done:  E(RB3LYP) =  -698.655056278     A.U. after    7 cycles
 SCF Done:  E(RB3LYP) =  -698.655056354     A.U. after    7 cycles
 Optimization completed.
    -- Stationary point found.
 Normal termination of Gaussian 16 at Thu Dec 10 16:08:17 2020.

 --------------------------------------------------------------------
 #N Geom=AllCheck Guess=TCheck SCRF=Check GenChk RB3LYP/6-31G(d) Freq
 --------------------------------------------------------------------

 Structure from the checkpoint file:  "JID_5441.chk"
 -------------------------------
 CID_136220716_JID_5441_neutraal
 -------------------------------
 Charge =  0 Multiplicity = 1

 SCF Done:  E(RB3LYP) =  -698.655056354     A.U. after    1 cycles

  Exact polarizability: 204.096   7.465 137.066  -0.504  -0.096  62.858
 Approx polarizability: 291.467  16.110 243.425   0.505  -0.245  99.091

                      1                      2                      3
                      A                      A                      A
 Frequencies --     42.7002                77.5105               103.5445
 Red. masses --      3.8237                 2.1689                 3.7668
 Frc consts  --      0.0041                 0.0077                 0.0238
 IR Inten    --      1.3220                 1.3174                 7.0382

                      4                      5                      6
                      A                      A                      A
 Frequencies --    149.6084               152.7264               153.8884
 Red. masses --      5.9287                 1.1224                 3.6642
 Frc consts  --      0.0782                 0.0154                 0.0511
 IR Inten    --      1.8997                 0.0377                 1.8682

                      7                      8                      9
                      A                      A                      A
 Frequencies --    179.4856               246.7272               256.6411
 Red. masses --      2.6284                 1.4137                 3.4116
 Frc consts  --      0.0499                 0.0507                 0.1324
 IR Inten    --      1.8125                 0.7292                 2.7190

                     10                     11                     12
                      A                      A                      A
 Frequencies --    279.5358               317.7218               333.8572
 Red. masses --      4.2252                 3.3121                 5.0524
 Frc consts  --      0.1945                 0.1970                 0.3318
 IR Inten    --      0.6522                 1.1467                 2.0370

                     13                     14                     15
                      A                      A                      A
 Frequencies --    351.7973               390.5949               424.4737
 Red. masses --      1.0875                 3.9993                 4.9917
 Frc consts  --      0.0793                 0.3595                 0.5299
 IR Inten    --    124.5943                 1.9493                 1.7968

                     16                     17                     18
                      A                      A                      A
 Frequencies --    454.1550               474.8306               519.7010
 Red. masses --      5.2005                 7.3624                 4.9819
 Frc consts  --      0.6320                 0.9780                 0.7928
 IR Inten    --      0.9248                 5.9895                 2.7605

                     19                     20                     21
                      A                      A                      A
 Frequencies --    560.9610               588.0654               608.7658
 Red. masses --      9.0443                 1.5940                 1.5571
 Frc consts  --      1.6768                 0.3248                 0.3400
 IR Inten    --      0.3921               293.9937                57.8197

                     22                     23                     24
                      A                      A                      A
 Frequencies --    615.3946               655.0810               680.8765
 Red. masses --      3.2264                 2.9347                 3.3377
 Frc consts  --      0.7199                 0.7420                 0.9117
 IR Inten    --     43.3521                65.3196                16.9396

                     25                     26                     27
                      A                      A                      A
 Frequencies --    703.0911               733.2516               740.0220
 Red. masses --      8.7530                 4.7108                 4.4859
 Frc consts  --      2.5494                 1.4923                 1.4474
 IR Inten    --      0.3033                50.2689                15.2621

                     28                     29                     30
                      A                      A                      A
 Frequencies --    772.0389               807.0985               824.0431
 Red. masses --      4.5977                 2.1104                 3.0699
 Frc consts  --      1.6146                 0.8100                 1.2282
 IR Inten    --      1.7276                16.6420                 0.4328

                     31                     32                     33
                      A                      A                      A
 Frequencies --    867.9793              1005.0987              1020.0808
 Red. masses --      5.3072                 2.2407                 1.7805
 Frc consts  --      2.3558                 1.3337                 1.0916
 IR Inten    --      9.5528                 0.4756                34.1438

                     34                     35                     36
                      A                      A                      A
 Frequencies --   1061.3570              1066.8900              1075.9436
 Red. masses --      1.5195                 2.3383                 2.4486
 Frc consts  --      1.0085                 1.5681                 1.6701
 IR Inten    --      1.4064                 2.3293                 4.1562

                     37                     38                     39
                      A                      A                      A
 Frequencies --   1103.2453              1114.2947              1179.1613
 Red. masses --      2.4295                 1.5837                 2.6261
 Frc consts  --      1.7422                 1.1586                 2.1514
 IR Inten    --      0.4594                 0.4800                27.6917

                     40                     41                     42
                      A                      A                      A
 Frequencies --   1192.1424              1221.9117              1291.4769
 Red. masses --      3.8246                 9.0315                 6.1261
 Frc consts  --      3.2025                 7.9449                 6.0201
 IR Inten    --      0.0995                13.8581                60.2643

                     43                     44                     45
                      A                      A                      A
 Frequencies --   1304.7915              1344.6079              1370.7146
 Red. masses --      1.1573                 2.0415                 2.5120
 Frc consts  --      1.1608                 2.1746                 2.7808
 IR Inten    --      0.1734                38.7197               143.8033

                     46                     47                     48
                      A                      A                      A
 Frequencies --   1386.2484              1412.7344              1436.6066
 Red. masses --      5.2160                 2.2971                 1.5786
 Frc consts  --      5.9057                 2.7012                 1.9195
 IR Inten    --      5.1472                18.6334                34.0955

                     49                     50                     51
                      A                      A                      A
 Frequencies --   1445.4679              1481.0586              1502.2832
 Red. masses --      1.2694                 1.8828                 1.3264
 Frc consts  --      1.5627                 2.4333                 1.7637
 IR Inten    --      4.3910                41.9719                39.2319

                     52                     53                     54
                      A                      A                      A
 Frequencies --   1511.7499              1515.7547              1521.6823
 Red. masses --      1.0456                 1.4557                 1.0387
 Frc consts  --      1.4079                 1.9705                 1.4171
 IR Inten    --      8.7185                95.7106                 6.7464

                     55                     56                     57
                      A                      A                      A
 Frequencies --   1528.2160              1536.4083              1579.0054
 Red. masses --      1.1372                 3.6631                 6.4178
 Frc consts  --      1.5647                 5.0947                 9.4277
 IR Inten    --     31.5391                19.1896               119.1841

                     58                     59                     60
                      A                      A                      A
 Frequencies --   1615.0669              1648.0974              1703.6108
 Red. masses --      7.0878                 1.7310                 2.5248
 Frc consts  --     10.8929                 2.7703                 4.3174
 IR Inten    --    259.0508                67.1398               648.2612

                     61                     62                     63
                      A                      A                      A
 Frequencies --   1820.1572              3019.4311              3040.9250
 Red. masses --      9.7988                 1.0605                 1.1004
 Frc consts  --     19.1268                 5.6966                 5.9954
 IR Inten    --    405.3726                24.5087                17.9520

                     64                     65                     66
                      A                      A                      A
 Frequencies --   3048.2204              3066.2559              3098.0617
 Red. masses --      1.0394                 1.0368                 1.0996
 Frc consts  --      5.6902                 5.7431                 6.2184
 IR Inten    --     16.2805                30.3585                13.1194

                     67                     68                     69
                      A                      A                      A
 Frequencies --   3135.2110              3146.5599              3166.3254
 Red. masses --      1.1017                 1.1026                 1.0998
 Frc consts  --      6.3804                 6.4317                 6.4965
 IR Inten    --     32.3026                20.5423                 7.7883

                     70                     71                     72
                      A                      A                      A
 Frequencies --   3565.0373              3584.5374              3673.8730
 Red. masses --      1.0479                 1.0770                 1.1003
 Frc consts  --      7.8466                 8.1534                 8.7500
 IR Inten    --     52.9509                44.3475                32.1908

 - Thermochemistry -
 -------------------
 Temperature   298.150 Kelvin.  Pressure   1.00000 Atm.
 Atom     1 has atomic number  6 and mass  12.00000

 Molecular mass:   205.09636 amu.
 Principal axes and moments of inertia in atomic units:
                           1         2         3
     Eigenvalues --  1640.728504171.468275777.14854
           X            0.99997  -0.00693  -0.00176
           Y            0.00693   0.99998   0.00047
           Z            0.00176  -0.00048   1.00000
 This molecule is an asymmetric top.
 Rotational symmetry number  1.
 Warning -- assumption of classical behavior for rotation
           may cause significant error
 Rotational temperatures (Kelvin)      0.05279     0.02076     0.01499
 Rotational constants (GHZ):           1.09996     0.43264     0.31239
 Zero-point vibrational energy     541947.0 (Joules/Mol)
                                  129.52845 (Kcal/Mol)
 Warning -- explicit consideration of  22 degrees of freedom as
           vibrations may cause significant error
 Vibrational temperatures:     61.44   111.52   148.98   215.25   219.74
          (Kelvin)            221.41   258.24   354.99   369.25   402.19
                              457.13   480.35   506.16   561.98   610.72
                              653.43   683.18   747.73   807.10   846.09
                              875.88   885.42   942.52   979.63  1011.59
                             1054.99  1064.73  1110.79  1161.23  1185.61
                             1248.83  1446.11  1467.67  1527.06  1535.02
                             1548.04  1587.32  1603.22  1696.55  1715.23
                             1758.06  1858.15  1877.30  1934.59  1972.15
                             1994.50  2032.61  2066.96  2079.71  2130.91
                             2161.45  2175.07  2180.83  2189.36  2198.76
                             2210.55  2271.84  2323.72  2371.24  2451.12
                             2618.80  4344.29  4375.21  4385.71  4411.66
                             4457.42  4510.87  4527.20  4555.64  5129.29
                             5157.35  5285.88

 Zero-point correction=                           0.206417 (Hartree/Particle)
 Thermal correction to Energy=                    0.219870
 Thermal correction to Enthalpy=                  0.220814
 Thermal correction to Gibbs Free Energy=         0.166457
 Sum of electronic and zero-point Energies=           -698.448640
 Sum of electronic and thermal Energies=              -698.435186
 Sum of electronic and thermal Enthalpies=            -698.434242
 Sum of electronic and thermal Free Energies=         -698.488599

                     E (Thermal)             CV                S
                      KCal/Mol        Cal/Mol-Kelvin    Cal/Mol-Kelvin
 Total                  137.971             51.519            114.405
 Electronic               0.000              0.000              0.000
 Translational            0.889              2.981             41.859
 Rotational               0.889              2.981             32.047
 Vibrational            136.193             45.558             40.498
 Vibration     1          0.595              1.980              5.130
 Vibration     2          0.599              1.964              3.953
 Vibration     3          0.605              1.946              3.386
 Vibration     4          0.618              1.903              2.677
 Vibration     5          0.619              1.900              2.638
 Vibration     6          0.619              1.898              2.624
 Vibration     7          0.629              1.867              2.334
 Vibration     8          0.661              1.768              1.754
 Vibration     9          0.666              1.752              1.685
 Vibration    10          0.680              1.711              1.537
 Vibration    11          0.704              1.640              1.322
 Vibration    12          0.715              1.608              1.241
 Vibration    13          0.728              1.572              1.158
 Vibration    14          0.758              1.490              0.998
 Vibration    15          0.786              1.417              0.877
 Vibration    16          0.813              1.352              0.783
 Vibration    17          0.832              1.306              0.724
 Vibration    18          0.875              1.206              0.611
 Vibration    19          0.917              1.116              0.522
 Vibration    20          0.945              1.057              0.471
 Vibration    21          0.968              1.013              0.435
 Vibration    22          0.975              0.999              0.424

 Optimization completed.
    -- Stationary point found.
 Normal termination of Gaussian 16 at Thu Dec 10 16:16:17 2020.

 ----------------------------------------------------------------------
 # B3LYP/6-311++G(d,p) empiricaldispersion=gd3bj scf=xqc pop=npa geom=c
 heck
 ----------------------------------------------------------------------

 ---------------------------------------
 CID_136220716_JID_5441_Energie_neutraal
 ---------------------------------------
 Structure from the checkpoint file:  "JID_5441.chk"
 Charge =  0 Multiplicity = 1

 SCF Done:  E(RB3LYP) =  -698.851223199     A.U. after   15 cycles
 Normal termination of Gaussian 16 at Thu Dec 10 16:19:11 2020.

 ----------------------------------------------------------------------
 # B3LYP/6-311++G(d,p) empiricaldispersion=gd3bj scf=xqc pop=npa geom=c
 heck
 ----------------------------------------------------------------------

 -------------------------------------
 CID_136220716_JID_5441_Energie_kation
 -------------------------------------
 Structure from the checkpoint file:  "JID_5441.chk"
 Charge =  1 Multiplicity = 2

 SCF Done:  E(UB3LYP) =  -698.550615152     A.U. after   25 cycles
 Normal termination of Gaussian 16 at Thu Dec 10 16:26:50 2020.
 Gaussian 16:  ES64L-G16RevA.03 25-Dec-2016

 ----------------------------------------------------------------------
 # B3LYP/6-311++G(d,p) empiricaldispersion=gd3bj scf=xqc pop=npa geom=c
 heck
 ----------------------------------------------------------------------

 ------------------------------------
 CID_136220716_JID_5441_Energie_anion
 ------------------------------------
 Structure from the checkpoint file:  "JID_5441.chk"
 Charge = -1 Multiplicity = 2

                         Standard orientation:
 ---------------------------------------------------------------------
 Center     Atomic      Atomic             Coordinates (Angstroms)
 Number     Number       Type             X           Y           Z
 ---------------------------------------------------------------------
      1          6           0       -3.554666    1.943513   -0.016138
      2          6           0       -3.372721    0.426652   -0.006230
      3          6           0       -1.928956   -0.021717   -0.003115
      4          6           0       -1.586555   -1.409660    0.005022
      5          7           0       -0.325820   -1.821076    0.005714
      6          6           0        0.644851   -0.879613   -0.000174
      7          6           0        0.296688    0.490287   -0.005561
      8          7           0       -0.981160    0.902834   -0.007126
      9          6           0        1.358462    1.510130    0.004829
     10          8           0        1.235170    2.720183    0.021841
     11          7           0        2.642922    0.925031    0.006607
     12          6           0        2.879499   -0.430059   -0.001910
     13          7           0        1.943101   -1.333150   -0.014613
     14          7           0        4.198323   -0.815596    0.056721
     15          6           0       -2.652045   -2.471340    0.013445
     16          1           0       -3.086366    2.401109    0.859545
     17          1           0       -4.620306    2.195712   -0.017429
     18          1           0       -3.087155    2.389552   -0.898239
     19          1           0       -3.878908   -0.007023    0.868869
     20          1           0       -3.879102   -0.018601   -0.875385
     21          1           0        3.407177    1.586059    0.090036
     22          1           0        4.879021   -0.233587   -0.414328
     23          1           0        4.317973   -1.807477   -0.107072
     24          1           0       -2.181816   -3.455956    0.018628
     25          1           0       -3.298562   -2.377991    0.894809
     26          1           0       -3.302218   -2.388726   -0.866295
 ---------------------------------------------------------------------

 SCF Done:  E(UB3LYP) =  -698.863212658     A.U. after   33 cycles
 SCF Done:  E(UB3LYP) =  -698.863212658     a.u. after    1 cycles

 The electronic state is 2-A.
 Alpha  occ. eigenvalues --  -18.93028 -14.23112 -14.22662 -14.16028 -14.12892
 Alpha  occ. eigenvalues --  -14.12574 -10.16162 -10.10870 -10.08175 -10.04612
 Alpha  occ. eigenvalues --  -10.04260 -10.03605 -10.03520 -10.03306 -10.02972
 Alpha  occ. eigenvalues --   -0.90291  -0.86800  -0.81311  -0.78278  -0.76040
 Alpha  occ. eigenvalues --   -0.72708  -0.65624  -0.61254  -0.57897  -0.53466
 Alpha  occ. eigenvalues --   -0.51208  -0.50192  -0.45860  -0.43392  -0.42466
 Alpha  occ. eigenvalues --   -0.39885  -0.37490  -0.35635  -0.33402  -0.32959
 Alpha  occ. eigenvalues --   -0.32266  -0.29290  -0.28816  -0.27071  -0.25930
 Alpha  occ. eigenvalues --   -0.25670  -0.25114  -0.24313  -0.24137  -0.22434
 Alpha  occ. eigenvalues --   -0.21534  -0.18077  -0.15882  -0.15612  -0.14057
 Alpha  occ. eigenvalues --   -0.12974  -0.11157  -0.07947  -0.07617   0.04913
 Alpha virt. eigenvalues --    0.06515   0.08644   0.09952   0.10071   0.11134
 Alpha virt. eigenvalues --    0.11768   0.12182   0.12670   0.13263   0.14155
 Alpha virt. eigenvalues --    0.14647   0.15153   0.15636   0.16128   0.16554

  Beta  occ. eigenvalues --  -18.92754 -14.23111 -14.22633 -14.16000 -14.12505
  Beta  occ. eigenvalues --  -14.11916 -10.16168 -10.10637 -10.08236 -10.04701
  Beta  occ. eigenvalues --  -10.04260 -10.03527 -10.03305 -10.03123 -10.03003
  Beta  occ. eigenvalues --   -0.90028  -0.86527  -0.80791  -0.78103  -0.75685
  Beta  occ. eigenvalues --   -0.71921  -0.65442  -0.60997  -0.57500  -0.53398
  Beta  occ. eigenvalues --   -0.50867  -0.50080  -0.45645  -0.43036  -0.42271
  Beta  occ. eigenvalues --   -0.39731  -0.37347  -0.35429  -0.33192  -0.32673
  Beta  occ. eigenvalues --   -0.32040  -0.29063  -0.28341  -0.26738  -0.25833
  Beta  occ. eigenvalues --   -0.25053  -0.24553  -0.24228  -0.23260  -0.22312
  Beta  occ. eigenvalues --   -0.21414  -0.17187  -0.15717  -0.14369  -0.12432
  Beta  occ. eigenvalues --   -0.12017  -0.10765  -0.07065  -0.06835
  Beta virt. eigenvalues --    0.06497   0.08598   0.09927   0.10039   0.11237
  Beta virt. eigenvalues --    0.11401   0.12158   0.12340   0.12660   0.13218
  Beta virt. eigenvalues --    0.14187   0.14608   0.15125   0.15650   0.16557

 Mulliken charges and spin densities:
               1          2
     1  C   -0.633764   0.003155
     2  C   -0.250987  -0.010787
     3  C    0.492245  -0.087913
     4  C   -0.337330   0.268263
     5  N   -0.092671   0.175236
     6  C   -0.547624  -0.053237
     7  C   -0.096509   0.088829
     8  N   -0.003693   0.315217
     9  C    0.249787   0.133496
    10  O   -0.437299   0.103876
    11  N   -0.379299  -0.004781
    12  C    0.279501   0.008198
    13  N   -0.255394   0.023715
    14  N   -0.288537   0.001346
    15  C   -0.469896  -0.013042
    16  H    0.163274  -0.000429
    17  H    0.093439  -0.000699
    18  H    0.162380  -0.000745
    19  H    0.107031   0.002959
    20  H    0.106578   0.003190
    21  H    0.308382   0.002729
    22  H    0.211425   0.001010
    23  H    0.262305   0.004063
    24  H    0.131743  -0.001881
    25  H    0.112869   0.019231
    26  H    0.112045   0.019001
 Sum of Mulliken charges =  -1.00000   1.00000

 Dipole moment (field-independent basis, Debye):
    X=              2.8228    Y=             -1.4091    Z=             -0.8247  Tot=              3.2610
 Quadrupole moment (field-independent basis, Debye-Ang):
   XX=            -90.2280   YY=           -126.1607   ZZ=            -94.2164
   XY=             -0.9029   XZ=             -4.4852   YZ=              0.5855

 Summary of Natural Population Analysis:

                                       Natural Population
                Natural  -----------------------------------------------
    Atom  No    Charge         Core      Valence    Rydberg      Total
 -----------------------------------------------------------------------
      C    1   -0.28375      0.99967     2.27907    0.00501     3.28375
      C    2   -0.19964      0.99962     2.19416    0.00586     3.19964
      C    3    0.06315      0.99953     1.92277    0.01455     2.93685
      C    4    0.16494      0.99953     1.82178    0.01374     2.83506
      N    5   -0.19601      0.99965     2.68117    0.01519     3.69601
      C    6    0.16685      0.99949     1.81756    0.01610     2.83315
      C    7    0.01960      0.99945     1.96931    0.01163     2.98040
      N    8   -0.12150      0.99964     2.60917    0.01269     3.62150
      C    9    0.35805      0.99964     1.61980    0.02251     2.64195
      O   10   -0.29576      0.99987     3.28912    0.00676     4.29576
      N   11   -0.31757      0.99964     2.80778    0.01015     3.81757
      C   12    0.30041      0.99965     1.68356    0.01638     2.69959
      N   13   -0.28740      0.99963     2.77320    0.01457     3.78740
      N   14   -0.40732      0.99971     2.89869    0.00892     3.90732
      C   15   -0.30198      0.99965     2.29824    0.00408     3.30198
      H   16    0.10379      0.00000     0.39523    0.00098     0.39621
      H   17    0.08379      0.00000     0.41525    0.00096     0.41621
      H   18    0.10350      0.00000     0.39552    0.00098     0.39650
      H   19    0.09213      0.00000     0.40645    0.00141     0.40787
      H   20    0.09202      0.00000     0.40656    0.00142     0.40798
      H   21    0.19100      0.00000     0.30672    0.00229     0.30900
      H   22    0.18095      0.00000     0.31753    0.00153     0.31905
      H   23    0.19445      0.00000     0.30406    0.00149     0.30555
      H   24    0.10268      0.00000     0.39434    0.00299     0.39732
      H   25    0.09687      0.00000     0.40207    0.00105     0.40313
      H   26    0.09676      0.00000     0.40218    0.00106     0.40324
 =======================================================================
   * Total *    0.00000     14.99439    38.81130    0.19431    54.00000

 Normal termination of Gaussian 16 at Thu Dec 10 16:37:54 2020.
