 Gaussian 16, Revision A.03,

 -----------------------------------------------------------
 # opt freq B3LYP/6-31G(d) empiricaldispersion=gd3bj scf=xqc
 -----------------------------------------------------------

 ------------------------------
 CID_82599067_JID_3791_neutraal
 ------------------------------
 Symbolic Z-matrix:
 Charge =  0 Multiplicity = 1

 SCF Done:  E(RB3LYP) =  -573.007025872     A.U. after   15 cycles
 SCF Done:  E(RB3LYP) =  -573.011561290     A.U. after   13 cycles
 SCF Done:  E(RB3LYP) =  -573.012655500     A.U. after   12 cycles
 SCF Done:  E(RB3LYP) =  -573.013636549     A.U. after   13 cycles
 SCF Done:  E(RB3LYP) =  -573.014019647     A.U. after   12 cycles
 SCF Done:  E(RB3LYP) =  -573.014191331     A.U. after   12 cycles
 SCF Done:  E(RB3LYP) =  -573.014258695     A.U. after   11 cycles
 SCF Done:  E(RB3LYP) =  -573.014282955     A.U. after   10 cycles
 SCF Done:  E(RB3LYP) =  -573.014294791     A.U. after   10 cycles
 SCF Done:  E(RB3LYP) =  -573.014300473     A.U. after    9 cycles
 SCF Done:  E(RB3LYP) =  -573.014302529     A.U. after    9 cycles
 SCF Done:  E(RB3LYP) =  -573.014303540     A.U. after    8 cycles
 SCF Done:  E(RB3LYP) =  -573.014303652     A.U. after    7 cycles
 Optimization completed.
    -- Stationary point found.
 Normal termination of Gaussian 16 at Mon Dec 14 13:08:55 2020.

 --------------------------------------------------------------------
 #N Geom=AllCheck Guess=TCheck SCRF=Check GenChk RB3LYP/6-31G(d) Freq
 --------------------------------------------------------------------

 Structure from the checkpoint file:  "JID_3791.chk"
 ------------------------------
 CID_82599067_JID_3791_neutraal
 ------------------------------
 Charge =  0 Multiplicity = 1

 SCF Done:  E(RB3LYP) =  -573.014303652     A.U. after    1 cycles

  Exact polarizability: 164.968   3.266 114.917  -4.003  -8.836  68.840
 Approx polarizability: 247.937   0.798 204.163  -7.444 -23.361 102.242

                      1                      2                      3
                      A                      A                      A
 Frequencies --     29.8032                92.2200               136.2761
 Red. masses --      3.8999                 4.1216                 3.2313
 Frc consts  --      0.0020                 0.0207                 0.0354
 IR Inten    --      0.1019                 0.0064                 2.3601

                      4                      5                      6
                      A                      A                      A
 Frequencies --    177.7544               207.2868               236.9999
 Red. masses --      3.2567                 3.8212                 1.1215
 Frc consts  --      0.0606                 0.0967                 0.0371
 IR Inten    --      2.2509                 5.2342                21.8527

                      7                      8                      9
                      A                      A                      A
 Frequencies --    248.4194               272.1175               287.4718
 Red. masses --      4.1815                 3.0858                 1.4287
 Frc consts  --      0.1520                 0.1346                 0.0696
 IR Inten    --      3.5610                 0.0966                 9.7318

                     10                     11                     12
                      A                      A                      A
 Frequencies --    300.5731               415.1491               422.5633
 Red. masses --      1.9956                 4.7090                 3.9781
 Frc consts  --      0.1062                 0.4782                 0.4185
 IR Inten    --     14.9250                 5.2304                 3.5255

                     13                     14                     15
                      A                      A                      A
 Frequencies --    445.6969               488.2877               590.8872
 Red. masses --      3.2910                 3.5163                 5.3886
 Frc consts  --      0.3852                 0.4940                 1.1085
 IR Inten    --      3.4097                 1.8844                 3.4534

                     16                     17                     18
                      A                      A                      A
 Frequencies --    607.0687               656.0853               680.1013
 Red. masses --      5.7577                 3.4185                 2.7904
 Frc consts  --      1.2502                 0.8670                 0.7604
 IR Inten    --      8.1665                 1.2993                 4.3967

                     19                     20                     21
                      A                      A                      A
 Frequencies --    733.3079               766.4229               801.5083
 Red. masses --      4.6671                 4.4043                 5.5742
 Frc consts  --      1.4787                 1.5243                 2.1098
 IR Inten    --      4.3842                 5.3055                11.0953

                     22                     23                     24
                      A                      A                      A
 Frequencies --    846.1268               865.2253               872.0435
 Red. masses --      1.4923                 1.2898                 2.7113
 Frc consts  --      0.6295                 0.5689                 1.2148
 IR Inten    --     24.8960                83.4389                 8.4168

                     25                     26                     27
                      A                      A                      A
 Frequencies --    879.0340               890.4062               904.7429
 Red. masses --      1.3525                 8.9867                 1.4656
 Frc consts  --      0.6158                 4.1979                 0.7068
 IR Inten    --      3.1890                38.5518                13.9802

                     28                     29                     30
                      A                      A                      A
 Frequencies --    943.5125               958.5074               968.4232
 Red. masses --      5.3678                 1.9013                 2.6997
 Frc consts  --      2.8154                 1.0292                 1.4917
 IR Inten    --      3.2136                22.3072                 4.2170

                     31                     32                     33
                      A                      A                      A
 Frequencies --    987.2104              1029.7413              1047.3044
 Red. masses --      1.3326                 1.5793                 1.6390
 Frc consts  --      0.7652                 0.9866                 1.0592
 IR Inten    --      3.1675                 8.9824                 5.3747

                     34                     35                     36
                      A                      A                      A
 Frequencies --   1078.8896              1142.5706              1167.8428
 Red. masses --      1.7457                 2.2009                 1.5018
 Frc consts  --      1.1972                 1.6928                 1.2068
 IR Inten    --      6.6818                 7.0146                22.1243

                     37                     38                     39
                      A                      A                      A
 Frequencies --   1178.4828              1218.1816              1252.4808
 Red. masses --      1.5003                 1.4954                 1.5090
 Frc consts  --      1.2276                 1.3074                 1.3947
 IR Inten    --      5.3155                19.3335                 0.4046

                     40                     41                     42
                      A                      A                      A
 Frequencies --   1268.1750              1302.2448              1314.8455
 Red. masses --      2.8892                 2.4835                 2.0038
 Frc consts  --      2.7377                 2.4815                 2.0410
 IR Inten    --     14.8124                 1.4430                 9.8986

                     43                     44                     45
                      A                      A                      A
 Frequencies --   1345.6503              1360.7602              1375.9101
 Red. masses --      1.7033                 1.4536                 1.8582
 Frc consts  --      1.8172                 1.5858                 2.0726
 IR Inten    --      4.1587                 2.9302                 2.5538

                     46                     47                     48
                      A                      A                      A
 Frequencies --   1419.0324              1425.6421              1446.0415
 Red. masses --      2.2702                 1.2664                 1.3269
 Frc consts  --      2.6934                 1.5165                 1.6347
 IR Inten    --     12.6272                 9.3424                13.1135

                     49                     50                     51
                      A                      A                      A
 Frequencies --   1486.1551              1498.2179              1524.0006
 Red. masses --      3.1848                 3.5321                 1.0589
 Frc consts  --      4.1444                 4.6712                 1.4490
 IR Inten    --     11.9413                 1.1495                 7.7691

                     52                     53                     54
                      A                      A                      A
 Frequencies --   1529.5660              1540.5484              1578.3941
 Red. masses --      1.0719                 1.0784                 4.2770
 Frc consts  --      1.4776                 1.5079                 6.2780
 IR Inten    --      0.8018                 3.6440                48.8588

                     55                     56                     57
                      A                      A                      A
 Frequencies --   1647.4990              1677.7264              1697.4575
 Red. masses --      7.5497                 6.7252                 1.0889
 Frc consts  --     12.0734                11.1532                 1.8486
 IR Inten    --      2.1412                11.6300                30.6274

                     58                     59                     60
                      A                      A                      A
 Frequencies --   2958.4157              3034.7193              3044.2790
 Red. masses --      1.0736                 1.0833                 1.0396
 Frc consts  --      5.5361                 5.8779                 5.6767
 IR Inten    --     95.1673                28.6969                39.8333

                     61                     62                     63
                      A                      A                      A
 Frequencies --   3088.3639              3112.7856              3130.5933
 Red. masses --      1.0895                 1.0980                 1.1026
 Frc consts  --      6.1228                 6.2681                 6.3666
 IR Inten    --     29.3357                35.9707                21.7435

                     64                     65                     66
                      A                      A                      A
 Frequencies --   3189.8353              3220.7956              3233.7815
 Red. masses --      1.0906                 1.0890                 1.0944
 Frc consts  --      6.5379                 6.6559                 6.7427
 IR Inten    --     11.9101                 2.9809                 5.8195

                     67                     68                     69
                      A                      A                      A
 Frequencies --   3255.0539              3480.8599              3563.4258
 Red. masses --      1.0957                 1.0499                 1.0927
 Frc consts  --      6.8398                 7.4950                 8.1750
 IR Inten    --      5.3239                 0.3797                 0.0861

 - Thermochemistry -
 -------------------
 Temperature   298.150 Kelvin.  Pressure   1.00000 Atm.
 Atom     1 has atomic number  6 and mass  12.00000

 Molecular mass:   176.09496 amu.
 Principal axes and moments of inertia in atomic units:
                           1         2         3
     Eigenvalues --   851.464024155.978384551.53075
           X            0.99999   0.00306  -0.00191
           Y           -0.00305   0.99998   0.00530
           Z            0.00193  -0.00529   0.99998
 This molecule is an asymmetric top.
 Rotational symmetry number  1.
 Warning -- assumption of classical behavior for rotation
           may cause significant error
 Rotational temperatures (Kelvin)      0.10172     0.02084     0.01903
 Rotational constants (GHZ):           2.11957     0.43425     0.39651
 Zero-point vibrational energy     547755.1 (Joules/Mol)
                                  130.91661 (Kcal/Mol)
 Warning -- explicit consideration of  16 degrees of freedom as
           vibrations may cause significant error
 Vibrational temperatures:     42.88   132.68   196.07   255.75   298.24
          (Kelvin)            340.99   357.42   391.52   413.61   432.46
                              597.31   607.97   641.26   702.54   850.15
                              873.44   943.96   978.51  1055.07  1102.71
                             1153.19  1217.39  1244.87  1254.68  1264.73
                             1281.10  1301.72  1357.50  1379.08  1393.34
                             1420.38  1481.57  1506.84  1552.28  1643.90
                             1680.27  1695.57  1752.69  1802.04  1824.62
                             1873.64  1891.77  1936.09  1957.83  1979.63
                             2041.67  2051.18  2080.53  2138.25  2155.60
                             2192.70  2200.70  2216.51  2270.96  2370.38
                             2413.87  2442.26  4256.50  4366.28  4380.04
                             4443.47  4478.60  4504.23  4589.46  4634.01
                             4652.69  4683.30  5008.18  5126.97

 Zero-point correction=                           0.208629 (Hartree/Particle)
 Thermal correction to Energy=                    0.219948
 Thermal correction to Enthalpy=                  0.220892
 Thermal correction to Gibbs Free Energy=         0.170996
 Sum of electronic and zero-point Energies=           -572.805675
 Sum of electronic and thermal Energies=              -572.794356
 Sum of electronic and thermal Enthalpies=            -572.793412
 Sum of electronic and thermal Free Energies=         -572.843307

                     E (Thermal)             CV                S
                      KCal/Mol        Cal/Mol-Kelvin    Cal/Mol-Kelvin
 Total                  138.019             44.181            105.014
 Electronic               0.000              0.000              0.000
 Translational            0.889              2.981             41.405
 Rotational               0.889              2.981             31.155
 Vibrational            136.242             38.219             32.455
 Vibration     1          0.594              1.984              5.842
 Vibration     2          0.602              1.955              3.612
 Vibration     3          0.614              1.917              2.856
 Vibration     4          0.628              1.870              2.352
 Vibration     5          0.641              1.829              2.067
 Vibration     6          0.656              1.784              1.825
 Vibration     7          0.662              1.765              1.742
 Vibration     8          0.675              1.725              1.583
 Vibration     9          0.685              1.697              1.489
 Vibration    10          0.693              1.673              1.414
 Vibration    11          0.779              1.437              0.909
 Vibration    12          0.785              1.421              0.883
 Vibration    13          0.805              1.370              0.809
 Vibration    14          0.844              1.276              0.688
 Vibration    15          0.948              1.051              0.466
 Vibration    16          0.966              1.017              0.438

 Optimization completed.
    -- Stationary point found.
 Normal termination of Gaussian 16 at Mon Dec 14 13:14:47 2020.

 ----------------------------------------------------------------------
 # B3LYP/6-311++G(d,p) empiricaldispersion=gd3bj scf=xqc pop=npa geom=c
 heck
 ----------------------------------------------------------------------

 --------------------------------------
 CID_82599067_JID_3791_Energie_neutraal
 --------------------------------------
 Structure from the checkpoint file:  "JID_3791.chk"
 Charge =  0 Multiplicity = 1

 SCF Done:  E(RB3LYP) =  -573.171637541     A.U. after   15 cycles
 Normal termination of Gaussian 16 at Mon Dec 14 13:16:57 2020.

 ----------------------------------------------------------------------
 # B3LYP/6-311++G(d,p) empiricaldispersion=gd3bj scf=xqc pop=npa geom=c
 heck
 ----------------------------------------------------------------------

 ------------------------------------
 CID_82599067_JID_3791_Energie_kation
 ------------------------------------
 Structure from the checkpoint file:  "JID_3791.chk"
 Charge =  1 Multiplicity = 2

 SCF Done:  E(UB3LYP) =  -572.864056671     A.U. after   27 cycles
 Normal termination of Gaussian 16 at Mon Dec 14 13:21:58 2020.
 Gaussian 16:  ES64L-G16RevA.03 25-Dec-2016

 ----------------------------------------------------------------------
 # B3LYP/6-311++G(d,p) empiricaldispersion=gd3bj scf=xqc pop=npa geom=c
 heck
 ----------------------------------------------------------------------

 -----------------------------------
 CID_82599067_JID_3791_Energie_anion
 -----------------------------------
 Structure from the checkpoint file:  "JID_3791.chk"
 Charge = -1 Multiplicity = 2

                         Standard orientation:
 ---------------------------------------------------------------------
 Center     Atomic      Atomic             Coordinates (Angstroms)
 Number     Number       Type             X           Y           Z
 ---------------------------------------------------------------------
      1          6           0        2.730115   -0.920197   -1.399047
      2          6           0        2.109567   -0.874005    0.007942
      3          6           0        3.033548   -0.146519    1.010040
      4          7           0        3.440612    1.184122    0.540885
      5          6           0        0.692982   -0.324498   -0.025157
      6          6           0       -0.380232   -1.177004    0.216798
      7          6           0       -1.683466   -0.661106    0.159855
      8          6           0       -1.887888    0.691572   -0.134434
      9          6           0       -0.835841    1.573751   -0.378855
     10          6           0        0.446387    1.042097   -0.322176
     11          8           0       -3.215973    0.969219   -0.135710
     12          7           0       -3.917899   -0.220329    0.163540
     13          6           0       -3.018836   -1.152904    0.332061
     14          1           0        2.797086    0.083315   -1.831762
     15          1           0        2.117684   -1.529216   -2.071208
     16          1           0        3.738476   -1.352817   -1.370527
     17          1           0        2.039769   -1.908497    0.370219
     18          1           0        2.492137   -0.017038    1.953438
     19          1           0        3.891104   -0.810325    1.220377
     20          1           0        3.855646    1.706888    1.308962
     21          1           0        4.167322    1.093714   -0.166176
     22          1           0       -0.208743   -2.225704    0.444871
     23          1           0       -1.013569    2.620377   -0.600046
     24          1           0        1.303029    1.687793   -0.478035
     25          1           0       -3.349161   -2.155918    0.572428
 ---------------------------------------------------------------------

 SCF Done:  E(UB3LYP) =  -573.167813983     A.U. after   33 cycles
 SCF Done:  E(UB3LYP) =  -573.167813983     a.u. after    1 cycles

 The electronic state is 2-A.
 Alpha  occ. eigenvalues --  -19.06944 -14.22653 -14.18045 -10.10535 -10.08042
 Alpha  occ. eigenvalues --  -10.08026 -10.06599 -10.05533 -10.05528 -10.05178
 Alpha  occ. eigenvalues --  -10.04989 -10.04916 -10.04032  -1.00403  -0.77427
 Alpha  occ. eigenvalues --   -0.74579  -0.73767  -0.67791  -0.63069  -0.61370
 Alpha  occ. eigenvalues --   -0.56173  -0.51371  -0.49931  -0.47630  -0.44912
 Alpha  occ. eigenvalues --   -0.39958  -0.38921  -0.37403  -0.36021  -0.34287
 Alpha  occ. eigenvalues --   -0.32453  -0.31972  -0.30784  -0.30494  -0.29345
 Alpha  occ. eigenvalues --   -0.28706  -0.26901  -0.23922  -0.23444  -0.22678
 Alpha  occ. eigenvalues --   -0.22161  -0.21479  -0.19540  -0.18427  -0.13360
 Alpha  occ. eigenvalues --   -0.12732  -0.11552   0.04550
 Alpha virt. eigenvalues --    0.06271   0.08156   0.08832   0.09033   0.10146
 Alpha virt. eigenvalues --    0.10661   0.11290   0.11370   0.12384   0.13200
 Alpha virt. eigenvalues --    0.13361   0.14149   0.14315   0.15049   0.15647

  Beta  occ. eigenvalues --  -19.06868 -14.22288 -14.17993 -10.10560 -10.08021
  Beta  occ. eigenvalues --  -10.07967 -10.06596 -10.05580 -10.05510 -10.05163
  Beta  occ. eigenvalues --  -10.04808 -10.04806 -10.03870  -1.00178  -0.77349
  Beta  occ. eigenvalues --   -0.74186  -0.73577  -0.67726  -0.62729  -0.61184
  Beta  occ. eigenvalues --   -0.56097  -0.51088  -0.49710  -0.47462  -0.44817
  Beta  occ. eigenvalues --   -0.39841  -0.38821  -0.37314  -0.35873  -0.33691
  Beta  occ. eigenvalues --   -0.32347  -0.31861  -0.30718  -0.30426  -0.29286
  Beta  occ. eigenvalues --   -0.28616  -0.26817  -0.23805  -0.23252  -0.22626
  Beta  occ. eigenvalues --   -0.21750  -0.21360  -0.18642  -0.17980  -0.13256
  Beta  occ. eigenvalues --   -0.11546  -0.10957
  Beta virt. eigenvalues --    0.07207   0.08508   0.08808   0.09174   0.09262
  Beta virt. eigenvalues --    0.10277   0.10931   0.11424   0.11620   0.12566
  Beta virt. eigenvalues --    0.13489   0.13614   0.14452   0.14609   0.15076

 Mulliken charges and spin densities:
               1          2
     1  C    0.113124  -0.828532
     2  C   -1.149176   1.416893
     3  C    0.795304  -1.498638
     4  N   -0.462140   0.078059
     5  C    1.374105  -0.389710
     6  C   -0.556916  -0.339214
     7  C    0.751316   0.054334
     8  C   -0.516273   0.001702
     9  C   -0.312354   0.043592
    10  C   -0.755442   0.312023
    11  O    0.035184   0.013040
    12  N   -0.301969   0.159975
    13  C    0.018516  -0.039884
    14  H    0.113507   0.034573
    15  H    0.069225   0.062582
    16  H   -0.299771   0.441693
    17  H    0.155767   0.014227
    18  H    0.045892   0.109194
    19  H   -0.458902   0.600412
    20  H   -0.132455   0.374600
    21  H   -0.153240   0.376259
    22  H    0.037886   0.059144
    23  H    0.120569   0.016701
    24  H    0.316890  -0.073440
    25  H    0.151350   0.000416
 Sum of Mulliken charges =  -1.00000   1.00000

 Dipole moment (field-independent basis, Debye):
    X=             -2.6983    Y=             -1.9142    Z=             -0.5300  Tot=              3.3506
 Quadrupole moment (field-independent basis, Debye-Ang):
   XX=           -168.0450   YY=            -94.1380   ZZ=            -95.0162
   XY=              0.7586   XZ=             -4.2063   YZ=             -3.2986

 Summary of Natural Population Analysis:

                                       Natural Population
                Natural  -----------------------------------------------
    Atom  No    Charge         Core      Valence    Rydberg      Total
 -----------------------------------------------------------------------
      C    1   -0.28508      0.99965     2.27969    0.00575     3.28508
      C    2   -0.11759      0.99957     2.10595    0.01207     3.11759
      C    3   -0.08271      0.99961     2.07064    0.01246     3.08271
      N    4   -0.42731      0.99977     2.91548    0.01206     3.92731
      C    5   -0.03247      0.99950     2.02211    0.01086     3.03247
      C    6   -0.05893      0.99949     2.05232    0.00712     3.05893
      C    7   -0.08094      0.99947     2.07298    0.00849     3.08094
      C    8    0.15270      0.99937     1.83339    0.01454     2.84730
      C    9   -0.11098      0.99952     2.10235    0.00911     3.11098
      C   10   -0.06551      0.99953     2.05781    0.00817     3.06551
      O   11   -0.17712      0.99986     3.16705    0.01022     4.17712
      N   12   -0.02908      0.99970     2.51603    0.01335     3.52908
      C   13   -0.00047      0.99962     1.98701    0.01385     3.00047
      H   14    0.10016      0.00000     0.39871    0.00113     0.39984
      H   15    0.10018      0.00000     0.39905    0.00077     0.39982
      H   16    0.09580      0.00000     0.40323    0.00097     0.40420
      H   17    0.09442      0.00000     0.40369    0.00189     0.40558
      H   18    0.09259      0.00000     0.40626    0.00115     0.40741
      H   19    0.07948      0.00000     0.41833    0.00219     0.42052
      H   20    0.17802      0.00000     0.31947    0.00251     0.32198
      H   21    0.17522      0.00000     0.32153    0.00324     0.32478
      H   22    0.09251      0.00000     0.40609    0.00139     0.40749
      H   23    0.09928      0.00000     0.39939    0.00133     0.40072
      H   24    0.11183      0.00000     0.38679    0.00137     0.38817
      H   25    0.09600      0.00000     0.40313    0.00087     0.40400
 =======================================================================
   * Total *   -0.00000     12.99466    33.84849    0.15685    47.00000

 Normal termination of Gaussian 16 at Mon Dec 14 13:28:25 2020.
