 Gaussian 16, Revision A.03,

 -----------------------------------------------------------
 # opt freq B3LYP/6-31G(d) empiricaldispersion=gd3bj scf=xqc
 -----------------------------------------------------------

 ------------------------------
 CID_25555485_JID_2581_neutraal
 ------------------------------
 Symbolic Z-matrix:
 Charge =  0 Multiplicity = 1

 SCF Done:  E(RB3LYP) =  -610.315274734     A.U. after   15 cycles
 SCF Done:  E(RB3LYP) =  -610.319107814     A.U. after   12 cycles
 SCF Done:  E(RB3LYP) =  -610.318927451     A.U. after   12 cycles
 SCF Done:  E(RB3LYP) =  -610.319052713     A.U. after   12 cycles
 SCF Done:  E(RB3LYP) =  -610.319445523     A.U. after    9 cycles
 SCF Done:  E(RB3LYP) =  -610.319531436     A.U. after   11 cycles
 SCF Done:  E(RB3LYP) =  -610.319554364     A.U. after   11 cycles
 SCF Done:  E(RB3LYP) =  -610.319632283     A.U. after   11 cycles
 SCF Done:  E(RB3LYP) =  -610.319643737     A.U. after   10 cycles
 SCF Done:  E(RB3LYP) =  -610.319653639     A.U. after   10 cycles
 SCF Done:  E(RB3LYP) =  -610.319659311     A.U. after   11 cycles
 SCF Done:  E(RB3LYP) =  -610.319660942     A.U. after    9 cycles
 SCF Done:  E(RB3LYP) =  -610.319661370     A.U. after    8 cycles
 SCF Done:  E(RB3LYP) =  -610.319661470     A.U. after    7 cycles
 Optimization completed.
    -- Stationary point found.
 Normal termination of Gaussian 16 at Wed Dec  9 17:50:09 2020.

 --------------------------------------------------------------------
 #N Geom=AllCheck Guess=TCheck SCRF=Check GenChk RB3LYP/6-31G(d) Freq
 --------------------------------------------------------------------

 Structure from the checkpoint file:  "JID_2581.chk"
 ------------------------------
 CID_25555485_JID_2581_neutraal
 ------------------------------
 Charge =  0 Multiplicity = 1

 SCF Done:  E(RB3LYP) =  -610.319661470     A.U. after    1 cycles

  Exact polarizability: 108.208   0.752 100.636   1.323   1.019  75.161
 Approx polarizability: 134.677   5.781 162.651   0.964   2.672 107.532

                      1                      2                      3
                      A                      A                      A
 Frequencies --     26.0112                37.9562                83.6189
 Red. masses --      4.4455                 4.5470                 4.0774
 Frc consts  --      0.0018                 0.0039                 0.0168
 IR Inten    --      0.8524                 0.5501                 0.6700

                      4                      5                      6
                      A                      A                      A
 Frequencies --    107.8905               133.5066               168.1941
 Red. masses --      3.0960                 1.2399                 3.6956
 Frc consts  --      0.0212                 0.0130                 0.0616
 IR Inten    --      0.5762                 0.5740                 2.6514

                      7                      8                      9
                      A                      A                      A
 Frequencies --    178.6644               206.8493               236.2456
 Red. masses --      4.3982                 2.2777                 3.0161
 Frc consts  --      0.0827                 0.0574                 0.0992
 IR Inten    --      1.9527                 1.1247                 3.1206

                     10                     11                     12
                      A                      A                      A
 Frequencies --    261.2855               291.8332               300.2590
 Red. masses --      1.5451                 2.3615                 1.2436
 Frc consts  --      0.0622                 0.1185                 0.0661
 IR Inten    --      1.5576                12.0307                 0.0367

                     13                     14                     15
                      A                      A                      A
 Frequencies --    302.3129               354.6999               384.8120
 Red. masses --      2.1629                 3.2937                 2.2850
 Frc consts  --      0.1165                 0.2441                 0.1994
 IR Inten    --      1.1270                14.4593                20.3861

                     16                     17                     18
                      A                      A                      A
 Frequencies --    398.8483               423.8701               448.9727
 Red. masses --      2.0171                 1.6415                 2.8420
 Frc consts  --      0.1891                 0.1738                 0.3375
 IR Inten    --     25.9941                46.6610                 5.5260

                     19                     20                     21
                      A                      A                      A
 Frequencies --    519.0409               573.6793               608.9662
 Red. masses --      4.0365                 3.1239                 3.3982
 Frc consts  --      0.6407                 0.6057                 0.7425
 IR Inten    --     13.5760                 0.6820                24.6648

                     22                     23                     24
                      A                      A                      A
 Frequencies --    689.8913               709.5327               783.7785
 Red. masses --      3.8538                 3.3211                 3.2389
 Frc consts  --      1.0807                 0.9851                 1.1723
 IR Inten    --     10.0417                19.6275                23.9377

                     25                     26                     27
                      A                      A                      A
 Frequencies --    851.0431               880.2205               898.7924
 Red. masses --      1.9012                 1.6447                 4.1819
 Frc consts  --      0.8113                 0.7508                 1.9904
 IR Inten    --     46.4048                22.1956                38.5440

                     28                     29                     30
                      A                      A                      A
 Frequencies --    916.1387               937.1350               957.7484
 Red. masses --      3.0734                 1.7704                 2.2434
 Frc consts  --      1.5198                 0.9160                 1.2124
 IR Inten    --     38.8687                13.2887                36.3778

                     31                     32                     33
                      A                      A                      A
 Frequencies --    961.0818              1021.1591              1038.2458
 Red. masses --      2.1582                 4.3574                 1.4106
 Frc consts  --      1.1745                 2.6771                 0.8959
 IR Inten    --     20.4492                23.0280                15.5004

                     34                     35                     36
                      A                      A                      A
 Frequencies --   1067.5664              1149.6200              1185.5993
 Red. masses --      1.9824                 3.2946                 1.2782
 Frc consts  --      1.3312                 2.5654                 1.0586
 IR Inten    --      1.1656                15.4646                 1.2413

                     37                     38                     39
                      A                      A                      A
 Frequencies --   1195.3092              1212.1073              1223.2016
 Red. masses --      3.0916                 1.7007                 1.6250
 Frc consts  --      2.6025                 1.4721                 1.4325
 IR Inten    --     51.3680                57.5561                42.4375

                     40                     41                     42
                      A                      A                      A
 Frequencies --   1250.4084              1275.5666              1313.1594
 Red. masses --      2.9954                 3.0814                 1.3628
 Frc consts  --      2.7594                 2.9539                 1.3845
 IR Inten    --    275.1066                 7.6661                27.1917

                     43                     44                     45
                      A                      A                      A
 Frequencies --   1367.2424              1388.1627              1394.4648
 Red. masses --      1.2483                 1.4944                 1.2669
 Frc consts  --      1.3748                 1.6967                 1.4515
 IR Inten    --     54.3734                47.6769                16.5413

                     46                     47                     48
                      A                      A                      A
 Frequencies --   1422.3547              1443.2689              1490.4865
 Red. masses --      1.2342                 1.2288                 1.1773
 Frc consts  --      1.4711                 1.5081                 1.5410
 IR Inten    --     11.4660                 9.2726                 8.3751

                     49                     50                     51
                      A                      A                      A
 Frequencies --   1493.1910              1512.6808              1516.1628
 Red. masses --      1.1018                 1.0481                 1.0526
 Frc consts  --      1.4473                 1.4130                 1.4256
 IR Inten    --      4.5838                 5.9764                 1.0185

                     52                     53                     54
                      A                      A                      A
 Frequencies --   1522.2168              1524.6091              1536.6354
 Red. masses --      1.0591                 1.0474                 1.0595
 Frc consts  --      1.4459                 1.4345                 1.4739
 IR Inten    --      3.8140                 7.5954                20.9372

                     55                     56                     57
                      A                      A                      A
 Frequencies --   1539.8858              1561.3573              1745.7930
 Red. masses --      1.0514                 1.2077                 6.8630
 Frc consts  --      1.4689                 1.7346                12.3240
 IR Inten    --      9.6882                29.4443                 2.2071

                     58                     59                     60
                      A                      A                      A
 Frequencies --   1827.2679              3028.6763              3050.8116
 Red. masses --     10.9744                 1.0729                 1.0385
 Frc consts  --     21.5892                 5.7987                 5.6951
 IR Inten    --    156.5988                29.6056                16.1463

                     61                     62                     63
                      A                      A                      A
 Frequencies --   3059.3570              3076.3064              3107.8858
 Red. masses --      1.0365                 1.0294                 1.1013
 Frc consts  --      5.7156                 5.7399                 6.2675
 IR Inten    --     19.6432                30.5064                25.4898

                     64                     65                     66
                      A                      A                      A
 Frequencies --   3124.5487              3136.6341              3145.5976
 Red. masses --      1.1007                 1.1007                 1.0922
 Frc consts  --      6.3314                 6.3806                 6.3671
 IR Inten    --     37.8945                14.1283                22.2794

                     67                     68                     69
                      A                      A                      A
 Frequencies --   3151.2157              3170.9193              3173.2994
 Red. masses --      1.1075                 1.0895                 1.0983
 Frc consts  --      6.4797                 6.4542                 6.5164
 IR Inten    --     21.2451                12.3932                 7.6548

                     70                     71                     72
                      A                      A                      A
 Frequencies --   3183.5869              3509.1618              3763.5255
 Red. masses --      1.1073                 1.0731                 1.0679
 Frc consts  --      6.6121                 7.7859                 8.9120
 IR Inten    --     18.1296                24.5076                72.8350

 - Thermochemistry -
 -------------------
 Temperature   298.150 Kelvin.  Pressure   1.00000 Atm.
 Atom     1 has atomic number  6 and mass  12.00000

 Molecular mass:   174.10044 amu.
 Principal axes and moments of inertia in atomic units:
                           1         2         3
     Eigenvalues --  1144.256533229.816753742.49643
           X            0.99981  -0.01909   0.00422
           Y            0.01909   0.99982   0.00132
           Z           -0.00425  -0.00124   0.99999
 This molecule is an asymmetric top.
 Rotational symmetry number  1.
 Warning -- assumption of classical behavior for rotation
           may cause significant error
 Rotational temperatures (Kelvin)      0.07569     0.02682     0.02314
 Rotational constants (GHZ):           1.57722     0.55878     0.48223
 Zero-point vibrational energy     577390.4 (Joules/Mol)
                                  137.99961 (Kcal/Mol)
 Warning -- explicit consideration of  21 degrees of freedom as
           vibrations may cause significant error
 Vibrational temperatures:     37.42    54.61   120.31   155.23   192.09
          (Kelvin)            241.99   257.06   297.61   339.90   375.93
                              419.88   432.01   434.96   510.33   553.66
                              573.85   609.85   645.97   746.78   825.40
                              876.17   992.60  1020.86  1127.68  1224.46
                             1266.44  1293.16  1318.12  1348.33  1377.99
                             1382.78  1469.22  1493.80  1535.99  1654.05
                             1705.81  1719.78  1743.95  1759.91  1799.06
                             1835.26  1889.34  1967.16  1997.26  2006.32
                             2046.45  2076.54  2144.48  2148.37  2176.41
                             2181.42  2190.13  2193.57  2210.88  2215.55
                             2246.44  2511.81  2629.03  4357.59  4389.44
                             4401.73  4426.12  4471.55  4495.53  4512.92
                             4525.81  4533.90  4562.25  4565.67  4580.47
                             5048.90  5414.87

 Zero-point correction=                           0.219916 (Hartree/Particle)
 Thermal correction to Energy=                    0.233707
 Thermal correction to Enthalpy=                  0.234651
 Thermal correction to Gibbs Free Energy=         0.178896
 Sum of electronic and zero-point Energies=           -610.099745
 Sum of electronic and thermal Energies=              -610.085955
 Sum of electronic and thermal Enthalpies=            -610.085011
 Sum of electronic and thermal Free Energies=         -610.140766

                     E (Thermal)             CV                S
                      KCal/Mol        Cal/Mol-Kelvin    Cal/Mol-Kelvin
 Total                  146.653             49.971            117.346
 Electronic               0.000              0.000              0.000
 Translational            0.889              2.981             41.371
 Rotational               0.889              2.981             31.004
 Vibrational            144.876             44.009             44.972
 Vibration     1          0.593              1.985              6.113
 Vibration     2          0.594              1.982              5.363
 Vibration     3          0.601              1.960              3.804
 Vibration     4          0.606              1.943              3.307
 Vibration     5          0.613              1.920              2.895
 Vibration     6          0.625              1.882              2.456
 Vibration     7          0.629              1.869              2.342
 Vibration     8          0.641              1.830              2.071
 Vibration     9          0.655              1.785              1.831
 Vibration    10          0.669              1.744              1.653
 Vibration    11          0.687              1.689              1.463
 Vibration    12          0.693              1.673              1.415
 Vibration    13          0.694              1.669              1.404
 Vibration    14          0.731              1.566              1.145
 Vibration    15          0.754              1.503              1.020
 Vibration    16          0.765              1.473              0.967
 Vibration    17          0.786              1.418              0.879
 Vibration    18          0.808              1.363              0.799
 Vibration    19          0.874              1.208              0.612
 Vibration    20          0.930              1.088              0.497
 Vibration    21          0.968              1.013              0.434

                           ! Non-Optimized Parameters !
 Normal termination of Gaussian 16 at Wed Dec  9 17:56:56 2020.

 ----------------------------------------------------------------------
 # B3LYP/6-311++G(d,p) empiricaldispersion=gd3bj scf=xqc pop=npa geom=c
 heck
 ----------------------------------------------------------------------

 --------------------------------------
 CID_25555485_JID_2581_Energie_neutraal
 --------------------------------------
 Structure from the checkpoint file:  "JID_2581.chk"
 Charge =  0 Multiplicity = 1

 SCF Done:  E(RB3LYP) =  -610.512190124     A.U. after   15 cycles
 Normal termination of Gaussian 16 at Wed Dec  9 18:00:08 2020.

 ----------------------------------------------------------------------
 # B3LYP/6-311++G(d,p) empiricaldispersion=gd3bj scf=xqc pop=npa geom=c
 heck
 ----------------------------------------------------------------------

 ------------------------------------
 CID_25555485_JID_2581_Energie_kation
 ------------------------------------
 Structure from the checkpoint file:  "JID_2581.chk"
 Charge =  1 Multiplicity = 2

 SCF Done:  E(UB3LYP) =  -610.198039929     A.U. after   28 cycles
 Normal termination of Gaussian 16 at Wed Dec  9 18:06:11 2020.
 Gaussian 16:  ES64L-G16RevA.03 25-Dec-2016

 ----------------------------------------------------------------------
 # B3LYP/6-311++G(d,p) empiricaldispersion=gd3bj scf=xqc pop=npa geom=c
 heck
 ----------------------------------------------------------------------

 -----------------------------------
 CID_25555485_JID_2581_Energie_anion
 -----------------------------------
 Structure from the checkpoint file:  "JID_2581.chk"
 Charge = -1 Multiplicity = 2

                         Standard orientation:
 ---------------------------------------------------------------------
 Center     Atomic      Atomic             Coordinates (Angstroms)
 Number     Number       Type             X           Y           Z
 ---------------------------------------------------------------------
      1          6           0       -1.527481    2.261659    0.093884
      2          6           0       -1.311239    0.740240    0.152098
      3          6           0       -0.630833    0.363643    1.490932
      4          6           0       -2.688389    0.083683    0.096213
      5          7           0       -3.004007   -1.150635    0.015403
      6          8           0       -1.871536   -1.993783   -0.034621
      7          7           0       -0.579224    0.309892   -1.061731
      8          6           0        0.811898    0.716366   -1.152483
      9          6           0        1.787256   -0.187050   -0.403963
     10          8           0        1.617862   -1.371042   -0.209197
     11          8           0        2.893027    0.486758   -0.020340
     12          6           0        3.897110   -0.308039    0.633271
     13          1           0       -2.174412    2.587602    0.915786
     14          1           0       -1.991091    2.541899   -0.856891
     15          1           0       -0.582576    2.804502    0.190613
     16          1           0       -1.249919    0.678139    2.338660
     17          1           0       -0.466085   -0.712773    1.553551
     18          1           0        0.334491    0.875620    1.582658
     19          1           0       -3.560471    0.734513    0.141733
     20          1           0       -2.270906   -2.872138   -0.128204
     21          1           0       -0.618082   -0.706741   -1.111863
     22          1           0        1.120724    0.688360   -2.207896
     23          1           0        0.947688    1.748669   -0.825277
     24          1           0        3.494296   -0.754109    1.546221
     25          1           0        4.244051   -1.106427   -0.027852
     26          1           0        4.710152    0.379603    0.866615
 ---------------------------------------------------------------------

 SCF Done:  E(UB3LYP) =  -610.497160680     A.U. after   33 cycles
 SCF Done:  E(UB3LYP) =  -610.497160680     a.u. after    1 cycles

 The electronic state is 2-A.
 Alpha  occ. eigenvalues --  -19.07242 -19.06999 -19.01444 -14.27002 -14.19846
 Alpha  occ. eigenvalues --  -10.20032 -10.12382 -10.12152 -10.11090 -10.10940
 Alpha  occ. eigenvalues --  -10.06383 -10.05626  -1.01082  -0.98949  -0.92407
 Alpha  occ. eigenvalues --   -0.82037  -0.76938  -0.68566  -0.64581  -0.59285
 Alpha  occ. eigenvalues --   -0.58510  -0.52525  -0.47931  -0.46042  -0.43899
 Alpha  occ. eigenvalues --   -0.41002  -0.39416  -0.38764  -0.37678  -0.35829
 Alpha  occ. eigenvalues --   -0.35126  -0.33293  -0.32899  -0.31827  -0.30869
 Alpha  occ. eigenvalues --   -0.29510  -0.28807  -0.28523  -0.27258  -0.26585
 Alpha  occ. eigenvalues --   -0.26238  -0.24200  -0.21244  -0.18827  -0.18160
 Alpha  occ. eigenvalues --   -0.17341  -0.13410   0.04495
 Alpha virt. eigenvalues --    0.06340   0.07011   0.07820   0.08236   0.08890
 Alpha virt. eigenvalues --    0.09294   0.09764   0.10330   0.10533   0.11945
 Alpha virt. eigenvalues --    0.12248   0.12735   0.13237   0.14392   0.14727

  Beta  occ. eigenvalues --  -19.07234 -19.06967 -19.01436 -14.26970 -14.19844
  Beta  occ. eigenvalues --  -10.20031 -10.12380 -10.12098 -10.11077 -10.10924
  Beta  occ. eigenvalues --  -10.06350 -10.05594  -1.01067  -0.98873  -0.92391
  Beta  occ. eigenvalues --   -0.82021  -0.76872  -0.68533  -0.64531  -0.59226
  Beta  occ. eigenvalues --   -0.58449  -0.52463  -0.47870  -0.45990  -0.43865
  Beta  occ. eigenvalues --   -0.40972  -0.39383  -0.38734  -0.37641  -0.35792
  Beta  occ. eigenvalues --   -0.35088  -0.33243  -0.32851  -0.31788  -0.30826
  Beta  occ. eigenvalues --   -0.29469  -0.28764  -0.28487  -0.27217  -0.26547
  Beta  occ. eigenvalues --   -0.26207  -0.24170  -0.21224  -0.18812  -0.18110
  Beta  occ. eigenvalues --   -0.17267  -0.13400
  Beta virt. eigenvalues --    0.06733   0.07497   0.07865   0.08059   0.08618
  Beta virt. eigenvalues --    0.09407   0.09773   0.10559   0.10662   0.11039
  Beta virt. eigenvalues --    0.12352   0.12614   0.13008   0.13353   0.14501

 Mulliken charges and spin densities:
               1          2
     1  C    1.525695  -2.065098
     2  C   -1.593455   1.494959
     3  C    0.171703  -0.731193
     4  C    0.176896  -0.448082
     5  N   -0.166428   0.008885
     6  O   -0.098659  -0.028417
     7  N   -0.045184   0.117106
     8  C    1.102193  -1.612670
     9  C   -0.706956   0.662087
    10  O   -0.282641   0.040971
    11  O   -0.130619   0.131318
    12  C    0.991211  -1.216234
    13  H   -0.225001   0.362826
    14  H    0.036825   0.133127
    15  H   -0.152630   0.274254
    16  H   -0.344801   0.525190
    17  H    0.211337  -0.027738
    18  H   -0.074030   0.251045
    19  H   -0.417675   0.668655
    20  H    0.035616   0.259573
    21  H    0.222498   0.033100
    22  H   -0.093087   0.292498
    23  H    0.149046   0.082308
    24  H   -0.234753   0.408720
    25  H   -0.298247   0.462976
    26  H   -0.758855   0.919833
 Sum of Mulliken charges =  -1.00000   1.00000

 Dipole moment (field-independent basis, Debye):
    X=             -2.6182    Y=             -0.9708    Z=             -2.3492  Tot=              3.6491
 Quadrupole moment (field-independent basis, Debye-Ang):
   XX=           -151.7993   YY=           -110.0138   ZZ=           -104.9194
   XY=              1.4532   XZ=             -2.8079   YZ=             -3.4234

 Summary of Natural Population Analysis:

                                       Natural Population
                Natural  -----------------------------------------------
    Atom  No    Charge         Core      Valence    Rydberg      Total
 -----------------------------------------------------------------------
      C    1   -0.28814      0.99963     2.28028    0.00824     3.28814
      C    2    0.03171      0.99957     1.95421    0.01451     2.96829
      C    3   -0.29816      0.99962     2.29117    0.00737     3.29816
      C    4    0.04477      0.99958     1.93606    0.01959     2.95523
      N    5   -0.07729      0.99964     2.56267    0.01498     3.57729
      O    6   -0.29074      0.99990     3.28344    0.00740     4.29074
      N    7   -0.34780      0.99972     2.83629    0.01178     3.84780
      C    8   -0.13660      0.99957     2.12512    0.01191     3.13660
      C    9    0.40176      0.99969     1.57329    0.02526     2.59824
      O   10   -0.30587      0.99987     3.29989    0.00611     4.30587
      O   11   -0.27918      0.99986     3.26933    0.00999     4.27918
      C   12   -0.10441      0.99959     2.09557    0.00925     3.10441
      H   13    0.10332      0.00000     0.39525    0.00142     0.39668
      H   14    0.10376      0.00000     0.39491    0.00133     0.39624
      H   15    0.10111      0.00000     0.39775    0.00114     0.39889
      H   16    0.10294      0.00000     0.39578    0.00127     0.39706
      H   17    0.11494      0.00000     0.38341    0.00165     0.38506
      H   18    0.09989      0.00000     0.39865    0.00146     0.40011
      H   19    0.09767      0.00000     0.40057    0.00176     0.40233
      H   20    0.23752      0.00000     0.25827    0.00421     0.26248
      H   21    0.19394      0.00000     0.30216    0.00390     0.30606
      H   22    0.10861      0.00000     0.39041    0.00098     0.39139
      H   23    0.10701      0.00000     0.39128    0.00171     0.39299
      H   24    0.09305      0.00000     0.40534    0.00162     0.40695
      H   25    0.09108      0.00000     0.40735    0.00156     0.40892
      H   26    0.09511      0.00000     0.40216    0.00274     0.40489
 =======================================================================
   * Total *    0.00000     11.99624    34.83061    0.17315    47.00000

 Normal termination of Gaussian 16 at Wed Dec  9 18:19:51 2020.
