 Gaussian 16, Revision A.03,

 -----------------------------------------------------------
 # opt freq B3LYP/6-31G(d) empiricaldispersion=gd3bj scf=xqc
 -----------------------------------------------------------

 ------------------------------
 CID_104995888_JID_689_neutraal
 ------------------------------
 Symbolic Z-matrix:
 Charge =  0 Multiplicity = 1

 SCF Done:  E(RB3LYP) =  -763.130839821     A.U. after   15 cycles
 SCF Done:  E(RB3LYP) =  -763.148066402     A.U. after   13 cycles
 SCF Done:  E(RB3LYP) =  -763.149349136     A.U. after   13 cycles
 SCF Done:  E(RB3LYP) =  -763.148810629     A.U. after   13 cycles
 SCF Done:  E(RB3LYP) =  -763.149068100     A.U. after   13 cycles
 SCF Done:  E(RB3LYP) =  -763.149643031     A.U. after    9 cycles
 SCF Done:  E(RB3LYP) =  -763.149686023     A.U. after   12 cycles
 SCF Done:  E(RB3LYP) =  -763.149926451     A.U. after   13 cycles
 SCF Done:  E(RB3LYP) =  -763.150068737     A.U. after   11 cycles
 SCF Done:  E(RB3LYP) =  -763.150161883     A.U. after   13 cycles
 SCF Done:  E(RB3LYP) =  -763.151481635     A.U. after    8 cycles
 SCF Done:  E(RB3LYP) =  -763.151481922     A.U. after    7 cycles
 SCF Done:  E(RB3LYP) =  -763.151482058     A.U. after    7 cycles
 SCF Done:  E(RB3LYP) =  -763.151482211     A.U. after    7 cycles
 SCF Done:  E(RB3LYP) =  -763.151482248     A.U. after    7 cycles
 Optimization completed.
    -- Stationary point found.
 Normal termination of Gaussian 16 at Tue Dec  8 12:40:17 2020.

 --------------------------------------------------------------------
 #N Geom=AllCheck Guess=TCheck SCRF=Check GenChk RB3LYP/6-31G(d) Freq
 --------------------------------------------------------------------

 Structure from the checkpoint file:  "JID_689.chk"
 ------------------------------
 CID_104995888_JID_689_neutraal
 ------------------------------
 Charge =  0 Multiplicity = 1

 SCF Done:  E(RB3LYP) =  -763.151482248     A.U. after    1 cycles

  Exact polarizability: 128.560   6.253 113.751   1.500  -0.875  56.585
 Approx polarizability: 176.898  14.304 202.711   3.848  -2.879  88.633

                      1                      2                      3
                      A                      A                      A
 Frequencies --     40.1205                99.4799               107.5218
 Red. masses --      4.6170                 4.2546                 1.1822
 Frc consts  --      0.0044                 0.0248                 0.0081
 IR Inten    --      0.2425                 1.7734                 0.2027

                      4                      5                      6
                      A                      A                      A
 Frequencies --    118.3043               206.5506               220.4586
 Red. masses --      3.0580                 3.8847                 3.7472
 Frc consts  --      0.0252                 0.0976                 0.1073
 IR Inten    --      1.4610                 0.7340                 0.5736

                      7                      8                      9
                      A                      A                      A
 Frequencies --    259.2204               318.3788               326.5154
 Red. masses --      2.1448                 3.0667                 1.8279
 Frc consts  --      0.0849                 0.1831                 0.1148
 IR Inten    --      9.8370                 4.3915                31.8205

                     10                     11                     12
                      A                      A                      A
 Frequencies --    367.9711               434.0858               484.5104
 Red. masses --      3.8169                 6.4286                 4.9306
 Frc consts  --      0.3045                 0.7137                 0.6820
 IR Inten    --     23.3662                 1.0415                 5.4006

                     13                     14                     15
                      A                      A                      A
 Frequencies --    557.6868               569.6759               601.8798
 Red. masses --      5.0414                 3.2682                 4.1240
 Frc consts  --      0.9238                 0.6249                 0.8802
 IR Inten    --     11.6142                 0.5056                 1.6905

                     16                     17                     18
                      A                      A                      A
 Frequencies --    612.9437               629.7587               675.4810
 Red. masses --      1.3124                 1.2074                 6.0872
 Frc consts  --      0.2905                 0.2821                 1.6364
 IR Inten    --     40.8226                44.9108                 2.0887

                     19                     20                     21
                      A                      A                      A
 Frequencies --    730.8484               760.1830               824.1504
 Red. masses --      3.6583                 5.8645                 1.2430
 Frc consts  --      1.1513                 1.9967                 0.4974
 IR Inten    --     17.8975                 2.3847                26.3117

                     22                     23                     24
                      A                      A                      A
 Frequencies --    878.8007               903.1432               994.0592
 Red. masses --      2.5523                 1.3779                 1.6754
 Frc consts  --      1.1613                 0.6622                 0.9754
 IR Inten    --     94.7843                 2.5767                 5.7909

                     25                     26                     27
                      A                      A                      A
 Frequencies --   1013.1649              1054.3568              1072.5630
 Red. masses --      3.0172                 1.6275                 1.3966
 Frc consts  --      1.8248                 1.0660                 0.9466
 IR Inten    --     89.4398                 1.0368                 1.0348

                     28                     29                     30
                      A                      A                      A
 Frequencies --   1090.3644              1180.6582              1199.3921
 Red. masses --      1.6620                 2.4420                 4.2223
 Frc consts  --      1.1642                 2.0056                 3.5787
 IR Inten    --     12.2439                10.6131                 2.0302

                     31                     32                     33
                      A                      A                      A
 Frequencies --   1201.2359              1251.9762              1329.5261
 Red. masses --      1.5448                 1.3313                 1.4329
 Frc consts  --      1.3134                 1.2295                 1.4923
 IR Inten    --     15.6279                 5.5706                51.8784

                     34                     35                     36
                      A                      A                      A
 Frequencies --   1375.8754              1406.1464              1444.2902
 Red. masses --      2.6216                 1.2760                 1.2442
 Frc consts  --      2.9240                 1.4865                 1.5292
 IR Inten    --      9.9209                11.7785                 0.9325

                     37                     38                     39
                      A                      A                      A
 Frequencies --   1508.3394              1520.5292              1550.6837
 Red. masses --      1.0424                 1.1927                 4.5388
 Frc consts  --      1.3973                 1.6247                 6.4303
 IR Inten    --      7.2230                 8.6765                 8.7059

                     40                     41                     42
                      A                      A                      A
 Frequencies --   1622.7233              1691.2216              2230.7530
 Red. masses --      5.2544                 1.0990                 5.9493
 Frc consts  --      8.1519                 1.8520                17.4428
 IR Inten    --      1.4120                27.7892                 0.1529

                     43                     44                     45
                      A                      A                      A
 Frequencies --   3010.1440              3043.5358              3094.5542
 Red. masses --      1.0819                 1.0365                 1.1017
 Frc consts  --      5.7760                 5.6566                 6.2161
 IR Inten    --     17.9010                39.6939                17.9025

                     46                     47                     48
                      A                      A                      A
 Frequencies --   3127.1349              3208.4573              3245.3116
 Red. masses --      1.1007                 1.0915                 1.0943
 Frc consts  --      6.3421                 6.6204                 6.7905
 IR Inten    --     13.8912                15.2808                 1.6701

                     49                     50                     51
                      A                      A                      A
 Frequencies --   3463.4448              3494.9341              3552.3181
 Red. masses --      1.0497                 1.1600                 1.0927
 Frc consts  --      7.4189                 8.3484                 8.1241
 IR Inten    --      0.7325                57.0199                 0.3648

 - Thermochemistry -
 -------------------
 Temperature   298.150 Kelvin.  Pressure   1.00000 Atm.
 Atom     1 has atomic number  6 and mass  12.00000

 Molecular mass:   151.04557 amu.
 Principal axes and moments of inertia in atomic units:
                           1         2         3
     Eigenvalues --   782.390952310.593173006.70903
           X            0.99994  -0.01127   0.00118
           Y            0.01127   0.99993  -0.00243
           Z           -0.00116   0.00244   1.00000
 This molecule is an asymmetric top.
 Rotational symmetry number  1.
 Warning -- assumption of classical behavior for rotation
           may cause significant error
 Rotational temperatures (Kelvin)      0.11070     0.03749     0.02881
 Rotational constants (GHZ):           2.30670     0.78107     0.60024
 Zero-point vibrational energy     393005.3 (Joules/Mol)
                                   93.93053 (Kcal/Mol)
 Warning -- explicit consideration of  16 degrees of freedom as
           vibrations may cause significant error
 Vibrational temperatures:     57.72   143.13   154.70   170.21   297.18
          (Kelvin)            317.19   372.96   458.08   469.78   529.43
                              624.55   697.10   802.39   819.64   865.97
                              881.89   906.08   971.87  1051.53  1093.73
                             1185.77  1264.40  1299.42  1430.23  1457.72
                             1516.98  1543.18  1568.79  1698.70  1725.66
                             1728.31  1801.31  1912.89  1979.58  2023.13
                             2078.01  2170.16  2187.70  2231.09  2334.74
                             2433.29  3209.56  4330.93  4378.97  4452.37
                             4499.25  4616.25  4669.28  4983.12  5028.43
                             5110.99

 Zero-point correction=                           0.149688 (Hartree/Particle)
 Thermal correction to Energy=                    0.160315
 Thermal correction to Enthalpy=                  0.161259
 Thermal correction to Gibbs Free Energy=         0.113072
 Sum of electronic and zero-point Energies=           -763.001794
 Sum of electronic and thermal Energies=              -762.991167
 Sum of electronic and thermal Enthalpies=            -762.990223
 Sum of electronic and thermal Free Energies=         -763.038410

                     E (Thermal)             CV                S
                      KCal/Mol        Cal/Mol-Kelvin    Cal/Mol-Kelvin
 Total                  100.599             39.064            101.419
 Electronic               0.000              0.000              0.000
 Translational            0.889              2.981             40.947
 Rotational               0.889              2.981             30.076
 Vibrational             98.822             33.102             30.396
 Vibration     1          0.594              1.981              5.253
 Vibration     2          0.604              1.949              3.464
 Vibration     3          0.606              1.943              3.313
 Vibration     4          0.608              1.934              3.128
 Vibration     5          0.641              1.831              2.074
 Vibration     6          0.647              1.810              1.955
 Vibration     7          0.668              1.747              1.667
 Vibration     8          0.705              1.638              1.318
 Vibration     9          0.710              1.622              1.277
 Vibration    10          0.741              1.538              1.088
 Vibration    11          0.795              1.396              0.845
 Vibration    12          0.841              1.284              0.698
 Vibration    13          0.913              1.123              0.528
 Vibration    14          0.926              1.097              0.505
 Vibration    15          0.960              1.028              0.446
 Vibration    16          0.972              1.004              0.428

 Optimization completed.
    -- Stationary point found.
 Normal termination of Gaussian 16 at Tue Dec  8 12:43:45 2020.

 ----------------------------------------------------------------------
 # B3LYP/6-311++G(d,p) empiricaldispersion=gd3bj scf=xqc pop=npa geom=c
 heck
 ----------------------------------------------------------------------

 --------------------------------------
 CID_104995888_JID_689_Energie_neutraal
 --------------------------------------
 Structure from the checkpoint file:  "JID_689.chk"
 Charge =  0 Multiplicity = 1

 SCF Done:  E(RB3LYP) =  -763.287317249     A.U. after   18 cycles
 Normal termination of Gaussian 16 at Tue Dec  8 12:50:06 2020.

 ----------------------------------------------------------------------
 # B3LYP/6-311++G(d,p) empiricaldispersion=gd3bj scf=xqc pop=npa geom=c
 heck
 ----------------------------------------------------------------------

 ------------------------------------
 CID_104995888_JID_689_Energie_kation
 ------------------------------------
 Structure from the checkpoint file:  "JID_689.chk"
 Charge =  1 Multiplicity = 2

 SCF Done:  E(UB3LYP) =  -762.990933269     A.U. after   27 cycles
 Normal termination of Gaussian 16 at Tue Dec  8 13:04:41 2020.
 Gaussian 16:  ES64L-G16RevA.03 25-Dec-2016

 ----------------------------------------------------------------------
 # B3LYP/6-311++G(d,p) empiricaldispersion=gd3bj scf=xqc pop=npa geom=c
 heck
 ----------------------------------------------------------------------

 -----------------------------------
 CID_104995888_JID_689_Energie_anion
 -----------------------------------
 Structure from the checkpoint file:  "JID_689.chk"
 Charge = -1 Multiplicity = 2

                         Standard orientation:
 ---------------------------------------------------------------------
 Center     Atomic      Atomic             Coordinates (Angstroms)
 Number     Number       Type             X           Y           Z
 ---------------------------------------------------------------------
      1          6           0        3.469180   -0.735984    0.161325
      2          6           0        2.139774   -0.053793    0.052246
      3          6           0        1.860601    1.284005    0.126714
      4          6           0        0.471406    1.589269   -0.012045
      5          6           0       -0.304168    0.477383   -0.188916
      6         16           0        0.669734   -0.973261   -0.182778
      7          6           0       -1.799583    0.438265   -0.424185
      8          6           0       -2.393534   -0.851726   -0.022448
      9          6           0       -2.923230   -1.883961    0.313137
     10          7           0       -2.415288    1.605815    0.231397
     11          1           0        3.504222   -1.433962    1.006687
     12          1           0        3.713836   -1.304964   -0.743819
     13          1           0        4.254874    0.011170    0.310381
     14          1           0        2.629896    2.034070    0.281299
     15          1           0        0.051687    2.587327    0.014969
     16          1           0       -1.983864    0.562706   -1.502008
     17          1           0       -3.376851   -2.799936    0.616707
     18          1           0       -3.417411    1.594345    0.045530
     19          1           0       -2.307801    1.499979    1.239952
 ---------------------------------------------------------------------

 SCF Done:  E(UB3LYP) =  -763.271130656     A.U. after   33 cycles
 SCF Done:  E(UB3LYP) =  -763.271130656     a.u. after    1 cycles

 The electronic state is 2-A.
 Alpha  occ. eigenvalues --  -88.75969 -14.19859 -10.13285 -10.09284 -10.09172
 Alpha  occ. eigenvalues --  -10.07354 -10.07297 -10.06491 -10.06235 -10.05944
 Alpha  occ. eigenvalues --   -7.84602  -5.80890  -5.80526  -5.80192  -0.80420
 Alpha  occ. eigenvalues --   -0.76547  -0.67085  -0.65287  -0.62250  -0.59777
 Alpha  occ. eigenvalues --   -0.54982  -0.44910  -0.43450  -0.42614  -0.40449
 Alpha  occ. eigenvalues --   -0.38532  -0.36031  -0.32991  -0.32316  -0.31569
 Alpha  occ. eigenvalues --   -0.29125  -0.27455  -0.25531  -0.25092  -0.23119
 Alpha  occ. eigenvalues --   -0.19222  -0.17748  -0.15205  -0.14277  -0.11761
 Alpha  occ. eigenvalues --    0.04739
 Alpha virt. eigenvalues --    0.06314   0.07217   0.08138   0.08733   0.09776
 Alpha virt. eigenvalues --    0.09816   0.11078   0.11444   0.11834   0.11941
 Alpha virt. eigenvalues --    0.12576   0.13475   0.14201   0.14765   0.15168

  Beta  occ. eigenvalues --  -88.75958 -14.19809 -10.13269 -10.09224 -10.09136
  Beta  occ. eigenvalues --  -10.07353 -10.07266 -10.06459 -10.06237 -10.05914
  Beta  occ. eigenvalues --   -7.84591  -5.80883  -5.80520  -5.80165  -0.80334
  Beta  occ. eigenvalues --   -0.76477  -0.66995  -0.65222  -0.62198  -0.59692
  Beta  occ. eigenvalues --   -0.54913  -0.44824  -0.43377  -0.42533  -0.40382
  Beta  occ. eigenvalues --   -0.38483  -0.35947  -0.32899  -0.32220  -0.31507
  Beta  occ. eigenvalues --   -0.29075  -0.27396  -0.25485  -0.24966  -0.23067
  Beta  occ. eigenvalues --   -0.19170  -0.17696  -0.15149  -0.14147  -0.11494
  Beta virt. eigenvalues --    0.07023   0.07430   0.07975   0.08629   0.09239
  Beta virt. eigenvalues --    0.10254   0.10323   0.11526   0.11657   0.12033
  Beta virt. eigenvalues --    0.12269   0.12763   0.13670   0.14251   0.14960

 Mulliken charges and spin densities:
               1          2
     1  C    3.473875  -3.835471
     2  C   -2.021615   2.357692
     3  C   -0.993589   0.382855
     4  C    0.449592  -0.062028
     5  C    0.722546  -0.623166
     6  S   -0.066812  -0.535902
     7  C   -0.789088   0.277163
     8  C    2.134341  -1.723942
     9  C   -1.099124   0.646868
    10  N   -0.308766  -0.007066
    11  H   -0.038198   0.187155
    12  H   -0.288957   0.450920
    13  H   -0.465062   0.620339
    14  H   -0.297440   0.422168
    15  H    0.029416   0.143293
    16  H   -0.334697   0.568167
    17  H   -0.917631   1.080034
    18  H   -0.226540   0.485201
    19  H    0.037750   0.165720
 Sum of Mulliken charges =  -1.00000   1.00000

 Dipole moment (field-independent basis, Debye):
    X=              1.1211    Y=              0.3870    Z=              1.4065  Tot=              1.8398
 Quadrupole moment (field-independent basis, Debye-Ang):
   XX=           -143.9940   YY=           -103.2995   ZZ=            -90.7940
   XY=             -0.0955   XZ=              0.0547   YZ=              0.9659

 Summary of Natural Population Analysis:

                                       Natural Population
                Natural  -----------------------------------------------
    Atom  No    Charge         Core      Valence    Rydberg      Total
 -----------------------------------------------------------------------
      C    1   -0.29865      0.99961     2.29234    0.00670     3.29865
      C    2   -0.09084      0.99951     2.07712    0.01420     3.09084
      C    3   -0.13212      0.99946     2.12287    0.00980     3.13212
      C    4   -0.12031      0.99945     2.11101    0.00985     3.12031
      C    5   -0.09422      0.99948     2.08021    0.01454     3.09422
      S    6    0.21230      4.99937     2.76921    0.01912     7.78770
      C    7   -0.06495      0.99948     2.04981    0.01566     3.06495
      C    8   -0.01087      0.99936     2.00034    0.01118     3.01087
      C    9   -0.11143      0.99926     2.10828    0.00389     3.11143
      N   10   -0.40473      0.99978     2.89452    0.01043     3.90473
      H   11    0.10263      0.00000     0.39630    0.00107     0.39737
      H   12    0.10721      0.00000     0.39070    0.00210     0.39279
      H   13    0.10785      0.00000     0.39052    0.00162     0.39215
      H   14    0.10318      0.00000     0.39577    0.00105     0.39682
      H   15    0.11343      0.00000     0.38524    0.00133     0.38657
      H   16    0.11529      0.00000     0.38099    0.00372     0.38471
      H   17    0.11087      0.00000     0.38717    0.00196     0.38913
      H   18    0.18014      0.00000     0.31585    0.00401     0.31986
      H   19    0.17523      0.00000     0.32257    0.00220     0.32477
 =======================================================================
   * Total *   -0.00000     13.99476    25.87082    0.13443    40.00000

 Normal termination of Gaussian 16 at Tue Dec  8 13:12:46 2020.
