 Gaussian 16, Revision A.03,

 -----------------------------------------------------------
 # opt freq B3LYP/6-31G(d) empiricaldispersion=gd3bj scf=xqc
 -----------------------------------------------------------

 ------------------------------
 CID_79457594_JID_9057_neutraal
 ------------------------------
 Symbolic Z-matrix:
 Charge =  0 Multiplicity = 1

 SCF Done:  E(RB3LYP) =  -936.544382964     A.U. after   15 cycles
 SCF Done:  E(RB3LYP) =  -936.552088901     A.U. after   15 cycles
 SCF Done:  E(RB3LYP) =  -936.547163156     A.U. after   16 cycles
 SCF Done:  E(RB3LYP) =  -936.550156474     A.U. after   14 cycles
 SCF Done:  E(RB3LYP) =  -936.553904734     A.U. after   11 cycles
 SCF Done:  E(RB3LYP) =  -936.551932729     A.U. after   14 cycles
 SCF Done:  E(RB3LYP) =  -936.555703209     A.U. after   13 cycles
 SCF Done:  E(RB3LYP) =  -936.556932440     A.U. after   13 cycles
 SCF Done:  E(RB3LYP) =  -936.558035627     A.U. after   12 cycles
 SCF Done:  E(RB3LYP) =  -936.557895923     A.U. after   13 cycles
 SCF Done:  E(RB3LYP) =  -936.558623459     A.U. after    7 cycles
 SCF Done:  E(RB3LYP) =  -936.558623611     A.U. after    8 cycles
 SCF Done:  E(RB3LYP) =  -936.558623741     A.U. after    7 cycles
 SCF Done:  E(RB3LYP) =  -936.558623830     A.U. after    7 cycles
 Optimization completed.
    -- Stationary point found.
 Normal termination of Gaussian 16 at Thu Dec 17 20:27:49 2020.

 --------------------------------------------------------------------
 #N Geom=AllCheck Guess=TCheck SCRF=Check GenChk RB3LYP/6-31G(d) Freq
 --------------------------------------------------------------------

 Structure from the checkpoint file:  "JID_9057.chk"
 ------------------------------
 CID_79457594_JID_9057_neutraal
 ------------------------------
 Charge =  0 Multiplicity = 1

 SCF Done:  E(RB3LYP) =  -936.558623830     A.U. after    1 cycles

  Exact polarizability: 177.865   5.557 123.263   9.277 -12.537 141.977
 Approx polarizability: 255.943  15.045 180.309  19.271 -31.091 257.167

                      1                      2                      3
                      A                      A                      A
 Frequencies --     37.9467                44.1361                54.1151
 Red. masses --      8.5425                 4.1641                 5.0722
 Frc consts  --      0.0072                 0.0048                 0.0088
 IR Inten    --      0.1932                 0.3075                 1.6240

                      4                      5                      6
                      A                      A                      A
 Frequencies --     63.1358                89.6078                99.6561
 Red. masses --      5.5146                 8.0336                 4.9877
 Frc consts  --      0.0130                 0.0380                 0.0292
 IR Inten    --      0.6636                 1.9069                 0.9883

                      7                      8                      9
                      A                      A                      A
 Frequencies --    107.6948               113.5504               126.0046
 Red. masses --      4.5693                 4.3611                 3.1945
 Frc consts  --      0.0312                 0.0331                 0.0299
 IR Inten    --      5.5510                 7.4004                 2.3445

                     10                     11                     12
                      A                      A                      A
 Frequencies --    142.8427               179.6055               205.1211
 Red. masses --      4.3018                 4.3592                 4.1340
 Frc consts  --      0.0517                 0.0828                 0.1025
 IR Inten    --      1.3511                 1.7057                 0.6661

                     13                     14                     15
                      A                      A                      A
 Frequencies --    229.0464               258.5467               275.6493
 Red. masses --      3.8468                 1.3803                 3.1485
 Frc consts  --      0.1189                 0.0544                 0.1410
 IR Inten    --      2.4516                 0.3655                 2.2251

                     16                     17                     18
                      A                      A                      A
 Frequencies --    319.7052               333.3613               355.8200
 Red. masses --      3.0261                 3.2483                 2.9741
 Frc consts  --      0.1822                 0.2127                 0.2219
 IR Inten    --      4.2846                 1.8528                 3.0935

                     19                     20                     21
                      A                      A                      A
 Frequencies --    380.8280               421.8946               432.7509
 Red. masses --      3.5077                 4.7882                 3.1582
 Frc consts  --      0.2997                 0.5021                 0.3485
 IR Inten    --      5.0041                 6.5789                 0.6697

                     22                     23                     24
                      A                      A                      A
 Frequencies --    468.9966               489.2959               511.5892
 Red. masses --      2.0478                 2.5939                 2.0653
 Frc consts  --      0.2654                 0.3659                 0.3185
 IR Inten    --      3.3538                19.5340                 8.8342

                     25                     26                     27
                      A                      A                      A
 Frequencies --    522.2025               527.6023               545.5046
 Red. masses --      3.4435                 3.8605                 2.9086
 Frc consts  --      0.5533                 0.6332                 0.5100
 IR Inten    --     12.0320                 1.5004                21.9083

                     28                     29                     30
                      A                      A                      A
 Frequencies --    571.6474               623.8831               641.4409
 Red. masses --      3.3377                 2.7808                 2.3011
 Frc consts  --      0.6426                 0.6377                 0.5578
 IR Inten    --     21.1235               116.7118                35.6839

                     31                     32                     33
                      A                      A                      A
 Frequencies --    654.1630               679.4102               695.8128
 Red. masses --      6.1464                 1.6144                 2.6528
 Frc consts  --      1.5497                 0.4391                 0.7567
 IR Inten    --      0.2708               196.8800                41.4014

                     34                     35                     36
                      A                      A                      A
 Frequencies --    722.5293               779.8399               808.2996
 Red. masses --      3.6976                 3.6904                 2.1870
 Frc consts  --      1.1373                 1.3223                 0.8419
 IR Inten    --      4.4122                10.0602                37.7831

                     37                     38                     39
                      A                      A                      A
 Frequencies --    827.6551               845.9583               854.1638
 Red. masses --      1.5955                 3.7882                 2.3956
 Frc consts  --      0.6439                 1.5973                 1.0298
 IR Inten    --      4.0452                 8.8439                13.0504

                     40                     41                     42
                      A                      A                      A
 Frequencies --    862.7765               879.0567               921.1010
 Red. masses --      2.8891                 2.5408                 2.2745
 Frc consts  --      1.2671                 1.1568                 1.1370
 IR Inten    --     22.1010                 4.9208                12.4207

                     43                     44                     45
                      A                      A                      A
 Frequencies --    937.1085               971.1569               991.2903
 Red. masses --      1.3923                 1.8426                 1.3495
 Frc consts  --      0.7204                 1.0239                 0.7813
 IR Inten    --      0.9299                 6.3205                 1.1539

                     46                     47                     48
                      A                      A                      A
 Frequencies --   1019.8486              1037.7693              1039.0686
 Red. masses --      2.9717                 2.5200                 2.3944
 Frc consts  --      1.8211                 1.5990                 1.5231
 IR Inten    --     23.7600                 4.0446                 4.5990

                     49                     50                     51
                      A                      A                      A
 Frequencies --   1077.6370              1104.7586              1146.7411
 Red. masses --      6.0873                 1.9228                 1.4458
 Frc consts  --      4.1651                 1.3826                 1.1202
 IR Inten    --     66.2617                32.0104                 0.4207

                     52                     53                     54
                      A                      A                      A
 Frequencies --   1158.4548              1174.2441              1187.3081
 Red. masses --      2.9293                 3.8060                 1.2785
 Frc consts  --      2.3161                 3.0919                 1.0619
 IR Inten    --     23.2707                62.0327                 2.1430

                     55                     56                     57
                      A                      A                      A
 Frequencies --   1188.7941              1215.6037              1217.4223
 Red. masses --      1.3370                 1.2257                 1.5499
 Frc consts  --      1.1133                 1.0671                 1.3535
 IR Inten    --     27.1899                19.8619                21.8059

                     58                     59                     60
                      A                      A                      A
 Frequencies --   1220.4473              1229.4069              1283.9018
 Red. masses --      1.8473                 2.7145                 1.3329
 Frc consts  --      1.6212                 2.4173                 1.2946
 IR Inten    --    136.5421                 9.1752                48.3474

                     61                     62                     63
                      A                      A                      A
 Frequencies --   1289.7315              1308.2217              1315.8627
 Red. masses --      3.1484                 1.2579                 1.4908
 Frc consts  --      3.0856                 1.2684                 1.5209
 IR Inten    --    201.1080                22.3623                17.0998

                     64                     65                     66
                      A                      A                      A
 Frequencies --   1338.3062              1353.6708              1364.9213
 Red. masses --      1.2099                 1.4825                 2.7425
 Frc consts  --      1.2767                 1.6006                 3.0104
 IR Inten    --      1.7934                 9.1034                63.1263

                     67                     68                     69
                      A                      A                      A
 Frequencies --   1384.3830              1394.0678              1409.1652
 Red. masses --      1.7672                 1.5999                 2.1539
 Frc consts  --      1.9955                 1.8320                 2.5200
 IR Inten    --     38.9146                50.0843                32.9665

                     70                     71                     72
                      A                      A                      A
 Frequencies --   1428.0335              1437.0945              1471.4332
 Red. masses --      1.4606                 1.2971                 2.7881
 Frc consts  --      1.7549                 1.5784                 3.5566
 IR Inten    --     21.7077                 4.2767                 3.0088

                     73                     74                     75
                      A                      A                      A
 Frequencies --   1490.7655              1494.7003              1498.6932
 Red. masses --      1.0959                 1.2794                 1.1856
 Frc consts  --      1.4350                 1.6841                 1.5689
 IR Inten    --      4.3472                 8.7849                13.3914

                     76                     77                     78
                      A                      A                      A
 Frequencies --   1508.8229              1516.0921              1521.6860
 Red. masses --      1.4357                 1.1255                 1.0479
 Frc consts  --      1.9257                 1.5242                 1.4296
 IR Inten    --     54.0854                18.6212                 6.8704

                     79                     80                     81
                      A                      A                      A
 Frequencies --   1527.8031              1536.7210              1566.0765
 Red. masses --      1.0975                 1.0654                 2.3742
 Frc consts  --      1.5093                 1.4824                 3.4308
 IR Inten    --      1.6660                37.9009                97.5023

                     82                     83                     84
                      A                      A                      A
 Frequencies --   1637.5732              1675.8540              1777.7230
 Red. masses --      6.5324                 5.7438                 7.8146
 Frc consts  --     10.3211                 9.5043                14.5508
 IR Inten    --     14.1247                27.2406               314.2276

                     85                     86                     87
                      A                      A                      A
 Frequencies --   1839.8026              3031.6035              3043.9808
 Red. masses --      9.9527                 1.0346                 1.0660
 Frc consts  --     19.8488                 5.6024                 5.8194
 IR Inten    --    220.5809                46.5394                17.5024

                     88                     89                     90
                      A                      A                      A
 Frequencies --   3065.7571              3070.4950              3076.2014
 Red. masses --      1.0662                 1.0615                 1.0665
 Frc consts  --      5.9042                 5.8963                 5.9461
 IR Inten    --      5.9966                16.8205                56.2852

                     91                     92                     93
                      A                      A                      A
 Frequencies --   3094.2700              3115.3475              3118.4706
 Red. masses --      1.1064                 1.0964                 1.1031
 Frc consts  --      6.2414                 6.2694                 6.3203
 IR Inten    --     38.2333                13.9441                14.6708

                     94                     95                     96
                      A                      A                      A
 Frequencies --   3121.9205              3163.4466              3179.2569
 Red. masses --      1.1030                 1.1007                 1.0895
 Frc consts  --      6.3339                 6.4898                 6.4884
 IR Inten    --     12.6009                22.4915                14.4395

                     97                     98                     99
                      A                      A                      A
 Frequencies --   3182.5308              3202.7012              3229.3789
 Red. masses --      1.0940                 1.0898                 1.0912
 Frc consts  --      6.5286                 6.5863                 6.7052
 IR Inten    --      6.1226                 1.2884                 9.6191

                    100                    101                    102
                      A                      A                      A
 Frequencies --   3233.7483              3590.4922              3644.4855
 Red. masses --      1.0931                 1.0755                 1.0643
 Frc consts  --      6.7347                 8.1687                 8.3285
 IR Inten    --      0.4530                19.7818                71.8558

 - Thermochemistry -
 -------------------
 Temperature   298.150 Kelvin.  Pressure   1.00000 Atm.
 Atom     1 has atomic number  6 and mass  12.00000

 Molecular mass:   267.11067 amu.
 Principal axes and moments of inertia in atomic units:
                           1         2         3
     Eigenvalues --  3546.497085469.195546849.29436
           X            0.99986  -0.01674   0.00302
           Y            0.01680   0.99969  -0.01836
           Z           -0.00271   0.01841   0.99983
 This molecule is an asymmetric top.
 Rotational symmetry number  1.
 Warning -- assumption of classical behavior for rotation
           may cause significant error
 Rotational temperatures (Kelvin)      0.02442     0.01584     0.01265
 Rotational constants (GHZ):           0.50888     0.32998     0.26349
 Zero-point vibrational energy     778507.0 (Joules/Mol)
                                  186.06763 (Kcal/Mol)
 Warning -- explicit consideration of  28 degrees of freedom as
           vibrations may cause significant error
 Vibrational temperatures:     54.60    63.50    77.86    90.84   128.93
          (Kelvin)            143.38   154.95   163.37   181.29   205.52
                              258.41   295.12   329.55   371.99   396.60
                              459.98   479.63   511.95   547.93   607.01
                              622.63   674.78   703.99   736.06   751.33
                              759.10   784.86   822.47   897.63   922.89
                              941.19   977.52  1001.12  1039.56  1122.02
                             1162.96  1190.81  1217.15  1228.95  1241.34
                             1264.77  1325.26  1348.29  1397.28  1426.25
                             1467.33  1493.12  1494.99  1550.48  1589.50
                             1649.90  1666.76  1689.48  1708.27  1710.41
                             1748.98  1751.60  1755.95  1768.84  1847.25
                             1855.64  1882.24  1893.23  1925.52  1947.63
                             1963.82  1991.82  2005.75  2027.47  2054.62
                             2067.66  2117.06  2144.88  2150.54  2156.29
                             2170.86  2181.32  2189.37  2198.17  2211.00
                             2253.23  2356.10  2411.18  2557.75  2647.07
                             4361.80  4379.61  4410.94  4417.76  4425.97
                             4451.96  4482.29  4486.78  4491.75  4551.49
                             4574.24  4578.95  4607.97  4646.36  4652.64
                             5165.92  5243.60

 Zero-point correction=                           0.296518 (Hartree/Particle)
 Thermal correction to Energy=                    0.314929
 Thermal correction to Enthalpy=                  0.315874
 Thermal correction to Gibbs Free Energy=         0.249343
 Sum of electronic and zero-point Energies=           -936.262106
 Sum of electronic and thermal Energies=              -936.243695
 Sum of electronic and thermal Enthalpies=            -936.242750
 Sum of electronic and thermal Free Energies=         -936.309281

                     E (Thermal)             CV                S
                      KCal/Mol        Cal/Mol-Kelvin    Cal/Mol-Kelvin
 Total                  197.621             69.091            140.026
 Electronic               0.000              0.000              0.000
 Translational            0.889              2.981             42.647
 Rotational               0.889              2.981             33.252
 Vibrational            195.844             63.129             64.128
 Vibration     1          0.594              1.982              5.363
 Vibration     2          0.595              1.980              5.064
 Vibration     3          0.596              1.976              4.661
 Vibration     4          0.597              1.972              4.357
 Vibration     5          0.602              1.957              3.669
 Vibration     6          0.604              1.949              3.461
 Vibration     7          0.606              1.943              3.310
 Vibration     8          0.607              1.938              3.207
 Vibration     9          0.611              1.927              3.006
 Vibration    10          0.616              1.910              2.765
 Vibration    11          0.629              1.867              2.333
 Vibration    12          0.640              1.833              2.087
 Vibration    13          0.652              1.797              1.886
 Vibration    14          0.667              1.748              1.672
 Vibration    15          0.677              1.718              1.561
 Vibration    16          0.706              1.636              1.312
 Vibration    17          0.715              1.609              1.244
 Vibration    18          0.731              1.563              1.140
 Vibration    19          0.751              1.511              1.036
 Vibration    20          0.784              1.423              0.886
 Vibration    21          0.794              1.399              0.850
 Vibration    22          0.826              1.319              0.740
 Vibration    23          0.845              1.274              0.685
 Vibration    24          0.867              1.224              0.630
 Vibration    25          0.877              1.201              0.605
 Vibration    26          0.883              1.189              0.593
 Vibration    27          0.901              1.150              0.554
 Vibration    28          0.928              1.093              0.501

                           ! Non-Optimized Parameters !
 Normal termination of Gaussian 16 at Thu Dec 17 20:47:58 2020.

 ----------------------------------------------------------------------
 # B3LYP/6-311++G(d,p) empiricaldispersion=gd3bj scf=xqc pop=npa geom=c
 heck
 ----------------------------------------------------------------------

 --------------------------------------
 CID_79457594_JID_9057_Energie_neutraal
 --------------------------------------
 Structure from the checkpoint file:  "JID_9057.chk"
 Charge =  0 Multiplicity = 1

 SCF Done:  E(RB3LYP) =  -936.838561764     A.U. after   16 cycles
 Normal termination of Gaussian 16 at Thu Dec 17 20:57:02 2020.

 ----------------------------------------------------------------------
 # B3LYP/6-311++G(d,p) empiricaldispersion=gd3bj scf=xqc pop=npa geom=c
 heck
 ----------------------------------------------------------------------

 ------------------------------------
 CID_79457594_JID_9057_Energie_kation
 ------------------------------------
 Structure from the checkpoint file:  "JID_9057.chk"
 Charge =  1 Multiplicity = 2

 SCF Done:  E(UB3LYP) =  -936.536652747     A.U. after   33 cycles
 SCF Done:  E(UB3LYP) =  -936.536652748     a.u. after    2 cycles
 Normal termination of Gaussian 16 at Thu Dec 17 21:56:35 2020.
 Gaussian 16:  ES64L-G16RevA.03 25-Dec-2016

 ----------------------------------------------------------------------
 # B3LYP/6-311++G(d,p) empiricaldispersion=gd3bj scf=xqc pop=npa geom=c
 heck
 ----------------------------------------------------------------------

 -----------------------------------
 CID_79457594_JID_9057_Energie_anion
 -----------------------------------
 Structure from the checkpoint file:  "JID_9057.chk"
 Charge = -1 Multiplicity = 2

                         Standard orientation:
 ---------------------------------------------------------------------
 Center     Atomic      Atomic             Coordinates (Angstroms)
 Number     Number       Type             X           Y           Z
 ---------------------------------------------------------------------
      1          6           0        4.198264   -0.884726    0.734295
      2          8           0        3.310102   -0.558182   -0.326098
      3          6           0        2.046900   -1.091316   -0.284744
      4          6           0        1.229224   -0.792302   -1.382656
      5          6           0       -0.107044   -1.163823   -1.371205
      6          6           0       -0.658405   -1.852033   -0.277899
      7          6           0        0.189783   -2.215671    0.766446
      8          6           0        1.539010   -1.844928    0.775315
      9          6           0       -2.156858   -2.071335   -0.203489
     10          6           0       -2.894706   -0.763857   -0.504450
     11          8           0       -3.398615   -0.560181   -1.603494
     12          7           0       -2.942764    0.192530    0.476693
     13          6           0       -2.217518    0.265434    1.736782
     14          6           0       -0.847049    0.941777    1.638429
     15          8           0       -0.950830    2.277436    1.145676
     16          6           0       -0.627454    2.438214   -0.214380
     17          6           0        0.839333    2.271319   -0.603665
     18          8           0        1.218747    2.402739   -1.746413
     19          8           0        1.651861    1.932447    0.417532
     20          1           0        5.143486   -0.394949    0.495424
     21          1           0        4.355919   -1.968210    0.801721
     22          1           0        3.825498   -0.512316    1.697342
     23          1           0        1.643747   -0.215353   -2.201427
     24          1           0       -0.750320   -0.880460   -2.199360
     25          1           0       -0.209575   -2.761862    1.617742
     26          1           0        2.157932   -2.111020    1.623743
     27          1           0       -2.499264   -2.779797   -0.963046
     28          1           0       -2.431625   -2.470762    0.778751
     29          1           0       -3.377292    1.050570    0.158327
     30          1           0       -2.844065    0.818964    2.444513
     31          1           0       -2.087331   -0.742522    2.142083
     32          1           0       -0.408123    1.004052    2.641044
     33          1           0       -0.172791    0.352251    1.019540
     34          1           0       -1.183746    1.749497   -0.865407
     35          1           0       -0.922005    3.455191   -0.491717
     36          1           0        2.507899    1.684426    0.013578
 ---------------------------------------------------------------------

 SCF Done:  E(UB3LYP) =  -936.832265800     A.U. after   33 cycles
 SCF Done:  E(UB3LYP) =  -936.832265800     a.u. after    1 cycles

 The electronic state is 2-A.
 Alpha  occ. eigenvalues --  -19.09213 -19.07301 -19.05425 -19.03777 -19.00728
 Alpha  occ. eigenvalues --  -14.25668 -10.22990 -10.19370 -10.15823 -10.15065
 Alpha  occ. eigenvalues --  -10.13124 -10.13074 -10.12805 -10.10052 -10.09893
 Alpha  occ. eigenvalues --  -10.09098 -10.09053 -10.08786 -10.08750  -1.03451
 Alpha  occ. eigenvalues --   -0.98596  -0.96662  -0.95801  -0.94485  -0.84260
 Alpha  occ. eigenvalues --   -0.77816  -0.70400  -0.69100  -0.66925  -0.64624
 Alpha  occ. eigenvalues --   -0.63817  -0.59710  -0.56635  -0.53280  -0.53012
 Alpha  occ. eigenvalues --   -0.50974  -0.49049  -0.45157  -0.43709  -0.43524
 Alpha  occ. eigenvalues --   -0.42077  -0.41546  -0.40286  -0.39687  -0.39582
 Alpha  occ. eigenvalues --   -0.38359  -0.37879  -0.36715  -0.36119  -0.34537
 Alpha  occ. eigenvalues --   -0.34225  -0.33924  -0.33433  -0.32677  -0.32109
 Alpha  occ. eigenvalues --   -0.31409  -0.30801  -0.30104  -0.28611  -0.27717
 Alpha  occ. eigenvalues --   -0.27388  -0.25331  -0.25016  -0.24535  -0.23093
 Alpha  occ. eigenvalues --   -0.22257  -0.19507  -0.17795  -0.17545  -0.16801
 Alpha  occ. eigenvalues --   -0.14067   0.03764
 Alpha virt. eigenvalues --    0.05832   0.06145   0.06577   0.07098   0.07193
 Alpha virt. eigenvalues --    0.07965   0.08111   0.08480   0.09489   0.09607
 Alpha virt. eigenvalues --    0.10144   0.10423   0.10582   0.10946   0.11766

  Beta  occ. eigenvalues --  -19.09204 -19.07290 -19.05422 -19.03774 -19.00726
  Beta  occ. eigenvalues --  -14.25662 -10.22989 -10.19369 -10.15819 -10.15068
  Beta  occ. eigenvalues --  -10.13063 -10.13060 -10.12783 -10.10038 -10.09897
  Beta  occ. eigenvalues --  -10.09087 -10.09025 -10.08759 -10.08745  -1.03442
  Beta  occ. eigenvalues --   -0.98571  -0.96655  -0.95795  -0.94476  -0.84246
  Beta  occ. eigenvalues --   -0.77792  -0.70378  -0.69079  -0.66881  -0.64591
  Beta  occ. eigenvalues --   -0.63781  -0.59648  -0.56606  -0.53230  -0.52992
  Beta  occ. eigenvalues --   -0.50943  -0.49021  -0.45108  -0.43692  -0.43506
  Beta  occ. eigenvalues --   -0.42058  -0.41526  -0.40269  -0.39660  -0.39552
  Beta  occ. eigenvalues --   -0.38325  -0.37851  -0.36683  -0.36084  -0.34514
  Beta  occ. eigenvalues --   -0.34183  -0.33903  -0.33400  -0.32666  -0.32081
  Beta  occ. eigenvalues --   -0.31386  -0.30778  -0.30074  -0.28581  -0.27678
  Beta  occ. eigenvalues --   -0.27362  -0.25312  -0.24991  -0.24507  -0.23064
  Beta  occ. eigenvalues --   -0.22245  -0.19493  -0.17785  -0.17490  -0.16777
  Beta  occ. eigenvalues --   -0.14044
  Beta virt. eigenvalues --    0.06143   0.06255   0.06802   0.06882   0.07141
  Beta virt. eigenvalues --    0.07576   0.08342   0.08815   0.08987   0.09541
  Beta virt. eigenvalues --    0.09946   0.10372   0.10684   0.10903   0.11441

 Mulliken charges and spin densities:
               1          2
     1  C    1.343538  -1.676106
     2  O   -0.129918   0.019904
     3  C   -1.663327   0.649042
     4  C   -1.069572   0.815539
     5  C   -0.655637   0.525911
     6  C    0.718723  -0.124137
     7  C    0.828930  -0.982781
     8  C    0.977125  -0.594636
     9  C    0.762746  -1.484850
    10  C    0.023520  -0.074878
    11  O   -0.301811   0.012240
    12  N   -0.222146   0.046516
    13  C    0.413849  -0.759746
    14  C   -0.929676   0.797466
    15  O    0.016538  -0.024499
    16  C   -0.332607  -0.044557
    17  C   -0.217693   0.046632
    18  O   -0.208132   0.006309
    19  O    0.019726  -0.006297
    20  H   -0.505929   0.673584
    21  H   -0.312715   0.477925
    22  H   -0.442816   0.621114
    23  H    0.151502   0.078892
    24  H    0.170960   0.044722
    25  H   -1.048967   1.240574
    26  H   -0.518888   0.746874
    27  H    0.186310   0.015713
    28  H   -0.045251   0.218608
    29  H    0.263042   0.059116
    30  H   -0.162510   0.375904
    31  H   -0.259404   0.413166
    32  H   -0.503416   0.722471
    33  H    2.099072  -2.028738
    34  H    0.250676  -0.004011
    35  H    0.096516   0.095931
    36  H    0.207642   0.101083
 Sum of Mulliken charges =  -1.00000   1.00000

 Dipole moment (field-independent basis, Debye):
    X=             -4.0001    Y=              3.9052    Z=             -5.0307  Tot=              7.5206
 Quadrupole moment (field-independent basis, Debye-Ang):
   XX=           -188.9992   YY=           -156.2682   ZZ=           -171.6524
   XY=              2.5531   XZ=            -12.6361   YZ=             12.7471

 Summary of Natural Population Analysis:

                                       Natural Population
                Natural  -----------------------------------------------
    Atom  No    Charge         Core      Valence    Rydberg      Total
 -----------------------------------------------------------------------
      C    1   -0.10243      0.99960     2.09359    0.00925     3.10243
      O    2   -0.28078      0.99986     3.27112    0.00979     4.28078
      C    3    0.15613      0.99937     1.83012    0.01439     2.84387
      C    4   -0.12151      0.99951     2.11177    0.01022     3.12151
      C    5   -0.09878      0.99951     2.09049    0.00879     3.09878
      C    6   -0.03686      0.99949     2.02674    0.01063     3.03686
      C    7   -0.09141      0.99951     2.07980    0.01210     3.09141
      C    8   -0.13602      0.99950     2.12576    0.01076     3.13602
      C    9   -0.23875      0.99956     2.23024    0.00896     3.23875
      C   10    0.34778      0.99967     1.62842    0.02413     2.65222
      O   11   -0.32742      0.99988     3.32197    0.00557     4.32742
      N   12   -0.32038      0.99966     2.81088    0.00984     3.82038
      C   13   -0.10175      0.99961     2.09020    0.01195     3.10175
      C   14   -0.02103      0.99955     2.00796    0.01352     3.02103
      O   15   -0.29752      0.99989     3.28884    0.00880     4.29752
      C   16   -0.05967      0.99953     2.04792    0.01223     3.05967
      C   17    0.39325      0.99974     1.58242    0.02459     2.60675
      O   18   -0.30865      0.99987     3.30285    0.00593     4.30865
      O   19   -0.33989      0.99987     3.33240    0.00763     4.33989
      H   20    0.09507      0.00000     0.40339    0.00153     0.40493
      H   21    0.08842      0.00000     0.40974    0.00184     0.41158
      H   22    0.08994      0.00000     0.40731    0.00275     0.41006
      H   23    0.11328      0.00000     0.38534    0.00137     0.38672
      H   24    0.10868      0.00000     0.39010    0.00122     0.39132
      H   25    0.10659      0.00000     0.39071    0.00270     0.39341
      H   26    0.11422      0.00000     0.38307    0.00271     0.38578
      H   27    0.11571      0.00000     0.38330    0.00099     0.38429
      H   28    0.11139      0.00000     0.38728    0.00133     0.38861
      H   29    0.19319      0.00000     0.30462    0.00219     0.30681
      H   30    0.09958      0.00000     0.39919    0.00123     0.40042
      H   31    0.10577      0.00000     0.39230    0.00194     0.39423
      H   32    0.09572      0.00000     0.40265    0.00163     0.40428
      H   33    0.09436      0.00000     0.40114    0.00450     0.40564
      H   34    0.10161      0.00000     0.39710    0.00129     0.39839
      H   35    0.10440      0.00000     0.39471    0.00089     0.39560
      H   36    0.24778      0.00000     0.24858    0.00364     0.25222
 =======================================================================
   * Total *    0.00000     18.99315    51.75404    0.25281    71.00000

 Normal termination of Gaussian 16 at Thu Dec 17 22:21:53 2020.
