 Gaussian 16, Revision A.03,

 -----------------------------------------------------------
 # opt freq B3LYP/6-31G(d) empiricaldispersion=gd3bj scf=xqc
 -----------------------------------------------------------

 -------------------------------
 CID_102862590_JID_8232_neutraal
 -------------------------------
 Symbolic Z-matrix:
 Charge =  0 Multiplicity = 1

 SCF Done:  E(RB3LYP) =  -1144.50625276     A.U. after   14 cycles
 SCF Done:  E(RB3LYP) =  -1144.52038522     A.U. after   14 cycles
 SCF Done:  E(RB3LYP) =  -1144.52249038     A.U. after   13 cycles
 SCF Done:  E(RB3LYP) =  -1144.52292474     A.U. after   13 cycles
 SCF Done:  E(RB3LYP) =  -1144.52197325     A.U. after   13 cycles
 SCF Done:  E(RB3LYP) =  -1144.52395705     A.U. after   13 cycles
 SCF Done:  E(RB3LYP) =  -1144.52484700     A.U. after   13 cycles
 SCF Done:  E(RB3LYP) =  -1144.52575583     A.U. after   13 cycles
 SCF Done:  E(RB3LYP) =  -1144.52627979     A.U. after   13 cycles
 SCF Done:  E(RB3LYP) =  -1144.52998518     A.U. after   16 cycles
 SCF Done:  E(RB3LYP) =  -1144.54621294     A.U. after   11 cycles
 SCF Done:  E(RB3LYP) =  -1144.54623757     A.U. after   10 cycles
 SCF Done:  E(RB3LYP) =  -1144.54623972     A.U. after    9 cycles
 SCF Done:  E(RB3LYP) =  -1144.54624066     A.U. after    8 cycles
 SCF Done:  E(RB3LYP) =  -1144.54624111     A.U. after    8 cycles
 SCF Done:  E(RB3LYP) =  -1144.54624122     A.U. after    7 cycles
 Optimization completed.
    -- Stationary point found.
 Normal termination of Gaussian 16 at Fri Dec 11 20:00:41 2020.

 --------------------------------------------------------------------
 #N Geom=AllCheck Guess=TCheck SCRF=Check GenChk RB3LYP/6-31G(d) Freq
 --------------------------------------------------------------------

 Structure from the checkpoint file:  "JID_8232.chk"
 -------------------------------
 CID_102862590_JID_8232_neutraal
 -------------------------------
 Charge =  0 Multiplicity = 1

 SCF Done:  E(RB3LYP) =  -1144.54624122     A.U. after    1 cycles

  Exact polarizability: 244.840  -4.018 200.835  -1.016  -6.471 102.601
 Approx polarizability: 329.383 -14.515 340.561  -2.120 -22.337 163.749

                      1                      2                      3
                      A                      A                      A
 Frequencies --     40.2246                52.3229                62.2738
 Red. masses --      6.6951                 4.5715                 3.3657
 Frc consts  --      0.0064                 0.0074                 0.0077
 IR Inten    --      0.4116                 2.8929                 0.8762

                      4                      5                      6
                      A                      A                      A
 Frequencies --     78.6502                88.5789               119.7880
 Red. masses --      4.7505                 3.4767                 3.4822
 Frc consts  --      0.0173                 0.0161                 0.0294
 IR Inten    --      0.8700                 0.1698                 1.7494

                      7                      8                      9
                      A                      A                      A
 Frequencies --    130.6883               148.9858               166.1336
 Red. masses --      4.7051                 5.1100                 4.4123
 Frc consts  --      0.0473                 0.0668                 0.0718
 IR Inten    --      0.4132                 7.4234                 1.7391

                     10                     11                     12
                      A                      A                      A
 Frequencies --    186.1838               188.1508               246.4158
 Red. masses --      4.2595                 4.0342                 2.6334
 Frc consts  --      0.0870                 0.0841                 0.0942
 IR Inten    --     11.3638                 2.1711                 6.1332

                     13                     14                     15
                      A                      A                      A
 Frequencies --    268.6977               300.0008               347.1391
 Red. masses --      4.1251                 4.2652                 3.5071
 Frc consts  --      0.1755                 0.2262                 0.2490
 IR Inten    --      2.4373                 4.4117                 0.1743

                     16                     17                     18
                      A                      A                      A
 Frequencies --    364.3613               391.2116               408.9635
 Red. masses --      3.5871                 2.9000                 3.0463
 Frc consts  --      0.2806                 0.2615                 0.3002
 IR Inten    --      3.3272                 5.8481                 8.6832

                     19                     20                     21
                      A                      A                      A
 Frequencies --    431.4118               460.9130               483.1367
 Red. masses --      2.8218                 2.1930                 1.7235
 Frc consts  --      0.3094                 0.2745                 0.2370
 IR Inten    --     33.6784                37.8068                85.8528

                     22                     23                     24
                      A                      A                      A
 Frequencies --    488.6319               519.2986               532.9354
 Red. masses --      2.8453                 1.8327                 2.6419
 Frc consts  --      0.4003                 0.2912                 0.4421
 IR Inten    --     30.3322                54.1475                30.0571

                     25                     26                     27
                      A                      A                      A
 Frequencies --    553.5417               572.9510               607.6181
 Red. masses --      2.1359                 2.3762                 3.1023
 Frc consts  --      0.3856                 0.4596                 0.6748
 IR Inten    --     99.6992                39.8460                 4.5040

                     28                     29                     30
                      A                      A                      A
 Frequencies --    648.0864               683.7862               712.7094
 Red. masses --      3.2452                 2.4856                 1.3732
 Frc consts  --      0.8031                 0.6847                 0.4110
 IR Inten    --      4.6490                 0.6265                14.2556

                     31                     32                     33
                      A                      A                      A
 Frequencies --    735.3653               763.3071               774.3544
 Red. masses --      2.4630                 2.4659                 3.9528
 Frc consts  --      0.7847                 0.8465                 1.3965
 IR Inten    --     11.3755                 5.5685                 0.0441

                     34                     35                     36
                      A                      A                      A
 Frequencies --    803.5763               817.2613               833.5665
 Red. masses --      1.2582                 1.5284                 1.5852
 Frc consts  --      0.4787                 0.6015                 0.6490
 IR Inten    --      1.6253                 6.1100                24.0119

                     37                     38                     39
                      A                      A                      A
 Frequencies --    848.2890               886.8682               915.4727
 Red. masses --      2.8334                 3.1515                 2.0929
 Frc consts  --      1.2013                 1.4604                 1.0334
 IR Inten    --      7.1407                 3.1062                 4.4425

                     40                     41                     42
                      A                      A                      A
 Frequencies --    934.4025               943.8573               968.6232
 Red. masses --      2.5956                 2.4957                 1.6066
 Frc consts  --      1.3352                 1.3099                 0.8881
 IR Inten    --      2.7050                 7.9123                19.6826

                     43                     44                     45
                      A                      A                      A
 Frequencies --    973.4664               979.8524               980.1629
 Red. masses --      1.4029                 1.3507                 1.7114
 Frc consts  --      0.7833                 0.7640                 0.9687
 IR Inten    --      8.9512                14.6105                22.1223

                     46                     47                     48
                      A                      A                      A
 Frequencies --   1008.2577              1022.5491              1029.3637
 Red. masses --      3.6565                 3.4416                 2.0257
 Frc consts  --      2.1901                 2.1202                 1.2646
 IR Inten    --     17.2636                21.1507                46.0068

                     49                     50                     51
                      A                      A                      A
 Frequencies --   1061.0486              1088.5063              1094.2735
 Red. masses --      2.2131                 2.5961                 2.1961
 Frc consts  --      1.4680                 1.8123                 1.5494
 IR Inten    --     13.5614                18.3703                10.1765

                     52                     53                     54
                      A                      A                      A
 Frequencies --   1123.2787              1143.9697              1163.1322
 Red. masses --      2.4698                 1.8110                 2.2818
 Frc consts  --      1.8361                 1.3963                 1.8188
 IR Inten    --     11.3134                 1.2004                 2.3869

                     55                     56                     57
                      A                      A                      A
 Frequencies --   1185.8194              1205.8264              1213.4619
 Red. masses --      1.9498                 1.4683                 1.4775
 Frc consts  --      1.6154                 1.2579                 1.2818
 IR Inten    --     38.6660                10.6860                 8.7910

                     58                     59                     60
                      A                      A                      A
 Frequencies --   1238.4975              1255.9754              1268.0054
 Red. masses --      1.3840                 1.3226                 1.2934
 Frc consts  --      1.2508                 1.2293                 1.2252
 IR Inten    --     41.6624                 8.8286                 0.2566

                     61                     62                     63
                      A                      A                      A
 Frequencies --   1279.4540              1279.7612              1300.9517
 Red. masses --      1.3278                 1.4555                 1.5703
 Frc consts  --      1.2806                 1.4045                 1.5659
 IR Inten    --      2.3118                29.9959                28.5678

                     64                     65                     66
                      A                      A                      A
 Frequencies --   1315.0399              1325.3871              1329.5006
 Red. masses --      1.3938                 1.3113                 1.7755
 Frc consts  --      1.4202                 1.3572                 1.8491
 IR Inten    --     35.0400                 2.5274                26.0484

                     67                     68                     69
                      A                      A                      A
 Frequencies --   1348.2070              1354.5221              1363.5939
 Red. masses --      1.1979                 2.6817                 1.8501
 Frc consts  --      1.2829                 2.8988                 2.0269
 IR Inten    --     18.4570                 5.9576               123.0484

                     70                     71                     72
                      A                      A                      A
 Frequencies --   1389.7531              1412.1863              1417.5167
 Red. masses --      1.4201                 1.4819                 1.8558
 Frc consts  --      1.6161                 1.7412                 2.1970
 IR Inten    --     43.3053                15.3935                35.2849

                     73                     74                     75
                      A                      A                      A
 Frequencies --   1421.0010              1455.1204              1467.5136
 Red. masses --      2.0901                 1.6729                 1.4380
 Frc consts  --      2.4867                 2.0870                 1.8247
 IR Inten    --     79.2000                83.6766                21.1421

                     76                     77                     78
                      A                      A                      A
 Frequencies --   1497.0085              1503.7786              1509.1472
 Red. masses --      1.2791                 1.9485                 1.1424
 Frc consts  --      1.6889                 2.5961                 1.5329
 IR Inten    --     30.5662                39.0786                 4.9057

                     79                     80                     81
                      A                      A                      A
 Frequencies --   1517.6948              1536.7826              1540.6886
 Red. masses --      1.0967                 2.3890                 1.2529
 Frc consts  --      1.4884                 3.3242                 1.7522
 IR Inten    --      1.0586                52.6293                26.1411

                     82                     83                     84
                      A                      A                      A
 Frequencies --   1554.6532              1555.4098              1591.4897
 Red. masses --      1.1223                 1.1327                 5.2759
 Frc consts  --      1.5982                 1.6146                 7.8733
 IR Inten    --     13.4989                 7.9702                79.7403

                     85                     86                     87
                      A                      A                      A
 Frequencies --   1623.9586              1664.5912              3005.1326
 Red. masses --      1.6323                 4.6779                 1.0615
 Frc consts  --      2.5364                 7.6368                 5.6478
 IR Inten    --    536.1094               146.4193                72.9155

                     88                     89                     90
                      A                      A                      A
 Frequencies --   3039.0871              3054.3626              3069.9400
 Red. masses --      1.0895                 1.0741                 1.0615
 Frc consts  --      5.9287                 5.9038                 5.8945
 IR Inten    --     13.5235                58.8202                25.1793

                     91                     92                     93
                      A                      A                      A
 Frequencies --   3074.4209              3080.3587              3082.0125
 Red. masses --      1.0681                 1.0810                 1.0630
 Frc consts  --      5.9483                 6.0433                 5.9493
 IR Inten    --     49.8640                 7.9472                36.0904

                     94                     95                     96
                      A                      A                      A
 Frequencies --   3089.6765              3097.5332              3121.3210
 Red. masses --      1.0628                 1.1008                 1.1068
 Frc consts  --      5.9778                 6.2228                 6.3535
 IR Inten    --     33.8186                33.1656                19.8109

                     97                     98                     99
                      A                      A                      A
 Frequencies --   3133.0964              3144.1339              3149.5934
 Red. masses --      1.1081                 1.0954                 1.1058
 Frc consts  --      6.4087                 6.3798                 6.4630
 IR Inten    --     16.6011                16.7908                42.3231

                    100                    101                    102
                      A                      A                      A
 Frequencies --   3172.7818              3242.8372              3274.5221
 Red. masses --      1.0900                 1.0912                 1.0903
 Frc consts  --      6.4648                 6.7610                 6.8881
 IR Inten    --     35.7869                14.0979                20.9891

                    103                    104                    105
                      A                      A                      A
 Frequencies --   3513.0023              3606.8879              3689.7138
 Red. masses --      1.0497                 1.0680                 1.0993
 Frc consts  --      7.6329                 8.1863                 8.8177
 IR Inten    --     98.6976               299.5749                97.2396

 - Thermochemistry -
 -------------------
 Temperature   298.150 Kelvin.  Pressure   1.00000 Atm.
 Atom     1 has atomic number  6 and mass  12.00000

 Molecular mass:   265.12488 amu.
 Principal axes and moments of inertia in atomic units:
                           1         2         3
     Eigenvalues --  2955.940637357.105269933.72312
           X            0.99998  -0.00577   0.00128
           Y            0.00576   0.99997   0.00535
           Z           -0.00131  -0.00535   0.99998
 This molecule is an asymmetric top.
 Rotational symmetry number  1.
 Warning -- assumption of classical behavior for rotation
           may cause significant error
 Rotational temperatures (Kelvin)      0.02930     0.01177     0.00872
 Rotational constants (GHZ):           0.61055     0.24531     0.18168
 Zero-point vibrational energy     829845.3 (Joules/Mol)
                                  198.33780 (Kcal/Mol)
 Warning -- explicit consideration of  27 degrees of freedom as
           vibrations may cause significant error
 Vibrational temperatures:     57.87    75.28    89.60   113.16   127.45
          (Kelvin)            172.35   188.03   214.36   239.03   267.88
                              270.71   354.54   386.60   431.63   499.46
                              524.23   562.87   588.41   620.71   663.15
                              695.13   703.03   747.15   766.78   796.42
                              824.35   874.23   932.45   983.82  1025.43
                             1058.03  1098.23  1114.12  1156.17  1175.86
                             1199.32  1220.50  1276.01  1317.16  1344.40
                             1358.00  1393.63  1400.60  1409.79  1410.24
                             1450.66  1471.22  1481.02  1526.61  1566.12
                             1574.42  1616.15  1645.92  1673.49  1706.13
                             1734.92  1745.90  1781.92  1807.07  1824.38
                             1840.85  1841.29  1871.78  1892.05  1906.94
                             1912.85  1939.77  1948.86  1961.91  1999.54
                             2031.82  2039.49  2044.50  2093.59  2111.42
                             2153.86  2163.60  2171.33  2183.62  2211.09
                             2216.71  2236.80  2237.89  2289.80  2336.51
                             2394.98  4323.72  4372.57  4394.55  4416.96
                             4423.41  4431.95  4434.33  4445.36  4456.66
                             4490.88  4507.83  4523.71  4531.56  4564.93
                             4665.72  4711.31  5054.43  5189.51  5308.68

 Zero-point correction=                           0.316071 (Hartree/Particle)
 Thermal correction to Energy=                    0.333165
 Thermal correction to Enthalpy=                  0.334109
 Thermal correction to Gibbs Free Energy=         0.270735
 Sum of electronic and zero-point Energies=          -1144.230170
 Sum of electronic and thermal Energies=             -1144.213077
 Sum of electronic and thermal Enthalpies=           -1144.212132
 Sum of electronic and thermal Free Energies=        -1144.275507

                     E (Thermal)             CV                S
                      KCal/Mol        Cal/Mol-Kelvin    Cal/Mol-Kelvin
 Total                  209.064             66.393            133.382
 Electronic               0.000              0.000              0.000
 Translational            0.889              2.981             42.624
 Rotational               0.889              2.981             33.735
 Vibrational            207.287             60.432             57.023
 Vibration     1          0.594              1.981              5.248
 Vibration     2          0.596              1.977              4.728
 Vibration     3          0.597              1.972              4.384
 Vibration     4          0.600              1.964              3.924
 Vibration     5          0.601              1.957              3.691
 Vibration     6          0.609              1.933              3.104
 Vibration     7          0.612              1.923              2.936
 Vibration     8          0.618              1.904              2.685
 Vibration     9          0.624              1.884              2.479
 Vibration    10          0.632              1.859              2.265
 Vibration    11          0.633              1.856              2.246
 Vibration    12          0.661              1.769              1.756
 Vibration    13          0.673              1.731              1.605
 Vibration    14          0.693              1.674              1.417
 Vibration    15          0.725              1.581              1.179
 Vibration    16          0.738              1.546              1.103
 Vibration    17          0.759              1.489              0.996
 Vibration    18          0.773              1.451              0.930
 Vibration    19          0.792              1.402              0.854
 Vibration    20          0.819              1.337              0.763
 Vibration    21          0.839              1.287              0.702
 Vibration    22          0.845              1.275              0.687
 Vibration    23          0.874              1.207              0.612
 Vibration    24          0.888              1.177              0.581
 Vibration    25          0.909              1.132              0.537
 Vibration    26          0.929              1.090              0.499
 Vibration    27          0.966              1.016              0.437

                           ! Non-Optimized Parameters !
 Normal termination of Gaussian 16 at Fri Dec 11 20:17:31 2020.

 ----------------------------------------------------------------------
 # B3LYP/6-311++G(d,p) empiricaldispersion=gd3bj scf=xqc pop=npa geom=c
 heck
 ----------------------------------------------------------------------

 ---------------------------------------
 CID_102862590_JID_8232_Energie_neutraal
 ---------------------------------------
 Structure from the checkpoint file:  "JID_8232.chk"
 Charge =  0 Multiplicity = 1

 SCF Done:  E(RB3LYP) =  -1144.78454268     A.U. after   16 cycles
 Normal termination of Gaussian 16 at Fri Dec 11 20:24:42 2020.

 ----------------------------------------------------------------------
 # B3LYP/6-311++G(d,p) empiricaldispersion=gd3bj scf=xqc pop=npa geom=c
 heck
 ----------------------------------------------------------------------

 -------------------------------------
 CID_102862590_JID_8232_Energie_kation
 -------------------------------------
 Structure from the checkpoint file:  "JID_8232.chk"
 Charge =  1 Multiplicity = 2

 SCF Done:  E(UB3LYP) =  -1144.50839143     A.U. after   27 cycles
 Normal termination of Gaussian 16 at Fri Dec 11 20:41:42 2020.
 Gaussian 16:  ES64L-G16RevA.03 25-Dec-2016

 ----------------------------------------------------------------------
 # B3LYP/6-311++G(d,p) empiricaldispersion=gd3bj scf=xqc pop=npa geom=c
 heck
 ----------------------------------------------------------------------

 ------------------------------------
 CID_102862590_JID_8232_Energie_anion
 ------------------------------------
 Structure from the checkpoint file:  "JID_8232.chk"
 Charge = -1 Multiplicity = 2

                         Standard orientation:
 ---------------------------------------------------------------------
 Center     Atomic      Atomic             Coordinates (Angstroms)
 Number     Number       Type             X           Y           Z
 ---------------------------------------------------------------------
      1          6           0       -4.950095   -0.750886   -0.045555
      2          6           0       -3.714532   -1.286252   -0.813525
      3          6           0       -2.827523   -0.563348    0.239875
      4          6           0       -4.040254    0.343975    0.575283
      5          7           0       -1.542165    0.005152   -0.125809
      6          6           0       -1.521523    1.319896   -0.775376
      7          6           0       -1.443206    2.512448    0.189557
      8          6           0       -0.063861    2.713043    0.813284
      9          8           0        0.852547    2.982666   -0.238664
     10          6           0       -0.414267   -0.777154   -0.045398
     11          6           0        0.879791   -0.236026   -0.222352
     12          6           0        1.993526   -1.035561   -0.023718
     13          7           0        1.938974   -2.354622    0.258675
     14          6           0        0.716738   -2.879140    0.371388
     15          6           0       -0.466688   -2.161145    0.243237
     16          6           0        3.376035   -0.454642   -0.084098
     17         16           0        3.731121    1.185153   -0.142119
     18          7           0        4.328691   -1.390377   -0.062797
     19          1           0       -5.302453   -1.463653    0.706421
     20          1           0       -5.804780   -0.412545   -0.636366
     21          1           0       -3.594376   -2.367499   -0.931581
     22          1           0       -3.613775   -0.810066   -1.794716
     23          1           0       -2.666200   -1.228157    1.093379
     24          1           0       -4.065662    1.252735   -0.030174
     25          1           0       -4.184214    0.616776    1.624847
     26          1           0       -0.682556    1.364962   -1.471463
     27          1           0       -2.426595    1.400588   -1.386133
     28          1           0       -1.695104    3.420196   -0.374106
     29          1           0       -2.190907    2.403969    0.984012
     30          1           0       -0.101232    3.554084    1.522698
     31          1           0        0.226866    1.819123    1.383315
     32          1           0        1.736347    2.640158   -0.001625
     33          1           0        1.025469    0.803167   -0.473285
     34          1           0        0.672180   -3.946636    0.579609
     35          1           0       -1.407854   -2.686584    0.337330
     36          1           0        4.032068   -2.355472    0.057160
     37          1           0        5.301113   -1.121245   -0.032197
 ---------------------------------------------------------------------

 SCF Done:  E(UB3LYP) =  -1144.80256529     A.U. after   31 cycles

 The electronic state is 2-A.
 Alpha  occ. eigenvalues --  -88.63005 -18.99259 -14.21847 -14.17515 -14.15214
 Alpha  occ. eigenvalues --  -10.11713 -10.10198 -10.09696 -10.09504 -10.09084
 Alpha  occ. eigenvalues --  -10.08773 -10.08384 -10.06958 -10.06724 -10.06695
 Alpha  occ. eigenvalues --  -10.04845 -10.02923 -10.01584  -7.71776  -5.68131
 Alpha  occ. eigenvalues --   -5.67627  -5.67403  -0.89565  -0.84511  -0.80532
 Alpha  occ. eigenvalues --   -0.77146  -0.75794  -0.67994  -0.64353  -0.62732
 Alpha  occ. eigenvalues --   -0.58872  -0.58314  -0.57185  -0.55224  -0.50629
 Alpha  occ. eigenvalues --   -0.49200  -0.47977  -0.45567  -0.44322  -0.41126
 Alpha  occ. eigenvalues --   -0.40766  -0.39767  -0.38904  -0.37468  -0.36754
 Alpha  occ. eigenvalues --   -0.34161  -0.33156  -0.32958  -0.31971  -0.30921
 Alpha  occ. eigenvalues --   -0.30000  -0.29186  -0.28597  -0.27501  -0.27170
 Alpha  occ. eigenvalues --   -0.26662  -0.25721  -0.25319  -0.24089  -0.23322
 Alpha  occ. eigenvalues --   -0.22919  -0.21892  -0.21266  -0.19364  -0.18246
 Alpha  occ. eigenvalues --   -0.15720  -0.12912  -0.12213  -0.09198  -0.07542
 Alpha  occ. eigenvalues --   -0.06141   0.03805
 Alpha virt. eigenvalues --    0.05776   0.07404   0.07700   0.08403   0.09794
 Alpha virt. eigenvalues --    0.09954   0.10370   0.10633   0.11003   0.11991
 Alpha virt. eigenvalues --    0.12035   0.12801   0.12983   0.13702   0.14219

  Beta  occ. eigenvalues --  -88.62953 -18.99258 -14.21835 -14.17311 -14.15029
  Beta  occ. eigenvalues --  -10.11711 -10.10192 -10.09692 -10.09502 -10.09082
  Beta  occ. eigenvalues --  -10.08755 -10.08377 -10.06765 -10.06725 -10.06442
  Beta  occ. eigenvalues --  -10.04658 -10.02705 -10.01440  -7.71729  -5.68121
  Beta  occ. eigenvalues --   -5.67445  -5.67375  -0.89562  -0.84463  -0.80051
  Beta  occ. eigenvalues --   -0.76709  -0.75745  -0.67923  -0.64096  -0.62242
  Beta  occ. eigenvalues --   -0.58798  -0.58292  -0.56791  -0.55028  -0.50358
  Beta  occ. eigenvalues --   -0.48984  -0.47882  -0.45511  -0.44087  -0.41005
  Beta  occ. eigenvalues --   -0.40742  -0.39570  -0.38840  -0.37307  -0.36713
  Beta  occ. eigenvalues --   -0.33977  -0.32972  -0.32899  -0.31896  -0.30892
  Beta  occ. eigenvalues --   -0.29912  -0.29114  -0.28349  -0.27417  -0.26849
  Beta  occ. eigenvalues --   -0.26186  -0.25618  -0.24965  -0.24035  -0.23290
  Beta  occ. eigenvalues --   -0.22659  -0.21272  -0.20317  -0.18941  -0.17662
  Beta  occ. eigenvalues --   -0.15690  -0.12516  -0.11004  -0.08318  -0.06340
  Beta  occ. eigenvalues --   -0.05974
  Beta virt. eigenvalues --    0.05715   0.07346   0.07627   0.08343   0.09431
  Beta virt. eigenvalues --    0.09849   0.10203   0.10407   0.10613   0.11013
  Beta virt. eigenvalues --    0.11987   0.12247   0.12766   0.12970   0.13643

 Mulliken charges and spin densities:
               1          2
     1  C   -0.457844  -0.006131
     2  C   -0.123619  -0.003072
     3  C   -0.428934   0.008650
     4  C   -0.194969  -0.027605
     5  N    0.541500   0.013156
     6  C   -0.281702  -0.020899
     7  C   -0.136383  -0.005672
     8  C   -0.511968  -0.012210
     9  O   -0.146737   0.004475
    10  C    0.407901  -0.006555
    11  C    0.500679   0.096104
    12  C   -1.298566   0.106392
    13  N   -0.072598   0.092178
    14  C   -0.190621  -0.024665
    15  C   -0.017164   0.209655
    16  C    0.019297   0.214445
    17  S   -0.850645   0.167154
    18  N   -0.309739   0.122484
    19  H    0.119425   0.004660
    20  H    0.137494   0.006308
    21  H    0.129412   0.007747
    22  H    0.140332   0.000257
    23  H    0.149572   0.010500
    24  H    0.121366   0.004504
    25  H    0.133133   0.010106
    26  H    0.248394   0.021011
    27  H    0.118108   0.000434
    28  H    0.145976   0.005153
    29  H    0.130659   0.001617
    30  H    0.125694   0.008741
    31  H    0.151504   0.010213
    32  H    0.185790  -0.005590
    33  H   -0.244464   0.002750
    34  H    0.136278   0.003790
    35  H    0.104141  -0.014277
    36  H    0.289861  -0.004422
    37  H    0.229439  -0.001387
 Sum of Mulliken charges =  -1.00000   1.00000

 Dipole moment (field-independent basis, Debye):
    X=            -11.5343    Y=             -1.4236    Z=              0.9940  Tot=             11.6642
 Quadrupole moment (field-independent basis, Debye-Ang):
   XX=           -166.4598   YY=           -143.7797   ZZ=           -127.9546
   XY=            -10.5892   XZ=              2.2075   YZ=              2.7541

 Summary of Natural Population Analysis:

                                       Natural Population
                Natural  -----------------------------------------------
    Atom  No    Charge         Core      Valence    Rydberg      Total
 -----------------------------------------------------------------------
      C    1   -0.19294      0.99966     2.18710    0.00618     3.19294
      C    2   -0.19393      0.99963     2.18772    0.00658     3.19393
      C    3   -0.00091      0.99958     1.98715    0.01419     3.00091
      C    4   -0.19149      0.99964     2.18479    0.00707     3.19149
      N    5   -0.25726      0.99961     2.74357    0.01408     3.75726
      C    6   -0.08520      0.99961     2.07595    0.00963     3.08520
      C    7   -0.20187      0.99962     2.19525    0.00700     3.20187
      C    8   -0.01378      0.99960     2.00333    0.01085     3.01378
      O    9   -0.39288      0.99989     3.38504    0.00794     4.39288
      C   10    0.10997      0.99950     1.87932    0.01121     2.89003
      C   11   -0.10886      0.99947     2.10231    0.00708     3.10886
      C   12    0.10899      0.99947     1.87656    0.01498     2.89101
      N   13   -0.24544      0.99967     2.73314    0.01262     3.74544
      C   14    0.01489      0.99961     1.97145    0.01406     2.98511
      C   15   -0.12348      0.99954     2.11690    0.00704     3.12348
      C   16    0.14638      0.99961     1.83755    0.01645     2.85362
      S   17   -0.16580      4.99955     3.15097    0.01528     8.16580
      N   18   -0.35467      0.99966     2.84455    0.01046     3.85467
      H   19    0.09351      0.00000     0.40539    0.00110     0.40649
      H   20    0.09345      0.00000     0.40553    0.00101     0.40655
      H   21    0.09749      0.00000     0.40155    0.00096     0.40251
      H   22    0.09673      0.00000     0.40214    0.00113     0.40327
      H   23    0.09991      0.00000     0.39837    0.00172     0.40009
      H   24    0.09750      0.00000     0.40049    0.00202     0.40250
      H   25    0.09503      0.00000     0.40330    0.00167     0.40497
      H   26    0.11402      0.00000     0.38478    0.00121     0.38598
      H   27    0.08745      0.00000     0.41140    0.00115     0.41255
      H   28    0.09386      0.00000     0.40494    0.00119     0.40614
      H   29    0.09406      0.00000     0.40487    0.00107     0.40594
      H   30    0.07136      0.00000     0.42708    0.00156     0.42864
      H   31    0.08896      0.00000     0.40991    0.00114     0.41104
      H   32    0.24921      0.00000     0.24755    0.00324     0.25079
      H   33    0.11549      0.00000     0.38215    0.00236     0.38451
      H   34    0.07922      0.00000     0.41948    0.00130     0.42078
      H   35    0.09159      0.00000     0.40704    0.00137     0.40841
      H   36    0.20237      0.00000     0.29613    0.00150     0.29763
      H   37    0.18706      0.00000     0.31138    0.00156     0.31294
 =======================================================================
   * Total *   -0.00000     21.99291    48.78614    0.22095    71.00000

 Normal termination of Gaussian 16 at Fri Dec 11 21:00:51 2020.
