 Gaussian 16, Revision A.03,

 -----------------------------------------------------------
 # opt freq B3LYP/6-31G(d) empiricaldispersion=gd3bj scf=xqc
 -----------------------------------------------------------

 ------------------------------
 CID_59475978_JID_5144_neutraal
 ------------------------------
 Symbolic Z-matrix:
 Charge =  0 Multiplicity = 1

 SCF Done:  E(RB3LYP) =  -940.178822068     A.U. after   15 cycles
 SCF Done:  E(RB3LYP) =  -940.184675720     A.U. after   12 cycles
 SCF Done:  E(RB3LYP) =  -940.185128120     A.U. after   11 cycles
 SCF Done:  E(RB3LYP) =  -940.185167951     A.U. after   10 cycles
 SCF Done:  E(RB3LYP) =  -940.185171249     A.U. after    9 cycles
 SCF Done:  E(RB3LYP) =  -940.185172930     A.U. after    8 cycles
 SCF Done:  E(RB3LYP) =  -940.185175202     A.U. after    8 cycles
 SCF Done:  E(RB3LYP) =  -940.185185629     A.U. after   10 cycles
 SCF Done:  E(RB3LYP) =  -940.185216061     A.U. after   12 cycles
 SCF Done:  E(RB3LYP) =  -940.185252784     A.U. after    9 cycles
 SCF Done:  E(RB3LYP) =  -940.187457547     A.U. after    9 cycles
 SCF Done:  E(RB3LYP) =  -940.187459234     A.U. after    8 cycles
 SCF Done:  E(RB3LYP) =  -940.187460352     A.U. after    7 cycles
 SCF Done:  E(RB3LYP) =  -940.187460853     A.U. after    8 cycles
 SCF Done:  E(RB3LYP) =  -940.187460977     A.U. after    7 cycles
 Optimization completed.
    -- Stationary point found.
 Normal termination of Gaussian 16 at Thu Dec 10 14:59:42 2020.

 --------------------------------------------------------------------
 #N Geom=AllCheck Guess=TCheck SCRF=Check GenChk RB3LYP/6-31G(d) Freq
 --------------------------------------------------------------------

 Structure from the checkpoint file:  "JID_5144.chk"
 ------------------------------
 CID_59475978_JID_5144_neutraal
 ------------------------------
 Charge =  0 Multiplicity = 1

 SCF Done:  E(RB3LYP) =  -940.187460977     A.U. after    1 cycles

  Exact polarizability: 230.595  -1.676 178.041   0.002  -0.001  76.702
 Approx polarizability: 333.022 -12.668 306.945   0.009   0.004 122.401

                      1                      2                      3
                      A                      A                      A
 Frequencies --     70.0901                96.3908               102.2854
 Red. masses --      3.6558                 1.1174                 1.1332
 Frc consts  --      0.0106                 0.0061                 0.0070
 IR Inten    --      0.5384                 0.4230                 0.1599

                      4                      5                      6
                      A                      A                      A
 Frequencies --    117.8339               137.5916               149.8039
 Red. masses --      3.1217                 2.5577                 3.5194
 Frc consts  --      0.0255                 0.0285                 0.0465
 IR Inten    --      0.0282                 0.9567                 0.3925

                      7                      8                      9
                      A                      A                      A
 Frequencies --    162.8176               184.8138               256.2188
 Red. masses --      1.1171                 2.6285                 2.9376
 Frc consts  --      0.0174                 0.0529                 0.1136
 IR Inten    --      0.0222                 2.4202                 0.0142

                     10                     11                     12
                      A                      A                      A
 Frequencies --    265.9821               266.7732               287.0563
 Red. masses --      2.6296                 3.1836                 4.5382
 Frc consts  --      0.1096                 0.1335                 0.2203
 IR Inten    --      1.1238                 1.8980                 1.4520

                     13                     14                     15
                      A                      A                      A
 Frequencies --    331.1592               367.8096               397.6915
 Red. masses --      3.3180                 3.8255                 5.6018
 Frc consts  --      0.2144                 0.3049                 0.5220
 IR Inten    --      0.1028                 0.0421                 0.5577

                     16                     17                     18
                      A                      A                      A
 Frequencies --    478.1569               484.2005               505.7798
 Red. masses --      4.7554                 3.9106                 5.4925
 Frc consts  --      0.6406                 0.5402                 0.8278
 IR Inten    --      1.8809                 7.7524                 0.5089

                     19                     20                     21
                      A                      A                      A
 Frequencies --    524.5957               560.4164               575.6452
 Red. masses --      3.3955                 3.6651                 3.5973
 Frc consts  --      0.5506                 0.6782                 0.7023
 IR Inten    --      2.5229                 1.0976                 1.1765

                     22                     23                     24
                      A                      A                      A
 Frequencies --    600.8316               660.5369               664.1516
 Red. masses --      4.9275                 5.2398                 3.6806
 Frc consts  --      1.0480                 1.3470                 0.9565
 IR Inten    --      0.3695                 3.0976                 0.0756

                     25                     26                     27
                      A                      A                      A
 Frequencies --    735.2954               771.8432               785.6348
 Red. masses --      5.2516                 3.9654                 5.2438
 Frc consts  --      1.6729                 1.3919                 1.9070
 IR Inten    --      4.1965                 1.2187                 0.8895

                     28                     29                     30
                      A                      A                      A
 Frequencies --    798.0009               817.1409               844.0961
 Red. masses --      6.0686                 1.2507                 1.4777
 Frc consts  --      2.2769                 0.4921                 0.6203
 IR Inten    --      4.7208                19.6076                 9.7726

                     31                     32                     33
                      A                      A                      A
 Frequencies --    934.2732               950.5501               951.5496
 Red. masses --      1.3508                 1.8886                 4.0344
 Frc consts  --      0.6947                 1.0054                 2.1522
 IR Inten    --      0.0647                 0.0017                 1.1232

                     34                     35                     36
                      A                      A                      A
 Frequencies --    969.4512              1013.1620              1048.0171
 Red. masses --      2.1187                 1.6292                 1.4915
 Frc consts  --      1.1732                 0.9853                 0.9652
 IR Inten    --      0.1263                 1.5359                 8.5971

                     37                     38                     39
                      A                      A                      A
 Frequencies --   1071.5572              1072.3249              1076.2675
 Red. masses --      1.4072                 1.4718                 1.4959
 Frc consts  --      0.9520                 0.9971                 1.0209
 IR Inten    --      1.9651                 0.0663                 3.6591

                     40                     41                     42
                      A                      A                      A
 Frequencies --   1086.8160              1136.8387              1157.8567
 Red. masses --      2.3327                 1.9611                 1.1164
 Frc consts  --      1.6234                 1.4933                 0.8818
 IR Inten    --      5.1898                 7.6120                 0.0100

                     43                     44                     45
                      A                      A                      A
 Frequencies --   1170.6504              1188.2695              1213.0117
 Red. masses --      3.0059                 1.5619                 2.9391
 Frc consts  --      2.4270                 1.2994                 2.5480
 IR Inten    --      7.2967                 1.2055                 5.7219

                     46                     47                     48
                      A                      A                      A
 Frequencies --   1253.1054              1273.3675              1285.5884
 Red. masses --      2.7944                 3.3082                 2.1281
 Frc consts  --      2.5853                 3.1605                 2.0723
 IR Inten    --      1.7432                 7.6918                 0.3665

                     49                     50                     51
                      A                      A                      A
 Frequencies --   1305.6727              1370.8377              1406.0937
 Red. masses --      1.9597                 5.9042                 3.3305
 Frc consts  --      1.9684                 6.5371                 3.8796
 IR Inten    --      3.6910                 1.2931                 4.9904

                     52                     53                     54
                      A                      A                      A
 Frequencies --   1441.9294              1442.8831              1443.5972
 Red. masses --      1.2820                 1.2481                 1.2480
 Frc consts  --      1.5705                 1.5310                 1.5323
 IR Inten    --      2.3428                 2.2570                 0.8279

                     55                     56                     57
                      A                      A                      A
 Frequencies --   1467.5609              1484.2647              1507.1428
 Red. masses --      3.3158                 1.3085                 1.0424
 Frc consts  --      4.2075                 1.6984                 1.3951
 IR Inten    --     17.3024                 0.2781                 7.4099

                     58                     59                     60
                      A                      A                      A
 Frequencies --   1513.9958              1514.5016              1514.5757
 Red. masses --      1.0445                 1.0455                 3.1210
 Frc consts  --      1.4107                 1.4129                 4.2181
 IR Inten    --      0.8218                12.4870                 7.4670

                     61                     62                     63
                      A                      A                      A
 Frequencies --   1520.3432              1523.3764              1534.0914
 Red. masses --      1.1083                 1.1501                 1.2777
 Frc consts  --      1.5094                 1.5726                 1.7717
 IR Inten    --      2.4409                 2.2470                18.7039

                     64                     65                     66
                      A                      A                      A
 Frequencies --   1554.4213              1598.9828              1644.1722
 Red. masses --      3.5011                 5.2979                 6.9915
 Frc consts  --      4.9841                 7.9806                11.1356
 IR Inten    --     19.8138                 0.0569                11.4804

                     67                     68                     69
                      A                      A                      A
 Frequencies --   1661.2736              3034.7616              3036.7426
 Red. masses --      7.1923                 1.0591                 1.0383
 Frc consts  --     11.6949                 5.7467                 5.6417
 IR Inten    --      2.3097                20.7317                50.5935

                     70                     71                     72
                      A                      A                      A
 Frequencies --   3038.1777              3043.0572              3060.1061
 Red. masses --      1.0377                 1.0365                 1.1020
 Frc consts  --      5.6437                 5.6551                 6.0800
 IR Inten    --     15.8547                45.7541                12.6064

                     73                     74                     75
                      A                      A                      A
 Frequencies --   3084.1766              3088.0403              3094.0167
 Red. masses --      1.1005                 1.1007                 1.1018
 Frc consts  --      6.1675                 6.1844                 6.2145
 IR Inten    --     20.3694                20.3986                17.7371

                     76                     77                     78
                      A                      A                      A
 Frequencies --   3123.9270              3126.1337              3127.3361
 Red. masses --      1.1003                 1.0998                 1.1006
 Frc consts  --      6.3264                 6.3325                 6.3420
 IR Inten    --     23.4372                22.8825                11.9548

                     79                     80                     81
                      A                      A                      A
 Frequencies --   3172.0839              3190.2653              3229.2812
 Red. masses --      1.0866                 1.0940                 1.0925
 Frc consts  --      6.4418                 6.5603                 6.7123
 IR Inten    --     13.1723                38.1443                 7.7896

 - Thermochemistry -
 -------------------
 Temperature   298.150 Kelvin.  Pressure   1.00000 Atm.
 Atom     1 has atomic number  6 and mass  12.00000

 Molecular mass:   214.08162 amu.
 Principal axes and moments of inertia in atomic units:
                           1         2         3
     Eigenvalues --  1739.033504773.590396467.83106
           X            0.99948   0.03219   0.00000
           Y           -0.03219   0.99948  -0.00000
           Z           -0.00000   0.00000   1.00000
 This molecule is an asymmetric top.
 Rotational symmetry number  1.
 Warning -- assumption of classical behavior for rotation
           may cause significant error
 Rotational temperatures (Kelvin)      0.04981     0.01814     0.01339
 Rotational constants (GHZ):           1.03778     0.37807     0.27903
 Zero-point vibrational energy     626550.9 (Joules/Mol)
                                  149.74925 (Kcal/Mol)
 Warning -- explicit consideration of  22 degrees of freedom as
           vibrations may cause significant error
 Vibrational temperatures:    100.84   138.68   147.17   169.54   197.96
          (Kelvin)            215.53   234.26   265.91   368.64   382.69
                              383.83   413.01   476.46   529.20   572.19
                              687.96   696.66   727.70   754.78   806.31
                              828.23   864.46   950.37   955.57  1057.93
                             1110.51  1130.35  1148.15  1175.68  1214.47
                             1344.21  1367.63  1369.07  1394.82  1457.71
                             1507.86  1541.73  1542.84  1548.51  1563.69
                             1635.66  1665.90  1684.30  1709.65  1745.25
                             1802.94  1832.09  1849.68  1878.57  1972.33
                             2023.06  2074.61  2075.99  2077.01  2111.49
                             2135.53  2168.44  2178.30  2179.03  2179.14
                             2187.43  2191.80  2207.22  2236.47  2300.58
                             2365.60  2390.20  4366.35  4369.20  4371.26
                             4378.28  4402.81  4437.44  4443.00  4451.60
                             4494.63  4497.81  4499.54  4563.92  4590.08
                             4646.22

 Zero-point correction=                           0.238641 (Hartree/Particle)
 Thermal correction to Energy=                    0.252583
 Thermal correction to Enthalpy=                  0.253527
 Thermal correction to Gibbs Free Energy=         0.198323
 Sum of electronic and zero-point Energies=           -939.948820
 Sum of electronic and thermal Energies=              -939.934878
 Sum of electronic and thermal Enthalpies=            -939.933934
 Sum of electronic and thermal Free Energies=         -939.989138

                     E (Thermal)             CV                S
                      KCal/Mol        Cal/Mol-Kelvin    Cal/Mol-Kelvin
 Total                  158.498             53.658            116.187
 Electronic               0.000              0.000              0.000
 Translational            0.889              2.981             41.987
 Rotational               0.889              2.981             32.351
 Vibrational            156.721             47.696             41.849
 Vibration     1          0.598              1.968              4.151
 Vibration     2          0.603              1.952              3.526
 Vibration     3          0.604              1.947              3.410
 Vibration     4          0.608              1.935              3.136
 Vibration     5          0.614              1.916              2.837
 Vibration     6          0.618              1.903              2.675
 Vibration     7          0.623              1.888              2.517
 Vibration     8          0.631              1.861              2.279
 Vibration     9          0.666              1.752              1.687
 Vibration    10          0.672              1.735              1.622
 Vibration    11          0.672              1.734              1.617
 Vibration    12          0.684              1.698              1.491
 Vibration    13          0.714              1.613              1.254
 Vibration    14          0.740              1.538              1.089
 Vibration    15          0.764              1.475              0.971
 Vibration    16          0.835              1.299              0.715
 Vibration    17          0.840              1.285              0.699
 Vibration    18          0.861              1.237              0.644
 Vibration    19          0.880              1.196              0.599
 Vibration    20          0.916              1.117              0.523
 Vibration    21          0.932              1.084              0.493
 Vibration    22          0.959              1.030              0.448

 Optimization completed.
    -- Stationary point found.
 Normal termination of Gaussian 16 at Thu Dec 10 15:08:32 2020.

 ----------------------------------------------------------------------
 # B3LYP/6-311++G(d,p) empiricaldispersion=gd3bj scf=xqc pop=npa geom=c
 heck
 ----------------------------------------------------------------------

 --------------------------------------
 CID_59475978_JID_5144_Energie_neutraal
 --------------------------------------
 Structure from the checkpoint file:  "JID_5144.chk"
 Charge =  0 Multiplicity = 1

 SCF Done:  E(RB3LYP) =  -940.345472777     A.U. after   15 cycles
 Normal termination of Gaussian 16 at Thu Dec 10 15:12:16 2020.

 ----------------------------------------------------------------------
 # B3LYP/6-311++G(d,p) empiricaldispersion=gd3bj scf=xqc pop=npa geom=c
 heck
 ----------------------------------------------------------------------

 ------------------------------------
 CID_59475978_JID_5144_Energie_kation
 ------------------------------------
 Structure from the checkpoint file:  "JID_5144.chk"
 Charge =  1 Multiplicity = 2

 SCF Done:  E(UB3LYP) =  -940.082437499     A.U. after   23 cycles
 Normal termination of Gaussian 16 at Thu Dec 10 15:21:05 2020.
 Gaussian 16:  ES64L-G16RevA.03 25-Dec-2016

 ----------------------------------------------------------------------
 # B3LYP/6-311++G(d,p) empiricaldispersion=gd3bj scf=xqc pop=npa geom=c
 heck
 ----------------------------------------------------------------------

 -----------------------------------
 CID_59475978_JID_5144_Energie_anion
 -----------------------------------
 Structure from the checkpoint file:  "JID_5144.chk"
 Charge = -1 Multiplicity = 2

                         Standard orientation:
 ---------------------------------------------------------------------
 Center     Atomic      Atomic             Coordinates (Angstroms)
 Number     Number       Type             X           Y           Z
 ---------------------------------------------------------------------
      1          6           0       -3.434629   -2.185306    0.000189
      2          6           0       -2.760450   -0.836736    0.000084
      3          6           0       -1.372758   -0.721967   -0.000030
      4          6           0       -0.341169   -1.843112   -0.000130
      5          6           0        0.938334   -1.056070   -0.000617
      6          6           0        0.717979    0.303151   -0.000508
      7          6           0       -0.731375    0.537313   -0.000085
      8          6           0       -1.472415    1.726179    0.000010
      9          6           0       -2.866938    1.602184    0.000138
     10          6           0       -3.497368    0.356780    0.000189
     11          6           0       -0.799950    3.075152   -0.000112
     12          6           0        1.930744    1.063373   -0.000130
     13          6           0        3.050000    0.273242    0.000219
     14         16           0        2.623414   -1.439966    0.000033
     15          6           0        4.486358    0.697991    0.000376
     16          1           0       -3.152268   -2.775789   -0.881011
     17          1           0       -4.524094   -2.084869    0.000243
     18          1           0       -3.152177   -2.775698    0.881417
     19          1           0       -0.443224   -2.492553    0.880463
     20          1           0       -0.443871   -2.492855   -0.880426
     21          1           0       -3.474131    2.504416    0.000223
     22          1           0       -4.583515    0.308172    0.000326
     23          1           0       -0.159700    3.205017    0.881585
     24          1           0       -0.160891    3.205465   -0.882617
     25          1           0       -1.537515    3.883480    0.000597
     26          1           0        1.987206    2.145648   -0.000158
     27          1           0        4.545549    1.790806    0.000552
     28          1           0        5.022835    0.332446    0.884462
     29          1           0        5.022984    0.332728   -0.883748
 ---------------------------------------------------------------------

 SCF Done:  E(UB3LYP) =  -940.327816517     A.U. after   33 cycles
 SCF Done:  E(UB3LYP) =  -940.327816516     a.u. after    2 cycles

 The electronic state is 2-A.
 Alpha  occ. eigenvalues --  -88.72217 -10.05787 -10.05433 -10.05378 -10.04832
 Alpha  occ. eigenvalues --  -10.04584 -10.04540 -10.04121 -10.03461 -10.03187
 Alpha  occ. eigenvalues --  -10.03070 -10.02941 -10.02803 -10.02440 -10.01873
 Alpha  occ. eigenvalues --   -7.80804  -5.77102  -5.76754  -5.76404  -0.75133
 Alpha  occ. eigenvalues --   -0.71943  -0.66792  -0.66078  -0.61219  -0.60019
 Alpha  occ. eigenvalues --   -0.59303  -0.55307  -0.53851  -0.51830  -0.44796
 Alpha  occ. eigenvalues --   -0.44130  -0.39968  -0.38620  -0.35736  -0.33408
 Alpha  occ. eigenvalues --   -0.32961  -0.31880  -0.30567  -0.30332  -0.29810
 Alpha  occ. eigenvalues --   -0.29154  -0.29137  -0.28320  -0.27576  -0.26327
 Alpha  occ. eigenvalues --   -0.24799  -0.23018  -0.22116  -0.22017  -0.20960
 Alpha  occ. eigenvalues --   -0.20575  -0.19941  -0.18922  -0.14037  -0.10644
 Alpha  occ. eigenvalues --   -0.10010  -0.06640   0.06523
 Alpha virt. eigenvalues --    0.07875   0.08102   0.08760   0.09675   0.10649
 Alpha virt. eigenvalues --    0.10745   0.11372   0.11636   0.12018   0.12260
 Alpha virt. eigenvalues --    0.12842   0.13326   0.13623   0.14038   0.14758

  Beta  occ. eigenvalues --  -88.72189 -10.05795 -10.05427 -10.05210 -10.04830
  Beta  occ. eigenvalues --  -10.04644 -10.04568 -10.04111 -10.03442 -10.03215
  Beta  occ. eigenvalues --  -10.02968 -10.02805 -10.02661 -10.01937 -10.01875
  Beta  occ. eigenvalues --   -7.80780  -5.77099  -5.76751  -5.76292  -0.74807
  Beta  occ. eigenvalues --   -0.71750  -0.66562  -0.65962  -0.61027  -0.59960
  Beta  occ. eigenvalues --   -0.59131  -0.55117  -0.53709  -0.51661  -0.44549
  Beta  occ. eigenvalues --   -0.43967  -0.39644  -0.38414  -0.35664  -0.33299
  Beta  occ. eigenvalues --   -0.32819  -0.31512  -0.30387  -0.30168  -0.29731
  Beta  occ. eigenvalues --   -0.29054  -0.28815  -0.28257  -0.27524  -0.26244
  Beta  occ. eigenvalues --   -0.24721  -0.22816  -0.21994  -0.21486  -0.20453
  Beta  occ. eigenvalues --   -0.20418  -0.19869  -0.18653  -0.13249  -0.10261
  Beta  occ. eigenvalues --   -0.09297  -0.05070
  Beta virt. eigenvalues --    0.07832   0.08026   0.08702   0.09667   0.10314
  Beta virt. eigenvalues --    0.10629   0.11298   0.11558   0.11857   0.12142
  Beta virt. eigenvalues --    0.12702   0.13152   0.13206   0.13907   0.14352

 Mulliken charges and spin densities:
               1          2
     1  C   -0.525133   0.030189
     2  C    1.203367  -0.120992
     3  C    0.394075   0.122276
     4  C   -0.618437  -0.218667
     5  C    0.517662   0.275389
     6  C   -0.013894  -0.003436
     7  C    0.196914   0.099337
     8  C    0.691594   0.007807
     9  C   -0.710523  -0.012297
    10  C   -1.276771   0.169030
    11  C   -0.496642  -0.024319
    12  C   -0.337311   0.040215
    13  C   -0.129372  -0.015339
    14  S   -0.923230   0.160661
    15  C   -0.194174  -0.063784
    16  H    0.133748   0.008989
    17  H    0.129508  -0.000840
    18  H    0.133998   0.008719
    19  H    0.007955   0.163828
    20  H    0.008369   0.163060
    21  H    0.069597  -0.001892
    22  H    0.068026  -0.010837
    23  H    0.112448   0.024941
    24  H    0.112164   0.025275
    25  H    0.126337  -0.001107
    26  H    0.071010  -0.001688
    27  H    0.131031   0.000003
    28  H    0.058892   0.087672
    29  H    0.058792   0.087808
 Sum of Mulliken charges =  -1.00000   1.00000

 Dipole moment (field-independent basis, Debye):
    X=             -1.6779    Y=              1.8801    Z=              0.0016  Tot=              2.5200
 Quadrupole moment (field-independent basis, Debye-Ang):
   XX=           -140.8057   YY=           -115.6458   ZZ=           -114.7734
   XY=              6.3396   XZ=             -0.0060   YZ=              0.0047

 Summary of Natural Population Analysis:

                                       Natural Population
                Natural  -----------------------------------------------
    Atom  No    Charge         Core      Valence    Rydberg      Total
 -----------------------------------------------------------------------
      C    1   -0.29460      0.99963     2.28825    0.00672     3.29460
      C    2   -0.05707      0.99952     2.04145    0.01611     3.05707
      C    3    0.07121      0.99945     1.91781    0.01152     2.92879
      C    4   -0.23920      0.99966     2.22491    0.01463     3.23920
      C    5    0.04207      0.99937     1.94583    0.01273     2.95793
      C    6   -0.08267      0.99944     2.06743    0.01580     3.08267
      C    7   -0.00621      0.99946     1.99165    0.01510     3.00621
      C    8   -0.02539      0.99948     2.01615    0.00976     3.02539
      C    9   -0.10433      0.99953     2.09465    0.01014     3.10433
      C   10   -0.09163      0.99953     2.08234    0.00976     3.09163
      C   11   -0.28938      0.99965     2.28455    0.00518     3.28938
      C   12   -0.14712      0.99942     2.12984    0.01785     3.14712
      C   13   -0.04873      0.99954     2.03775    0.01144     3.04873
      S   14    0.18864      4.99941     2.78541    0.02655     7.81136
      C   15   -0.27326      0.99968     2.26147    0.01211     3.27326
      H   16    0.10725      0.00000     0.39062    0.00212     0.39275
      H   17    0.09387      0.00000     0.40455    0.00158     0.40613
      H   18    0.10719      0.00000     0.39067    0.00214     0.39281
      H   19    0.11345      0.00000     0.38416    0.00239     0.38655
      H   20    0.11162      0.00000     0.38614    0.00224     0.38838
      H   21    0.08767      0.00000     0.41096    0.00137     0.41233
      H   22    0.08679      0.00000     0.41182    0.00139     0.41321
      H   23    0.10039      0.00000     0.39827    0.00135     0.39961
      H   24    0.10039      0.00000     0.39826    0.00134     0.39961
      H   25    0.09341      0.00000     0.40568    0.00091     0.40659
      H   26    0.09801      0.00000     0.40026    0.00173     0.40199
      H   27    0.09912      0.00000     0.39984    0.00104     0.40088
      H   28    0.09955      0.00000     0.39888    0.00157     0.40045
      H   29    0.09952      0.00000     0.39886    0.00163     0.40048
 =======================================================================
   * Total *    0.04056     18.99277    37.74846    0.21821    56.95944

 Normal termination of Gaussian 16 at Thu Dec 10 15:44:53 2020.
