 Gaussian 16, Revision A.03,

 -----------------------------------------------------------
 # opt freq B3LYP/6-31G(d) empiricaldispersion=gd3bj scf=xqc
 -----------------------------------------------------------

 ------------------------------
 CID_84072639_JID_4857_neutraal
 ------------------------------
 Symbolic Z-matrix:
 Charge =  0 Multiplicity = 1

 SCF Done:  E(RB3LYP) =  -637.087397575     A.U. after   14 cycles
 SCF Done:  E(RB3LYP) =  -637.089376983     A.U. after   12 cycles
 SCF Done:  E(RB3LYP) =  -637.089853106     A.U. after   12 cycles
 SCF Done:  E(RB3LYP) =  -637.090986226     A.U. after   12 cycles
 SCF Done:  E(RB3LYP) =  -637.091995082     A.U. after   12 cycles
 SCF Done:  E(RB3LYP) =  -637.092108073     A.U. after   10 cycles
 SCF Done:  E(RB3LYP) =  -637.092218693     A.U. after   11 cycles
 SCF Done:  E(RB3LYP) =  -637.092341400     A.U. after   11 cycles
 SCF Done:  E(RB3LYP) =  -637.092224350     A.U. after   11 cycles
 SCF Done:  E(RB3LYP) =  -637.092424987     A.U. after   11 cycles
 SCF Done:  E(RB3LYP) =  -637.092454646     A.U. after   10 cycles
 SCF Done:  E(RB3LYP) =  -637.092452966     A.U. after   10 cycles
 SCF Done:  E(RB3LYP) =  -637.092455019     A.U. after    9 cycles
 SCF Done:  E(RB3LYP) =  -637.092454849     A.U. after    7 cycles
 SCF Done:  E(RB3LYP) =  -637.092455058     A.U. after    7 cycles
 SCF Done:  E(RB3LYP) =  -637.092455188     A.U. after    8 cycles
 Optimization completed.
    -- Stationary point found.
 Normal termination of Gaussian 16 at Thu Dec 10 11:00:30 2020.

 --------------------------------------------------------------------
 #N Geom=AllCheck Guess=TCheck SCRF=Check GenChk RB3LYP/6-31G(d) Freq
 --------------------------------------------------------------------

 Structure from the checkpoint file:  "JID_4857.chk"
 ------------------------------
 CID_84072639_JID_4857_neutraal
 ------------------------------
 Charge =  0 Multiplicity = 1

 SCF Done:  E(RB3LYP) =  -637.092455188     A.U. after    1 cycles

  Exact polarizability: 137.304  -5.984 128.176   0.132   2.358 107.956
 Approx polarizability: 178.755 -16.119 177.374   1.236   6.408 166.762

                      1                      2                      3
                      A                      A                      A
 Frequencies --     33.6994                58.5990                68.1719
 Red. masses --      3.0409                 3.2623                 5.8129
 Frc consts  --      0.0020                 0.0066                 0.0159
 IR Inten    --      0.2575                 3.2298                 0.5366

                      4                      5                      6
                      A                      A                      A
 Frequencies --     92.0618               110.1700               143.5533
 Red. masses --      5.1802                 2.7954                 4.4662
 Frc consts  --      0.0259                 0.0200                 0.0542
 IR Inten    --      1.4794                 0.2991                 8.1692

                      7                      8                      9
                      A                      A                      A
 Frequencies --    186.3309               204.9860               225.0416
 Red. masses --      3.2021                 2.7399                 1.8295
 Frc consts  --      0.0655                 0.0678                 0.0546
 IR Inten    --      0.1061                 3.7064                 4.0985

                     10                     11                     12
                      A                      A                      A
 Frequencies --    250.2998               282.5873               286.9339
 Red. masses --      1.2668                 1.1135                 1.2287
 Frc consts  --      0.0468                 0.0524                 0.0596
 IR Inten    --      0.2220                20.3167                94.5984

                     13                     14                     15
                      A                      A                      A
 Frequencies --    292.8403               330.0994               340.0873
 Red. masses --      2.1629                 1.4640                 1.8093
 Frc consts  --      0.1093                 0.0940                 0.1233
 IR Inten    --      8.2615                 0.3770                15.2519

                     16                     17                     18
                      A                      A                      A
 Frequencies --    354.8138               363.8006               406.8237
 Red. masses --      1.6538                 2.6986                 2.6784
 Frc consts  --      0.1227                 0.2104                 0.2612
 IR Inten    --      7.0454                 7.4981                 6.5627

                     19                     20                     21
                      A                      A                      A
 Frequencies --    415.9636               462.3295               477.3200
 Red. masses --      2.0079                 3.4175                 1.3512
 Frc consts  --      0.2047                 0.4304                 0.1814
 IR Inten    --      0.1775                 7.4543                39.2139

                     22                     23                     24
                      A                      A                      A
 Frequencies --    487.3341               518.5562               538.8403
 Red. masses --      1.9218                 3.1162                 2.4413
 Frc consts  --      0.2689                 0.4937                 0.4176
 IR Inten    --     31.7156                 3.3404                 2.2448

                     25                     26                     27
                      A                      A                      A
 Frequencies --    592.2116               680.3682               742.3673
 Red. masses --      2.5704                 4.6619                 3.0192
 Frc consts  --      0.5311                 1.2715                 0.9804
 IR Inten    --     46.4142                12.4738                 2.4094

                     28                     29                     30
                      A                      A                      A
 Frequencies --    763.0963               790.8632               875.5993
 Red. masses --      2.9440                 2.8105                 2.6518
 Frc consts  --      1.0101                 1.0357                 1.1978
 IR Inten    --      0.1926                 2.3744                 2.1063

                     31                     32                     33
                      A                      A                      A
 Frequencies --    888.8728               913.0811               929.6630
 Red. masses --      2.2628                 2.6308                 2.1892
 Frc consts  --      1.0533                 1.2923                 1.1148
 IR Inten    --      1.5623                 8.8364                 1.6971

                     34                     35                     36
                      A                      A                      A
 Frequencies --    939.1659               945.4045               959.5362
 Red. masses --      1.9989                 1.8719                 1.7348
 Frc consts  --      1.0388                 0.9857                 0.9410
 IR Inten    --      2.5272                 2.8885                 2.0484

                     37                     38                     39
                      A                      A                      A
 Frequencies --    969.6534               973.9395              1029.3120
 Red. masses --      1.7303                 1.2165                 1.9398
 Frc consts  --      0.9585                 0.6799                 1.2109
 IR Inten    --      5.1374                 0.7489                 9.6347

                     40                     41                     42
                      A                      A                      A
 Frequencies --   1044.3260              1057.1695              1064.2468
 Red. masses --      2.0840                 1.5915                 1.5965
 Frc consts  --      1.3392                 1.0479                 1.0654
 IR Inten    --      3.1145                 5.0684                 5.7025

                     43                     44                     45
                      A                      A                      A
 Frequencies --   1081.2406              1097.2240              1114.7473
 Red. masses --      2.1384                 2.3004                 2.4633
 Frc consts  --      1.4729                 1.6317                 1.8036
 IR Inten    --     30.2225                21.3709                11.9165

                     46                     47                     48
                      A                      A                      A
 Frequencies --   1136.8355              1189.3205              1192.6260
 Red. masses --      1.9156                 1.2325                 1.2147
 Frc consts  --      1.4586                 1.0271                 1.0180
 IR Inten    --     20.6109                 4.0307                 1.2954

                     49                     50                     51
                      A                      A                      A
 Frequencies --   1229.7752              1241.6470              1257.9067
 Red. masses --      1.5527                 1.5991                 1.4839
 Frc consts  --      1.3836                 1.4525                 1.3834
 IR Inten    --      5.7414                 9.3945                 8.8015

                     52                     53                     54
                      A                      A                      A
 Frequencies --   1267.4345              1282.3716              1291.1215
 Red. masses --      1.4873                 2.2740                 2.6672
 Frc consts  --      1.4077                 2.2032                 2.6196
 IR Inten    --      0.2714                71.0748                12.3949

                     55                     56                     57
                      A                      A                      A
 Frequencies --   1309.3877              1320.1414              1329.8518
 Red. masses --      1.5317                 1.4999                 1.4511
 Frc consts  --      1.5473                 1.5401                 1.5120
 IR Inten    --     51.9559                 3.4580                16.4861

                     58                     59                     60
                      A                      A                      A
 Frequencies --   1366.1217              1371.0000              1391.5782
 Red. masses --      1.4798                 1.2280                 1.4264
 Frc consts  --      1.6272                 1.3599                 1.6275
 IR Inten    --      1.6704                 5.7613                 5.4021

                     61                     62                     63
                      A                      A                      A
 Frequencies --   1412.1118              1427.1632              1431.0814
 Red. masses --      1.4644                 1.3142                 1.3931
 Frc consts  --      1.7205                 1.5770                 1.6809
 IR Inten    --      2.7785                 0.4522                10.3307

                     64                     65                     66
                      A                      A                      A
 Frequencies --   1434.4940              1459.0260              1463.5040
 Red. masses --      1.2414                 1.7327                 1.2273
 Frc consts  --      1.5051                 2.1732                 1.5488
 IR Inten    --      8.4629                41.7993                 2.6164

                     67                     68                     69
                      A                      A                      A
 Frequencies --   1474.2852              1497.9251              1506.5572
 Red. masses --      1.5750                 1.0918                 1.0937
 Frc consts  --      2.0169                 1.4433                 1.4626
 IR Inten    --      7.8944                 4.1480                 7.9098

                     70                     71                     72
                      A                      A                      A
 Frequencies --   1509.8286              1514.4649              1519.0010
 Red. masses --      1.0777                 1.0509                 1.0496
 Frc consts  --      1.4474                 1.4202                 1.4269
 IR Inten    --      0.3740                 0.0619                 0.4317

                     73                     74                     75
                      A                      A                      A
 Frequencies --   1524.8848              1540.3271              1544.3279
 Red. masses --      1.0525                 1.0604                 1.0624
 Frc consts  --      1.4419                 1.4823                 1.4929
 IR Inten    --      2.9476                 5.0100                 6.4638

                     76                     77                     78
                      A                      A                      A
 Frequencies --   1552.5378              1559.4743              1836.2634
 Red. masses --      1.0832                 1.0560                10.3633
 Frc consts  --      1.5384                 1.5131                20.5882
 IR Inten    --      5.9343                 9.6954               499.7133

                     79                     80                     81
                      A                      A                      A
 Frequencies --   2999.5356              3024.4619              3026.0579
 Red. masses --      1.0556                 1.0585                 1.1028
 Frc consts  --      5.5958                 5.7047                 5.9498
 IR Inten    --     46.6634                19.7724                63.3783

                     82                     83                     84
                      A                      A                      A
 Frequencies --   3036.5962              3037.4718              3046.1615
 Red. masses --      1.0354                 1.0364                 1.0387
 Frc consts  --      5.6249                 5.6340                 5.6787
 IR Inten    --     25.0475                35.4828                22.1028

                     85                     86                     87
                      A                      A                      A
 Frequencies --   3050.3892              3060.3359              3064.9178
 Red. masses --      1.0645                 1.1009                 1.0694
 Frc consts  --      5.8358                 6.0749                 5.9187
 IR Inten    --     36.5315                14.4363                20.9488

                     88                     89                     90
                      A                      A                      A
 Frequencies --   3087.6650              3094.8202              3097.2034
 Red. masses --      1.1023                 1.0996                 1.0923
 Frc consts  --      6.1914                 6.2052                 6.1734
 IR Inten    --     18.2422                 5.7080                47.3394

                     91                     92                     93
                      A                      A                      A
 Frequencies --   3103.3197              3107.6237              3110.3264
 Red. masses --      1.1026                 1.1015                 1.1005
 Frc consts  --      6.2561                 6.2673                 6.2726
 IR Inten    --      0.5554                52.1283                74.3719

                     94                     95                     96
                      A                      A                      A
 Frequencies --   3110.7929              3128.6042              3133.4627
 Red. masses --      1.0976                 1.0963                 1.0949
 Frc consts  --      6.2579                 6.3226                 6.3340
 IR Inten    --     46.9944                14.5893                24.1508

                     97                     98                     99
                      A                      A                      A
 Frequencies --   3142.2326              3621.9050              3757.4179
 Red. masses --      1.0898                 1.0775                 1.0665
 Frc consts  --      6.3399                 8.3279                 8.8717
 IR Inten    --      3.9459                20.6718                19.7775

 - Thermochemistry -
 -------------------
 Temperature   298.150 Kelvin.  Pressure   1.00000 Atm.
 Atom     1 has atomic number  6 and mass  12.00000

 Molecular mass:   199.15723 amu.
 Principal axes and moments of inertia in atomic units:
                           1         2         3
     Eigenvalues --  2415.174443426.475694992.86251
           X            0.99680   0.07968  -0.00685
           Y           -0.07972   0.99680  -0.00579
           Z            0.00636   0.00632   0.99996
 This molecule is an asymmetric top.
 Rotational symmetry number  1.
 Warning -- assumption of classical behavior for rotation
           may cause significant error
 Rotational temperatures (Kelvin)      0.03586     0.02528     0.01735
 Rotational constants (GHZ):           0.74725     0.52670     0.36146
 Zero-point vibrational energy     829066.0 (Joules/Mol)
                                  198.15153 (Kcal/Mol)
 Warning -- explicit consideration of  25 degrees of freedom as
           vibrations may cause significant error
 Vibrational temperatures:     48.49    84.31    98.08   132.46   158.51
          (Kelvin)            206.54   268.09   294.93   323.78   360.13
                              406.58   412.83   421.33   474.94   489.31
                              510.50   523.43   585.33   598.48   665.19
                              686.76   701.17   746.09   775.27   852.06
                              978.90  1068.10  1097.93  1137.88  1259.79
                             1278.89  1313.72  1337.58  1351.25  1360.23
                             1380.56  1395.12  1401.28  1480.95  1502.55
                             1521.03  1531.21  1555.66  1578.66  1603.87
                             1635.65  1711.17  1715.92  1769.37  1786.45
                             1809.85  1823.56  1845.05  1857.64  1883.92
                             1899.39  1913.36  1965.54  1972.56  2002.17
                             2031.71  2053.37  2059.01  2063.92  2099.21
                             2105.66  2121.17  2155.18  2167.60  2172.31
                             2178.98  2185.50  2193.97  2216.19  2221.94
                             2233.76  2243.74  2641.97  4315.66  4351.53
                             4353.82  4368.98  4370.24  4382.75  4388.83
                             4403.14  4409.73  4442.46  4452.76  4456.18
                             4464.98  4471.18  4475.07  4475.74  4501.36
                             4508.35  4520.97  5211.11  5406.09

 Zero-point correction=                           0.315775 (Hartree/Particle)
 Thermal correction to Energy=                    0.331317
 Thermal correction to Enthalpy=                  0.332261
 Thermal correction to Gibbs Free Energy=         0.273352
 Sum of electronic and zero-point Energies=           -636.776681
 Sum of electronic and thermal Energies=              -636.761138
 Sum of electronic and thermal Enthalpies=            -636.760194
 Sum of electronic and thermal Free Energies=         -636.819103

                     E (Thermal)             CV                S
                      KCal/Mol        Cal/Mol-Kelvin    Cal/Mol-Kelvin
 Total                  207.905             59.654            123.985
 Electronic               0.000              0.000              0.000
 Translational            0.889              2.981             41.772
 Rotational               0.889              2.981             32.091
 Vibrational            206.127             53.693             50.123
 Vibration     1          0.594              1.983              5.599
 Vibration     2          0.596              1.974              4.504
 Vibration     3          0.598              1.969              4.205
 Vibration     4          0.602              1.955              3.616
 Vibration     5          0.606              1.941              3.266
 Vibration     6          0.616              1.910              2.756
 Vibration     7          0.632              1.859              2.264
 Vibration     8          0.640              1.833              2.088
 Vibration     9          0.650              1.803              1.918
 Vibration    10          0.663              1.762              1.728
 Vibration    11          0.682              1.706              1.518
 Vibration    12          0.684              1.698              1.492
 Vibration    13          0.688              1.687              1.457
 Vibration    14          0.713              1.615              1.260
 Vibration    15          0.720              1.595              1.212
 Vibration    16          0.731              1.565              1.145
 Vibration    17          0.737              1.547              1.106
 Vibration    18          0.772              1.455              0.938
 Vibration    19          0.779              1.436              0.906
 Vibration    20          0.820              1.334              0.759
 Vibration    21          0.834              1.300              0.717
 Vibration    22          0.843              1.278              0.691
 Vibration    23          0.874              1.209              0.613
 Vibration    24          0.894              1.164              0.568
 Vibration    25          0.950              1.048              0.463

 Optimization completed.
    -- Stationary point found.
 Normal termination of Gaussian 16 at Thu Dec 10 11:13:25 2020.

 ----------------------------------------------------------------------
 # B3LYP/6-311++G(d,p) empiricaldispersion=gd3bj scf=xqc pop=npa geom=c
 heck
 ----------------------------------------------------------------------

 --------------------------------------
 CID_84072639_JID_4857_Energie_neutraal
 --------------------------------------
 Structure from the checkpoint file:  "JID_4857.chk"
 Charge =  0 Multiplicity = 1

 SCF Done:  E(RB3LYP) =  -637.288428705     A.U. after   14 cycles
 Normal termination of Gaussian 16 at Thu Dec 10 11:19:35 2020.

 ----------------------------------------------------------------------
 # B3LYP/6-311++G(d,p) empiricaldispersion=gd3bj scf=xqc pop=npa geom=c
 heck
 ----------------------------------------------------------------------

 ------------------------------------
 CID_84072639_JID_4857_Energie_kation
 ------------------------------------
 Structure from the checkpoint file:  "JID_4857.chk"
 Charge =  1 Multiplicity = 2

 SCF Done:  E(UB3LYP) =  -636.964157567     A.U. after   27 cycles
 Normal termination of Gaussian 16 at Thu Dec 10 11:36:11 2020.
 Gaussian 16:  ES64L-G16RevA.03 25-Dec-2016

 ----------------------------------------------------------------------
 # B3LYP/6-311++G(d,p) empiricaldispersion=gd3bj scf=xqc pop=npa geom=c
 heck
 ----------------------------------------------------------------------

 -----------------------------------
 CID_84072639_JID_4857_Energie_anion
 -----------------------------------
 Structure from the checkpoint file:  "JID_4857.chk"
 Charge = -1 Multiplicity = 2

                         Standard orientation:
 ---------------------------------------------------------------------
 Center     Atomic      Atomic             Coordinates (Angstroms)
 Number     Number       Type             X           Y           Z
 ---------------------------------------------------------------------
      1          6           0       -2.312614    0.406751    1.085487
      2          6           0       -2.209760   -0.747848    0.074296
      3          6           0       -3.117361   -1.895711    0.556801
      4          6           0       -2.713258   -0.268543   -1.298463
      5          6           0       -0.775084   -1.326190   -0.039480
      6          6           0        0.342092   -0.446813   -0.633554
      7          6           0        1.547187   -1.309803   -1.070587
      8          6           0        2.508245   -1.286361    0.118638
      9          8           0        3.476519   -2.001880    0.308139
     10          7           0        2.071777   -0.279333    0.938217
     11          6           0        0.980614    0.528192    0.401860
     12          6           0        1.502631    1.834002   -0.224407
     13          6           0        0.405975    2.801762   -0.645342
     14          8           0       -0.293492    3.206829    0.530405
     15          1           0       -1.756314    1.295527    0.774802
     16          1           0       -1.936278    0.102604    2.069994
     17          1           0       -3.362025    0.701321    1.212188
     18          1           0       -4.153995   -1.555174    0.664074
     19          1           0       -3.109524   -2.733610   -0.150654
     20          1           0       -2.786422   -2.275684    1.530769
     21          1           0       -2.155700    0.604031   -1.657227
     22          1           0       -2.623995   -1.059302   -2.053467
     23          1           0       -3.769036    0.021229   -1.240457
     24          1           0       -0.452997   -1.678509    0.950464
     25          1           0       -0.850858   -2.224701   -0.666539
     26          1           0       -0.050811    0.115318   -1.484823
     27          1           0        2.071732   -0.883599   -1.934590
     28          1           0        1.283578   -2.338522   -1.328409
     29          1           0        2.632646    0.009009    1.728675
     30          1           0        0.282688    0.775510    1.202626
     31          1           0        2.147498    2.345147    0.501325
     32          1           0        2.127301    1.598108   -1.095676
     33          1           0        0.855806    3.669364   -1.151637
     34          1           0       -0.277557    2.320042   -1.361705
     35          1           0       -1.034404    3.771000    0.262896
 ---------------------------------------------------------------------

 SCF Done:  E(UB3LYP) =  -637.280975040     A.U. after   31 cycles

 The electronic state is 2-A.
 Alpha  occ. eigenvalues --  -19.02009 -18.99835 -14.24428 -10.17932 -10.11910
 Alpha  occ. eigenvalues --  -10.11580 -10.09048 -10.08884 -10.08592 -10.07679
 Alpha  occ. eigenvalues --  -10.07391 -10.06519 -10.05775 -10.05390  -0.94731
 Alpha  occ. eigenvalues --   -0.92066  -0.85055  -0.73674  -0.69867  -0.67877
 Alpha  occ. eigenvalues --   -0.61568  -0.59180  -0.58858  -0.58102  -0.51690
 Alpha  occ. eigenvalues --   -0.49995  -0.48751  -0.44286  -0.42699  -0.40676
 Alpha  occ. eigenvalues --   -0.38621  -0.36554  -0.36254  -0.35313  -0.34666
 Alpha  occ. eigenvalues --   -0.33933  -0.33409  -0.31391  -0.30922  -0.30500
 Alpha  occ. eigenvalues --   -0.29929  -0.28949  -0.28322  -0.27838  -0.27265
 Alpha  occ. eigenvalues --   -0.26672  -0.25286  -0.24320  -0.23737  -0.22615
 Alpha  occ. eigenvalues --   -0.22103  -0.21479  -0.17987  -0.16742  -0.15999
 Alpha  occ. eigenvalues --    0.04080
 Alpha virt. eigenvalues --    0.06493   0.07093   0.07477   0.08549   0.08715
 Alpha virt. eigenvalues --    0.09218   0.09648   0.10356   0.10578   0.11458
 Alpha virt. eigenvalues --    0.11621   0.11952   0.12170   0.12913   0.13325

  Beta  occ. eigenvalues --  -19.01960 -18.99834 -14.24424 -10.17932 -10.11908
  Beta  occ. eigenvalues --  -10.11534 -10.09040 -10.08881 -10.08580 -10.07667
  Beta  occ. eigenvalues --  -10.07382 -10.06503 -10.05739 -10.05369  -0.94728
  Beta  occ. eigenvalues --   -0.91962  -0.85047  -0.73659  -0.69844  -0.67834
  Beta  occ. eigenvalues --   -0.61534  -0.59136  -0.58808  -0.58050  -0.51624
  Beta  occ. eigenvalues --   -0.49977  -0.48705  -0.44237  -0.42578  -0.40626
  Beta  occ. eigenvalues --   -0.38588  -0.36528  -0.36230  -0.35297  -0.34635
  Beta  occ. eigenvalues --   -0.33910  -0.33388  -0.31373  -0.30893  -0.30470
  Beta  occ. eigenvalues --   -0.29904  -0.28919  -0.28292  -0.27812  -0.27236
  Beta  occ. eigenvalues --   -0.26645  -0.25252  -0.24278  -0.23695  -0.22589
  Beta  occ. eigenvalues --   -0.22079  -0.21457  -0.17940  -0.16729  -0.15988
  Beta virt. eigenvalues --    0.06322   0.07185   0.07725   0.08065   0.08899
  Beta virt. eigenvalues --    0.09214   0.09470   0.10121   0.10656   0.10880
  Beta virt. eigenvalues --    0.11543   0.11939   0.12144   0.12566   0.13032

 Mulliken charges and spin densities:
               1          2
     1  C    0.022634  -0.677716
     2  C   -1.326452   2.182092
     3  C   -0.279177  -0.299063
     4  C    0.884729  -1.476321
     5  C    0.525285  -1.971247
     6  C    0.017005   0.942022
     7  C    0.583506  -1.016798
     8  C   -0.080737   0.061814
     9  O   -0.382812   0.009444
    10  N   -0.173286  -0.002868
    11  C    0.098304  -0.285832
    12  C   -1.595329   1.243193
    13  C    1.754617  -2.169775
    14  O   -0.267105   0.029957
    15  H    0.597949  -0.478395
    16  H    0.039797   0.099884
    17  H   -0.318639   0.470291
    18  H    0.102508   0.049738
    19  H   -0.092524   0.219329
    20  H   -0.004896   0.128659
    21  H   -0.280649   0.416507
    22  H   -0.151428   0.299272
    23  H   -0.294118   0.449498
    24  H    0.219018  -0.016225
    25  H    0.182967  -0.057090
    26  H    0.231026  -0.030634
    27  H   -0.054357   0.238726
    28  H    0.059658   0.139637
    29  H    0.238677   0.066724
    30  H    0.188415   0.087157
    31  H    0.042655   0.134180
    32  H    0.016014   0.135220
    33  H   -0.755685   0.933006
    34  H   -0.420805   0.541463
    35  H   -0.326766   0.604153
 Sum of Mulliken charges =  -1.00000   1.00000

 Dipole moment (field-independent basis, Debye):
    X=              2.0963    Y=             -5.0977    Z=              2.7720  Tot=              6.1697
 Quadrupole moment (field-independent basis, Debye-Ang):
   XX=           -152.9913   YY=           -159.2188   ZZ=           -120.8437
   XY=             15.4994   XZ=             -2.2419   YZ=              6.3278

 Summary of Natural Population Analysis:

                                       Natural Population
                Natural  -----------------------------------------------
    Atom  No    Charge         Core      Valence    Rydberg      Total
 -----------------------------------------------------------------------
      C    1   -0.29146      0.99962     2.28391    0.00792     3.29146
      C    2   -0.05110      0.99959     2.04028    0.01123     3.05110
      C    3   -0.28060      0.99963     2.27484    0.00613     3.28060
      C    4   -0.28583      0.99962     2.27829    0.00792     3.28583
      C    5   -0.17518      0.99958     2.16775    0.00785     3.17518
      C    6   -0.11750      0.99959     2.10635    0.01156     3.11750
      C    7   -0.23272      0.99959     2.22392    0.00921     3.23272
      C    8    0.34471      0.99967     1.63221    0.02341     2.65529
      O    9   -0.32424      0.99987     3.31847    0.00590     4.32424
      N   10   -0.32091      0.99966     2.81278    0.00848     3.82091
      C   11   -0.00979      0.99957     1.99801    0.01220     3.00979
      C   12   -0.20096      0.99960     2.19100    0.01036     3.20096
      C   13   -0.00935      0.99960     1.99747    0.01228     3.00935
      O   14   -0.37589      0.99989     3.36900    0.00700     4.37589
      H   15    0.11123      0.00000     0.38689    0.00189     0.38877
      H   16    0.09533      0.00000     0.40375    0.00092     0.40467
      H   17    0.09995      0.00000     0.39906    0.00099     0.40005
      H   18    0.09964      0.00000     0.39950    0.00086     0.40036
      H   19    0.09760      0.00000     0.40153    0.00087     0.40240
      H   20    0.09715      0.00000     0.40200    0.00085     0.40285
      H   21    0.10175      0.00000     0.39643    0.00182     0.39825
      H   22    0.09770      0.00000     0.40120    0.00110     0.40230
      H   23    0.10184      0.00000     0.39701    0.00115     0.39816
      H   24    0.09801      0.00000     0.40066    0.00133     0.40199
      H   25    0.09657      0.00000     0.40229    0.00114     0.40343
      H   26    0.10717      0.00000     0.39037    0.00246     0.39283
      H   27    0.11293      0.00000     0.38598    0.00108     0.38707
      H   28    0.11032      0.00000     0.38864    0.00103     0.38968
      H   29    0.19487      0.00000     0.30317    0.00197     0.30513
      H   30    0.10746      0.00000     0.39025    0.00229     0.39254
      H   31    0.10030      0.00000     0.39843    0.00127     0.39970
      H   32    0.10045      0.00000     0.39815    0.00139     0.39955
      H   33    0.08202      0.00000     0.41540    0.00258     0.41798
      H   34    0.07899      0.00000     0.41759    0.00341     0.42101
      H   35    0.23956      0.00000     0.24965    0.01079     0.26044
 =======================================================================
   * Total *    0.00004     13.99509    40.82223    0.18264    54.99996

 Normal termination of Gaussian 16 at Thu Dec 10 11:54:43 2020.
