 Gaussian 16, Revision A.03,

 -----------------------------------------------------------
 # opt freq B3LYP/6-31G(d) empiricaldispersion=gd3bj scf=xqc
 -----------------------------------------------------------

 -------------------------------
 CID_130940596_JID_2806_neutraal
 -------------------------------
 Symbolic Z-matrix:
 Charge =  0 Multiplicity = 1

 SCF Done:  E(RB3LYP) =  -1199.54851455     A.U. after   15 cycles
 SCF Done:  E(RB3LYP) =  -1199.55521757     A.U. after   12 cycles
 SCF Done:  E(RB3LYP) =  -1199.55602279     A.U. after   11 cycles
 SCF Done:  E(RB3LYP) =  -1199.55631555     A.U. after   11 cycles
 SCF Done:  E(RB3LYP) =  -1199.55639967     A.U. after   11 cycles
 SCF Done:  E(RB3LYP) =  -1199.55644268     A.U. after   11 cycles
 SCF Done:  E(RB3LYP) =  -1199.55645458     A.U. after   10 cycles
 SCF Done:  E(RB3LYP) =  -1199.55646386     A.U. after   10 cycles
 SCF Done:  E(RB3LYP) =  -1199.55647849     A.U. after   11 cycles
 SCF Done:  E(RB3LYP) =  -1199.55649022     A.U. after   11 cycles
 SCF Done:  E(RB3LYP) =  -1199.55685830     A.U. after   10 cycles
 SCF Done:  E(RB3LYP) =  -1199.55686006     A.U. after   10 cycles
 SCF Done:  E(RB3LYP) =  -1199.55686060     A.U. after    9 cycles
 SCF Done:  E(RB3LYP) =  -1199.55686083     A.U. after   10 cycles
 SCF Done:  E(RB3LYP) =  -1199.55686089     A.U. after    8 cycles
 Optimization completed.
    -- Stationary point found.
 Normal termination of Gaussian 16 at Wed Dec  9 18:09:39 2020.

 --------------------------------------------------------------------
 #N Geom=AllCheck Guess=TCheck SCRF=Check GenChk RB3LYP/6-31G(d) Freq
 --------------------------------------------------------------------

 Structure from the checkpoint file:  "JID_2806.chk"
 -------------------------------
 CID_130940596_JID_2806_neutraal
 -------------------------------
 Charge =  0 Multiplicity = 1

 SCF Done:  E(RB3LYP) =  -1199.55686089     A.U. after    1 cycles

  Exact polarizability: 184.794  -7.397 161.600  -0.400  -1.113  56.994
 Approx polarizability: 287.457 -22.299 292.181  -2.117  -0.383  90.456

                      1                      2                      3
                      A                      A                      A
 Frequencies --     53.7035                98.8260               107.2998
 Red. masses --      1.8615                 1.7864                 1.1067
 Frc consts  --      0.0032                 0.0103                 0.0075
 IR Inten    --     11.8637                10.9442                 1.5821

                      4                      5                      6
                      A                      A                      A
 Frequencies --    123.7697               162.8233               190.7005
 Red. masses --      4.2268                 7.3983                 2.6485
 Frc consts  --      0.0382                 0.1156                 0.0567
 IR Inten    --      2.4660                 2.5549                 4.3760

                      7                      8                      9
                      A                      A                      A
 Frequencies --    229.4566               246.2759               277.6195
 Red. masses --      1.1434                 5.7191                 3.1737
 Frc consts  --      0.0355                 0.2044                 0.1441
 IR Inten    --     37.3957                 1.4208                 0.0932

                     10                     11                     12
                      A                      A                      A
 Frequencies --    316.3087               332.5530               388.1298
 Red. masses --      3.6287                 4.7103                 8.7173
 Frc consts  --      0.2139                 0.3069                 0.7737
 IR Inten    --      0.4419                 5.2719                 0.1554

                     13                     14                     15
                      A                      A                      A
 Frequencies --    467.4084               480.3764               512.3966
 Red. masses --      6.0660                 6.9434                 4.6771
 Frc consts  --      0.7808                 0.9440                 0.7235
 IR Inten    --      1.1326                10.6891                 0.0176

                     16                     17                     18
                      A                      A                      A
 Frequencies --    526.9126               534.9260               557.3276
 Red. masses --      4.0786                 5.7696                 7.5051
 Frc consts  --      0.6672                 0.9727                 1.3735
 IR Inten    --     40.9576                 5.2227                 1.2012

                     19                     20                     21
                      A                      A                      A
 Frequencies --    613.3803               691.1427               711.8812
 Red. masses --      3.7105                 1.7279                 4.1525
 Frc consts  --      0.8225                 0.4863                 1.2399
 IR Inten    --     40.8643               332.0605                 7.6602

                     22                     23                     24
                      A                      A                      A
 Frequencies --    724.3589               764.8619               777.8124
 Red. masses --      2.4470                 5.8990                 1.7137
 Frc consts  --      0.7565                 2.0333                 0.6109
 IR Inten    --      7.0183                14.7089                32.7660

                     25                     26                     27
                      A                      A                      A
 Frequencies --    853.1353               866.3928               949.8533
 Red. masses --      3.6561                 1.3925                 1.2006
 Frc consts  --      1.5679                 0.6158                 0.6382
 IR Inten    --     20.7187                 0.8770                 4.7101

                     28                     29                     30
                      A                      A                      A
 Frequencies --    952.5594               995.6263              1067.3433
 Red. masses --      1.2595                 1.8928                 2.9132
 Frc consts  --      0.6733                 1.1055                 1.9554
 IR Inten    --      0.2551                 2.0484                24.5883

                     31                     32                     33
                      A                      A                      A
 Frequencies --   1071.3300              1099.9082              1148.4454
 Red. masses --      1.9124                 2.6304                 1.9557
 Frc consts  --      1.2933                 1.8749                 1.5198
 IR Inten    --      6.0111                11.9704                13.4597

                     34                     35                     36
                      A                      A                      A
 Frequencies --   1181.3143              1217.6219              1251.9108
 Red. masses --      1.5104                 1.7529                 1.6812
 Frc consts  --      1.2419                 1.5312                 1.5524
 IR Inten    --      4.9809                 4.3591                22.5139

                     37                     38                     39
                      A                      A                      A
 Frequencies --   1297.2330              1369.7139              1397.0240
 Red. masses --      2.9753                 7.6058                 2.8891
 Frc consts  --      2.9500                 8.4073                 3.3222
 IR Inten    --     23.2795                 6.7746                14.8127

                     40                     41                     42
                      A                      A                      A
 Frequencies --   1440.7872              1459.0267              1501.4467
 Red. masses --      1.7108                 2.1129                 2.2328
 Frc consts  --      2.0925                 2.6500                 2.9657
 IR Inten    --     28.4760                43.9867                35.4104

                     43                     44                     45
                      A                      A                      A
 Frequencies --   1513.2309              1527.9228              1604.6062
 Red. masses --      1.1426                 1.0828                 5.5007
 Frc consts  --      1.5415                 1.4894                 8.3446
 IR Inten    --      8.9611                 4.4365                51.2176

                     46                     47                     48
                      A                      A                      A
 Frequencies --   1623.9279              1653.3896              1691.6096
 Red. masses --      5.4524                 3.3913                 1.4006
 Frc consts  --      8.4717                 5.4622                 2.3614
 IR Inten    --     61.2611                22.2638               127.0247

                     49                     50                     51
                      A                      A                      A
 Frequencies --   2700.8917              3034.3971              3087.0077
 Red. masses --      1.0384                 1.0371                 1.1000
 Frc consts  --      4.4632                 5.6263                 6.1760
 IR Inten    --     13.4113                46.2035                23.6391

                     52                     53                     54
                      A                      A                      A
 Frequencies --   3103.7517              3186.0497              3198.7038
 Red. masses --      1.1007                 1.0857                 1.0904
 Frc consts  --      6.2474                 6.4931                 6.5734
 IR Inten    --     23.8674                 3.3009                15.4911

                     55                     56                     57
                      A                      A                      A
 Frequencies --   3211.1909              3528.4354              3627.7011
 Red. masses --      1.0958                 1.0480                 1.0967
 Frc consts  --      6.6578                 7.6874                 8.5035
 IR Inten    --     23.1349                12.8937                 9.6348

 - Thermochemistry -
 -------------------
 Temperature   298.150 Kelvin.  Pressure   1.00000 Atm.
 Atom     1 has atomic number  6 and mass  12.00000

 Molecular mass:   195.01764 amu.
 Principal axes and moments of inertia in atomic units:
                           1         2         3
     Eigenvalues --  1554.031102963.478374503.36940
           X            0.99999  -0.00288   0.00207
           Y            0.00289   0.99999  -0.00295
           Z           -0.00207   0.00296   0.99999
 This molecule is an asymmetric top.
 Rotational symmetry number  1.
 Warning -- assumption of classical behavior for rotation
           may cause significant error
 Rotational temperatures (Kelvin)      0.05573     0.02923     0.01923
 Rotational constants (GHZ):           1.16133     0.60899     0.40075
 Zero-point vibrational energy     414528.4 (Joules/Mol)
                                   99.07467 (Kcal/Mol)
 Warning -- explicit consideration of  19 degrees of freedom as
           vibrations may cause significant error
 Vibrational temperatures:     77.27   142.19   154.38   178.08   234.27
          (Kelvin)            274.38   330.14   354.34   399.43   455.10
                              478.47   558.43   672.50   691.15   737.22
                              758.11   769.64   801.87   882.52   994.40
                             1024.24  1042.19  1100.47  1119.10  1227.47
                             1246.55  1366.63  1370.52  1432.48  1535.67
                             1541.40  1582.52  1652.36  1699.65  1751.89
                             1801.22  1866.43  1970.71  2010.01  2072.97
                             2099.21  2160.25  2177.20  2198.34  2308.67
                             2336.47  2378.86  2433.85  3885.98  4365.82
                             4441.52  4465.61  4584.01  4602.22  4620.19
                             5076.63  5219.45

 Zero-point correction=                           0.157886 (Hartree/Particle)
 Thermal correction to Energy=                    0.169861
 Thermal correction to Enthalpy=                  0.170805
 Thermal correction to Gibbs Free Energy=         0.119551
 Sum of electronic and zero-point Energies=          -1199.398975
 Sum of electronic and thermal Energies=             -1199.387000
 Sum of electronic and thermal Enthalpies=           -1199.386055
 Sum of electronic and thermal Free Energies=        -1199.437310

                     E (Thermal)             CV                S
                      KCal/Mol        Cal/Mol-Kelvin    Cal/Mol-Kelvin
 Total                  106.590             44.726            107.873
 Electronic               0.000              0.000              0.000
 Translational            0.889              2.981             41.709
 Rotational               0.889              2.981             31.406
 Vibrational            104.812             38.764             34.758
 Vibration     1          0.596              1.976              4.676
 Vibration     2          0.604              1.950              3.477
 Vibration     3          0.606              1.943              3.317
 Vibration     4          0.610              1.929              3.041
 Vibration     5          0.623              1.888              2.517
 Vibration     6          0.634              1.853              2.221
 Vibration     7          0.652              1.796              1.883
 Vibration     8          0.661              1.769              1.757
 Vibration     9          0.679              1.715              1.548
 Vibration    10          0.703              1.642              1.329
 Vibration    11          0.714              1.610              1.248
 Vibration    12          0.756              1.496              1.007
 Vibration    13          0.825              1.322              0.745
 Vibration    14          0.837              1.294              0.709
 Vibration    15          0.867              1.223              0.628
 Vibration    16          0.882              1.190              0.594
 Vibration    17          0.890              1.173              0.576
 Vibration    18          0.913              1.124              0.529
 Vibration    19          0.973              1.004              0.427

 Optimization completed.
    -- Stationary point found.
 Normal termination of Gaussian 16 at Wed Dec  9 18:14:36 2020.

 ----------------------------------------------------------------------
 # B3LYP/6-311++G(d,p) empiricaldispersion=gd3bj scf=xqc pop=npa geom=c
 heck
 ----------------------------------------------------------------------

 ---------------------------------------
 CID_130940596_JID_2806_Energie_neutraal
 ---------------------------------------
 Structure from the checkpoint file:  "JID_2806.chk"
 Charge =  0 Multiplicity = 1

 SCF Done:  E(RB3LYP) =  -1199.72200125     A.U. after   15 cycles
 Normal termination of Gaussian 16 at Wed Dec  9 18:16:28 2020.

 ----------------------------------------------------------------------
 # B3LYP/6-311++G(d,p) empiricaldispersion=gd3bj scf=xqc pop=npa geom=c
 heck
 ----------------------------------------------------------------------

 -------------------------------------
 CID_130940596_JID_2806_Energie_kation
 -------------------------------------
 Structure from the checkpoint file:  "JID_2806.chk"
 Charge =  1 Multiplicity = 2

 SCF Done:  E(UB3LYP) =  -1199.45767443     A.U. after   24 cycles
 Normal termination of Gaussian 16 at Wed Dec  9 18:20:27 2020.
 Gaussian 16:  ES64L-G16RevA.03 25-Dec-2016

 ----------------------------------------------------------------------
 # B3LYP/6-311++G(d,p) empiricaldispersion=gd3bj scf=xqc pop=npa geom=c
 heck
 ----------------------------------------------------------------------

 ------------------------------------
 CID_130940596_JID_2806_Energie_anion
 ------------------------------------
 Structure from the checkpoint file:  "JID_2806.chk"
 Charge = -1 Multiplicity = 2

                         Standard orientation:
 ---------------------------------------------------------------------
 Center     Atomic      Atomic             Coordinates (Angstroms)
 Number     Number       Type             X           Y           Z
 ---------------------------------------------------------------------
      1          6           0        3.021186    1.511347    0.026769
      2          6           0        1.870184    0.547371    0.001949
      3          6           0        1.986524   -0.815004    0.001479
      4         16           0        0.429003   -1.656552   -0.027078
      5          6           0       -0.420720   -0.114784   -0.009537
      6          6           0        0.488267    0.971165   -0.016461
      7          6           0       -0.022771    2.278366   -0.015045
      8          6           0       -1.399390    2.473161   -0.002119
      9          6           0       -2.287241    1.391061    0.006572
     10          6           0       -1.804636    0.078349    0.005330
     11         16           0       -2.873296   -1.350825    0.007178
     12          7           0        3.136010   -1.595216   -0.070366
     13          1           0        2.829301    2.329945    0.730461
     14          1           0        3.204276    1.962974   -0.957156
     15          1           0        3.954599    1.031835    0.343489
     16          1           0        0.652616    3.128163   -0.026832
     17          1           0       -1.800614    3.482617   -0.001923
     18          1           0       -3.358023    1.571644    0.010055
     19          1           0       -4.028477   -0.667442    0.129495
     20          1           0        3.988966   -1.064589    0.065051
     21          1           0        3.125559   -2.416787    0.524688
 ---------------------------------------------------------------------

 SCF Done:  E(UB3LYP) =  -1199.71249831     A.U. after   33 cycles
 SCF Done:  E(UB3LYP) =  -1199.71249831     a.u. after    1 cycles

 The electronic state is 2-A.
 Alpha  occ. eigenvalues --  -88.76573 -88.75741 -14.21819 -10.13199 -10.11663
 Alpha  occ. eigenvalues --  -10.10159 -10.08410 -10.07834 -10.07562 -10.07332
 Alpha  occ. eigenvalues --  -10.06982 -10.06852  -7.85170  -7.84442  -5.81498
 Alpha  occ. eigenvalues --   -5.81149  -5.80820  -5.80669  -5.80443  -5.79850
 Alpha  occ. eigenvalues --   -0.82670  -0.78217  -0.72358  -0.69732  -0.65913
 Alpha  occ. eigenvalues --   -0.62075  -0.60274  -0.57130  -0.50289  -0.49344
 Alpha  occ. eigenvalues --   -0.44938  -0.41621  -0.39670  -0.38529  -0.34977
 Alpha  occ. eigenvalues --   -0.34194  -0.32858  -0.32624  -0.31430  -0.29480
 Alpha  occ. eigenvalues --   -0.28563  -0.27048  -0.26276  -0.25122  -0.25058
 Alpha  occ. eigenvalues --   -0.22719  -0.20751  -0.19390  -0.14710  -0.11679
 Alpha  occ. eigenvalues --   -0.09566   0.04305
 Alpha virt. eigenvalues --    0.05492   0.07379   0.07731   0.08330   0.08775
 Alpha virt. eigenvalues --    0.08822   0.10041   0.10536   0.10955   0.12069
 Alpha virt. eigenvalues --    0.12886   0.13480   0.13685   0.13859   0.14561

  Beta  occ. eigenvalues --  -88.76570 -88.75719 -14.21717 -10.13167 -10.11665
  Beta  occ. eigenvalues --  -10.10109 -10.08407 -10.07832 -10.07539 -10.07331
  Beta  occ. eigenvalues --  -10.06931 -10.06854  -7.85167  -7.84420  -5.81484
  Beta  occ. eigenvalues --   -5.81150  -5.80760  -5.80667  -5.80430  -5.79835
  Beta  occ. eigenvalues --   -0.82550  -0.78151  -0.72288  -0.69681  -0.65843
  Beta  occ. eigenvalues --   -0.62012  -0.60189  -0.57045  -0.50197  -0.49292
  Beta  occ. eigenvalues --   -0.44846  -0.41524  -0.39564  -0.38473  -0.34890
  Beta  occ. eigenvalues --   -0.34080  -0.32804  -0.32561  -0.31357  -0.29439
  Beta  occ. eigenvalues --   -0.28489  -0.26936  -0.26213  -0.25072  -0.24964
  Beta  occ. eigenvalues --   -0.22627  -0.20730  -0.19324  -0.14678  -0.11632
  Beta  occ. eigenvalues --   -0.09505
  Beta virt. eigenvalues --    0.06609   0.07212   0.07644   0.08094   0.08750
  Beta virt. eigenvalues --    0.09062   0.09410   0.10602   0.10712   0.11499
  Beta virt. eigenvalues --    0.12298   0.13232   0.13560   0.13716   0.14247

 Mulliken charges and spin densities:
               1          2
     1  C    1.337958  -1.991741
     2  C   -0.236047   0.974262
     3  C   -0.300458  -0.180970
     4  S   -0.401751  -0.143896
     5  C   -0.622268  -0.068316
     6  C    0.997608  -0.073556
     7  C   -0.270378  -0.264291
     8  C   -0.069184  -0.427810
     9  C    1.163336  -0.393468
    10  C   -0.139834   0.573184
    11  S   -0.159065  -0.532585
    12  N   -0.123948  -0.119772
    13  H   -0.023000   0.144184
    14  H    0.007479   0.153010
    15  H   -0.652212   0.791370
    16  H    0.109427   0.019789
    17  H    0.077434   0.075239
    18  H   -0.529365   0.676676
    19  H   -0.397735   0.512668
    20  H   -0.185015   0.433641
    21  H   -0.582985   0.842384
 Sum of Mulliken charges =  -1.00000   1.00000

 Dipole moment (field-independent basis, Debye):
    X=             -4.4612    Y=              3.0997    Z=             -1.0356  Tot=              5.5302
 Quadrupole moment (field-independent basis, Debye-Ang):
   XX=           -175.1545   YY=           -117.3616   ZZ=           -107.6273
   XY=             13.6835   XZ=             -5.2268   YZ=              1.9443

 Summary of Natural Population Analysis:

                                       Natural Population
                Natural  -----------------------------------------------
    Atom  No    Charge         Core      Valence    Rydberg      Total
 -----------------------------------------------------------------------
      C    1   -0.28867      0.99964     2.28283    0.00620     3.28867
      C    2   -0.08131      0.99938     2.07092    0.01100     3.08131
      C    3    0.03799      0.99940     1.94592    0.01670     2.96201
      S    4    0.18775      4.99943     2.79434    0.01848     7.81225
      C    5   -0.09643      0.99933     2.08499    0.01211     3.09643
      C    6   -0.02390      0.99944     2.01432    0.01013     3.02390
      C    7   -0.11196      0.99952     2.10340    0.00903     3.11196
      C    8   -0.10073      0.99957     2.09127    0.00989     3.10073
      C    9   -0.12467      0.99950     2.11364    0.01154     3.12467
      C   10   -0.08643      0.99932     2.07616    0.01096     3.08643
      S   11    0.02044      4.99957     2.96334    0.01665     7.97956
      N   12   -0.39773      0.99969     2.88545    0.01259     3.89773
      H   13    0.10175      0.00000     0.39723    0.00102     0.39825
      H   14    0.10198      0.00000     0.39706    0.00096     0.39802
      H   15    0.10516      0.00000     0.39324    0.00160     0.39484
      H   16    0.10056      0.00000     0.39851    0.00093     0.39944
      H   17    0.09831      0.00000     0.40094    0.00075     0.40169
      H   18    0.10266      0.00000     0.39556    0.00177     0.39734
      H   19    0.06653      0.00000     0.42916    0.00431     0.43347
      H   20    0.19455      0.00000     0.29727    0.00818     0.30545
      H   21    0.19414      0.00000     0.29707    0.00879     0.30586
 =======================================================================
   * Total *   -0.00000     19.99379    30.83262    0.17359    51.00000

 Normal termination of Gaussian 16 at Wed Dec  9 18:26:14 2020.
