 Gaussian 16, Revision A.03,

 -----------------------------------------------------------
 # opt freq B3LYP/6-31G(d) empiricaldispersion=gd3bj scf=xqc
 -----------------------------------------------------------

 -------------------------------
 CID_106554771_JID_3930_neutraal
 -------------------------------
 Symbolic Z-matrix:
 Charge =  0 Multiplicity = 1

 SCF Done:  E(RB3LYP) =  -556.812248387     A.U. after   14 cycles
 SCF Done:  E(RB3LYP) =  -556.817511880     A.U. after   12 cycles
 SCF Done:  E(RB3LYP) =  -556.818455183     A.U. after   12 cycles
 SCF Done:  E(RB3LYP) =  -556.818704899     A.U. after   11 cycles
 SCF Done:  E(RB3LYP) =  -556.818473274     A.U. after   12 cycles
 SCF Done:  E(RB3LYP) =  -556.819018104     A.U. after   11 cycles
 SCF Done:  E(RB3LYP) =  -556.819227983     A.U. after   11 cycles
 SCF Done:  E(RB3LYP) =  -556.819355099     A.U. after   11 cycles
 SCF Done:  E(RB3LYP) =  -556.819426238     A.U. after   11 cycles
 SCF Done:  E(RB3LYP) =  -556.819458471     A.U. after   11 cycles
 SCF Done:  E(RB3LYP) =  -556.823994360     A.U. after    9 cycles
 SCF Done:  E(RB3LYP) =  -556.823998832     A.U. after    8 cycles
 SCF Done:  E(RB3LYP) =  -556.824000426     A.U. after    8 cycles
 SCF Done:  E(RB3LYP) =  -556.824000664     A.U. after    7 cycles
 SCF Done:  E(RB3LYP) =  -556.824000866     A.U. after    7 cycles
 SCF Done:  E(RB3LYP) =  -556.824000909     A.U. after    6 cycles
 Optimization completed.
    -- Stationary point found.
 Normal termination of Gaussian 16 at Mon Dec 14 17:02:31 2020.

 --------------------------------------------------------------------
 #N Geom=AllCheck Guess=TCheck SCRF=Check GenChk RB3LYP/6-31G(d) Freq
 --------------------------------------------------------------------

 Structure from the checkpoint file:  "JID_3930.chk"
 -------------------------------
 CID_106554771_JID_3930_neutraal
 -------------------------------
 Charge =  0 Multiplicity = 1

 SCF Done:  E(RB3LYP) =  -556.824000909     A.U. after    1 cycles

  Exact polarizability: 143.890   1.762 123.397  -7.190   4.849  98.109
 Approx polarizability: 187.835   0.934 190.003 -12.766  11.533 144.095

                      1                      2                      3
                      A                      A                      A
 Frequencies --     43.7257                78.7768                94.7947
 Red. masses --      3.1963                 2.7975                 2.4255
 Frc consts  --      0.0036                 0.0102                 0.0128
 IR Inten    --      0.5358                 1.3640                 1.5565

                      4                      5                      6
                      A                      A                      A
 Frequencies --    112.9977               122.7604               168.6049
 Red. masses --      1.2184                 1.6291                 1.8598
 Frc consts  --      0.0092                 0.0145                 0.0311
 IR Inten    --      1.0337                 0.4298                 0.4294

                      7                      8                      9
                      A                      A                      A
 Frequencies --    188.3645               216.6929               239.1549
 Red. masses --      1.3070                 2.2333                 1.5733
 Frc consts  --      0.0273                 0.0618                 0.0530
 IR Inten    --      1.9012                 3.7184                 0.9736

                     10                     11                     12
                      A                      A                      A
 Frequencies --    248.1668               253.8631               264.7482
 Red. masses --      2.8660                 1.6424                 1.3669
 Frc consts  --      0.1040                 0.0624                 0.0564
 IR Inten    --      1.4210                 1.4024                 0.6558

                     13                     14                     15
                      A                      A                      A
 Frequencies --    286.4977               302.6275               317.7870
 Red. masses --      2.4395                 1.1635                 2.8674
 Frc consts  --      0.1180                 0.0628                 0.1706
 IR Inten    --      0.8833                 0.2867                 2.2376

                     16                     17                     18
                      A                      A                      A
 Frequencies --    353.4269               368.4137               431.0162
 Red. masses --      3.5473                 2.3325                 2.3459
 Frc consts  --      0.2611                 0.1865                 0.2568
 IR Inten    --      1.2540                 0.8945                 6.8853

                     19                     20                     21
                      A                      A                      A
 Frequencies --    443.5916               500.6709               518.6698
 Red. masses --      2.5229                 2.3872                 2.8958
 Frc consts  --      0.2925                 0.3526                 0.4590
 IR Inten    --      1.0210                 9.4621                 4.1618

                     22                     23                     24
                      A                      A                      A
 Frequencies --    613.4154               648.2623               672.4200
 Red. masses --      4.1304                 3.7801                 4.8494
 Frc consts  --      0.9157                 0.9360                 1.2919
 IR Inten    --      3.1727                 2.8342                11.0264

                     25                     26                     27
                      A                      A                      A
 Frequencies --    711.6933               722.7821               749.0863
 Red. masses --      1.8187                 2.0821                 3.5406
 Frc consts  --      0.5428                 0.6409                 1.1705
 IR Inten    --     40.7267                 9.3658                 1.1210

                     28                     29                     30
                      A                      A                      A
 Frequencies --    778.8417               824.5643               864.2857
 Red. masses --      1.3845                 2.1798                 3.3155
 Frc consts  --      0.4948                 0.8732                 1.4592
 IR Inten    --      2.8251                22.4309                 1.4938

                     31                     32                     33
                      A                      A                      A
 Frequencies --    932.0293               953.7400               966.4245
 Red. masses --      1.6785                 1.7467                 1.9833
 Frc consts  --      0.8591                 0.9361                 1.0914
 IR Inten    --      4.7533                 2.5469                10.4768

                     34                     35                     36
                      A                      A                      A
 Frequencies --   1014.6394              1024.6632              1034.8858
 Red. masses --      1.9639                 1.3571                 2.7614
 Frc consts  --      1.1912                 0.8395                 1.7425
 IR Inten    --      1.8236                 0.5169                 6.4895

                     37                     38                     39
                      A                      A                      A
 Frequencies --   1035.8735              1079.5469              1081.1362
 Red. masses --      1.6776                 1.4800                 1.7345
 Frc consts  --      1.0606                 1.0163                 1.1945
 IR Inten    --      2.7475                 2.6825                 7.1979

                     40                     41                     42
                      A                      A                      A
 Frequencies --   1091.4713              1098.8114              1165.3225
 Red. masses --      1.8895                 1.4593                 1.2986
 Frc consts  --      1.3262                 1.0381                 1.0390
 IR Inten    --      3.4178                 9.1825                 2.6452

                     43                     44                     45
                      A                      A                      A
 Frequencies --   1199.0095              1229.1209              1230.9739
 Red. masses --      1.6000                 2.7264                 2.1593
 Frc consts  --      1.3553                 2.4268                 1.9278
 IR Inten    --     10.9865                19.3634                14.4233

                     46                     47                     48
                      A                      A                      A
 Frequencies --   1246.9541              1272.6113              1343.6776
 Red. masses --      4.3126                 2.5134                 1.4855
 Frc consts  --      3.9508                 2.3983                 1.5802
 IR Inten    --     43.9962                16.7829                28.9257

                     49                     50                     51
                      A                      A                      A
 Frequencies --   1346.9073              1387.0157              1397.7167
 Red. masses --      3.1501                 2.5660                 1.8050
 Frc consts  --      3.3671                 2.9085                 2.0776
 IR Inten    --     15.1419                 0.5785                 0.9591

                     52                     53                     54
                      A                      A                      A
 Frequencies --   1428.1702              1437.9125              1446.6718
 Red. masses --      1.2558                 1.6625                 1.3639
 Frc consts  --      1.5092                 2.0252                 1.6818
 IR Inten    --      9.4838                62.5292                 8.9660

                     55                     56                     57
                      A                      A                      A
 Frequencies --   1447.6876              1450.9423              1467.8655
 Red. masses --      1.2720                 1.2941                 1.2722
 Frc consts  --      1.5707                 1.6052                 1.6150
 IR Inten    --      4.2361                 3.1840                13.7550

                     58                     59                     60
                      A                      A                      A
 Frequencies --   1505.9862              1506.7875              1508.3232
 Red. masses --      1.3470                 1.0446                 1.1035
 Frc consts  --      1.7999                 1.3974                 1.4791
 IR Inten    --     33.6082                 5.4503                13.0112

                     61                     62                     63
                      A                      A                      A
 Frequencies --   1515.2026              1519.1420              1522.5865
 Red. masses --      1.0645                 1.0579                 1.1247
 Frc consts  --      1.4399                 1.4384                 1.5363
 IR Inten    --      1.4978                 2.7508                 5.8738

                     64                     65                     66
                      A                      A                      A
 Frequencies --   1529.2938              1529.4708              1534.7992
 Red. masses --      1.0991                 1.2841                 1.0923
 Frc consts  --      1.5145                 1.7698                 1.5159
 IR Inten    --      1.6820                 9.6658                 7.9319

                     67                     68                     69
                      A                      A                      A
 Frequencies --   1537.5090              1545.4232              1550.0696
 Red. masses --      1.0724                 1.1150                 1.3663
 Frc consts  --      1.4936                 1.5690                 1.9341
 IR Inten    --      0.7516                 3.4066                23.4158

                     70                     71                     72
                      A                      A                      A
 Frequencies --   1562.7475              1618.7975              3040.2481
 Red. masses --      2.4783                 4.7949                 1.0576
 Frc consts  --      3.5660                 7.4031                 5.7595
 IR Inten    --     63.9565                22.7093                16.9847

                     73                     74                     75
                      A                      A                      A
 Frequencies --   3041.6794              3045.8781              3048.8637
 Red. masses --      1.0378                 1.0363                 1.0422
 Frc consts  --      5.6569                 5.6642                 5.7080
 IR Inten    --     13.7639                48.2318                53.9246

                     76                     77                     78
                      A                      A                      A
 Frequencies --   3055.7314              3060.7150              3079.1683
 Red. masses --      1.0374                 1.0422                 1.0997
 Frc consts  --      5.7074                 5.7523                 6.1433
 IR Inten    --     44.3677                29.9449                23.5448

                     79                     80                     81
                      A                      A                      A
 Frequencies --   3099.1431              3100.4140              3111.3949
 Red. masses --      1.1012                 1.1020                 1.1002
 Frc consts  --      6.2318                 6.2410                 6.2755
 IR Inten    --     19.1570                16.3197                52.4119

                     82                     83                     84
                      A                      A                      A
 Frequencies --   3116.0555              3118.5813              3124.3880
 Red. masses --      1.1031                 1.0987                 1.1017
 Frc consts  --      6.3110                 6.2956                 6.3365
 IR Inten    --     31.3288                24.4733                22.5896

                     85                     86                     87
                      A                      A                      A
 Frequencies --   3127.8072              3154.7636              3159.6644
 Red. masses --      1.1030                 1.0983                 1.0986
 Frc consts  --      6.3578                 6.4406                 6.4622
 IR Inten    --     35.3603                10.3073                16.7159

                     88                     89                     90
                      A                      A                      A
 Frequencies --   3174.5327              3274.2965              3490.3951
 Red. masses --      1.1006                 1.0977                 1.0728
 Frc consts  --      6.5351                 6.9337                 7.7005
 IR Inten    --      1.1775                 2.6017                 1.1902

 - Thermochemistry -
 -------------------
 Temperature   298.150 Kelvin.  Pressure   1.00000 Atm.
 Atom     1 has atomic number  6 and mass  12.00000

 Molecular mass:   181.15790 amu.
 Principal axes and moments of inertia in atomic units:
                           1         2         3
     Eigenvalues --  1448.625073165.765503543.90891
           X            0.99997   0.00268  -0.00713
           Y           -0.00269   1.00000  -0.00023
           Z            0.00713   0.00025   0.99997
 This molecule is an asymmetric top.
 Rotational symmetry number  1.
 Warning -- assumption of classical behavior for rotation
           may cause significant error
 Rotational temperatures (Kelvin)      0.05979     0.02736     0.02444
 Rotational constants (GHZ):           1.24583     0.57008     0.50925
 Zero-point vibrational energy     752824.0 (Joules/Mol)
                                  179.92925 (Kcal/Mol)
 Warning -- explicit consideration of  22 degrees of freedom as
           vibrations may cause significant error
 Vibrational temperatures:     62.91   113.34   136.39   162.58   176.62
          (Kelvin)            242.58   271.01   311.77   344.09   357.06
                              365.25   380.91   412.21   435.41   457.22
                              508.50   530.07   620.14   638.23   720.35
                              746.25   882.57   932.70   967.46  1023.97
                             1039.92  1077.77  1120.58  1186.36  1243.51
                             1340.98  1372.22  1390.47  1459.84  1474.26
                             1488.97  1490.39  1553.23  1555.51  1570.38
                             1580.94  1676.64  1725.11  1768.43  1771.10
                             1794.09  1831.00  1933.25  1937.90  1995.61
                             2011.00  2054.82  2068.84  2081.44  2082.90
                             2087.58  2111.93  2166.78  2167.93  2170.14
                             2180.04  2185.71  2190.66  2200.31  2200.57
                             2208.23  2212.13  2223.52  2230.20  2248.45
                             2329.09  4374.24  4376.30  4382.34  4386.63
                             4396.52  4403.69  4430.24  4458.98  4460.80
                             4476.60  4483.31  4486.94  4495.30  4500.22
                             4539.00  4546.05  4567.44  4710.98  5021.90

 Zero-point correction=                           0.286736 (Hartree/Particle)
 Thermal correction to Energy=                    0.301469
 Thermal correction to Enthalpy=                  0.302413
 Thermal correction to Gibbs Free Energy=         0.246122
 Sum of electronic and zero-point Energies=           -556.537265
 Sum of electronic and thermal Energies=              -556.522532
 Sum of electronic and thermal Enthalpies=            -556.521588
 Sum of electronic and thermal Free Energies=         -556.577879

                     E (Thermal)             CV                S
                      KCal/Mol        Cal/Mol-Kelvin    Cal/Mol-Kelvin
 Total                  189.175             55.616            118.475
 Electronic               0.000              0.000              0.000
 Translational            0.889              2.981             41.489
 Rotational               0.889              2.981             31.164
 Vibrational            187.397             49.655             45.822
 Vibration     1          0.595              1.980              5.083
 Vibration     2          0.600              1.963              3.921
 Vibration     3          0.603              1.953              3.559
 Vibration     4          0.607              1.939              3.217
 Vibration     5          0.610              1.930              3.056
 Vibration     6          0.625              1.881              2.451
 Vibration     7          0.633              1.856              2.244
 Vibration     8          0.646              1.816              1.987
 Vibration     9          0.657              1.781              1.809
 Vibration    10          0.662              1.766              1.744
 Vibration    11          0.665              1.756              1.704
 Vibration    12          0.671              1.738              1.630
 Vibration    13          0.684              1.699              1.495
 Vibration    14          0.694              1.669              1.402
 Vibration    15          0.704              1.640              1.321
 Vibration    16          0.730              1.568              1.151
 Vibration    17          0.741              1.537              1.086
 Vibration    18          0.792              1.403              0.855
 Vibration    19          0.803              1.375              0.815
 Vibration    20          0.856              1.249              0.656
 Vibration    21          0.874              1.209              0.613
 Vibration    22          0.973              1.003              0.427

 Optimization completed.
    -- Stationary point found.
 Normal termination of Gaussian 16 at Mon Dec 14 17:11:34 2020.

 ----------------------------------------------------------------------
 # B3LYP/6-311++G(d,p) empiricaldispersion=gd3bj scf=xqc pop=npa geom=c
 heck
 ----------------------------------------------------------------------

 ---------------------------------------
 CID_106554771_JID_3930_Energie_neutraal
 ---------------------------------------
 Structure from the checkpoint file:  "JID_3930.chk"
 Charge =  0 Multiplicity = 1

 SCF Done:  E(RB3LYP) =  -556.978650950     A.U. after   15 cycles
 Normal termination of Gaussian 16 at Mon Dec 14 17:15:58 2020.

 ----------------------------------------------------------------------
 # B3LYP/6-311++G(d,p) empiricaldispersion=gd3bj scf=xqc pop=npa geom=c
 heck
 ----------------------------------------------------------------------

 -------------------------------------
 CID_106554771_JID_3930_Energie_kation
 -------------------------------------
 Structure from the checkpoint file:  "JID_3930.chk"
 Charge =  1 Multiplicity = 2

 SCF Done:  E(UB3LYP) =  -556.694405816     A.U. after   20 cycles
 Normal termination of Gaussian 16 at Mon Dec 14 17:24:24 2020.
 Gaussian 16:  ES64L-G16RevA.03 25-Dec-2016

 ----------------------------------------------------------------------
 # B3LYP/6-311++G(d,p) empiricaldispersion=gd3bj scf=xqc pop=npa geom=c
 heck
 ----------------------------------------------------------------------

 ------------------------------------
 CID_106554771_JID_3930_Energie_anion
 ------------------------------------
 Structure from the checkpoint file:  "JID_3930.chk"
 Charge = -1 Multiplicity = 2

                         Standard orientation:
 ---------------------------------------------------------------------
 Center     Atomic      Atomic             Coordinates (Angstroms)
 Number     Number       Type             X           Y           Z
 ---------------------------------------------------------------------
      1          6           0       -0.820527    0.164094   -2.176356
      2          6           0       -1.874572   -0.345893   -1.184426
      3          6           0       -1.953881    0.326497    0.206571
      4          6           0       -1.871499    1.857822    0.098394
      5          6           0       -3.280150   -0.080027    0.864165
      6          7           0       -0.888145   -0.210711    1.115420
      7          6           0        0.444665   -0.117107    0.684204
      8          7           0        1.216063    0.957250    0.645147
      9          6           0        2.426101    0.538745    0.127467
     10          6           0        2.372898   -0.807514   -0.148919
     11          7           0        1.108430   -1.227590    0.223095
     12          6           0        0.586894   -2.577161    0.143911
     13          6           0        3.565512    1.486895   -0.066633
     14          1           0       -0.970605    1.223921   -2.404693
     15          1           0       -0.907905   -0.388925   -3.118887
     16          1           0        0.203814    0.047153   -1.816429
     17          1           0       -2.860469   -0.217332   -1.649866
     18          1           0       -1.754895   -1.425168   -1.029572
     19          1           0       -2.607990    2.241098   -0.618231
     20          1           0       -2.080624    2.317470    1.072221
     21          1           0       -0.872888    2.175365   -0.209225
     22          1           0       -3.375471   -1.170278    0.900673
     23          1           0       -3.338362    0.299820    1.891617
     24          1           0       -4.130341    0.329983    0.308481
     25          1           0       -0.970105    0.279185    2.004718
     26          1           0        3.102989   -1.494190   -0.551636
     27          1           0        1.305743   -3.282175    0.572536
     28          1           0       -0.342291   -2.606204    0.714125
     29          1           0        0.383377   -2.862652   -0.894321
     30          1           0        3.280499    2.315783   -0.725267
     31          1           0        3.879891    1.927151    0.887238
     32          1           0        4.428544    0.979249   -0.509373
 ---------------------------------------------------------------------

 SCF Done:  E(UB3LYP) =  -556.963430133     A.U. after   31 cycles

 The electronic state is 2-A.
 Alpha  occ. eigenvalues --  -14.26250 -14.21070 -14.18471 -10.14360 -10.11396
 Alpha  occ. eigenvalues --  -10.10034 -10.08819 -10.08713 -10.07056 -10.06448
 Alpha  occ. eigenvalues --  -10.05976 -10.05420 -10.05297  -0.91969  -0.81678
 Alpha  occ. eigenvalues --   -0.78224  -0.69813  -0.65435  -0.63363  -0.62424
 Alpha  occ. eigenvalues --   -0.58945  -0.57294  -0.53118  -0.47819  -0.47637
 Alpha  occ. eigenvalues --   -0.44448  -0.41866  -0.38815  -0.37133  -0.35868
 Alpha  occ. eigenvalues --   -0.34574  -0.33755  -0.32910  -0.32287  -0.31799
 Alpha  occ. eigenvalues --   -0.31051  -0.29909  -0.28997  -0.28491  -0.28335
 Alpha  occ. eigenvalues --   -0.28109  -0.26958  -0.26274  -0.23367  -0.23219
 Alpha  occ. eigenvalues --   -0.22268  -0.17266  -0.16538  -0.15488  -0.11617
 Alpha  occ. eigenvalues --    0.04494
 Alpha virt. eigenvalues --    0.06476   0.07235   0.07616   0.08772   0.08976
 Alpha virt. eigenvalues --    0.09192   0.09932   0.10406   0.11079   0.11556
 Alpha virt. eigenvalues --    0.11753   0.12123   0.12842   0.13054   0.13783

  Beta  occ. eigenvalues --  -14.26248 -14.21057 -14.18465 -10.14358 -10.11396
  Beta  occ. eigenvalues --  -10.09980 -10.08817 -10.08696 -10.07044 -10.06426
  Beta  occ. eigenvalues --  -10.05949 -10.05401 -10.05278  -0.91961  -0.81662
  Beta  occ. eigenvalues --   -0.78212  -0.69791  -0.65414  -0.63332  -0.62370
  Beta  occ. eigenvalues --   -0.58903  -0.57251  -0.53059  -0.47794  -0.47601
  Beta  occ. eigenvalues --   -0.44402  -0.41814  -0.38787  -0.37096  -0.35839
  Beta  occ. eigenvalues --   -0.34531  -0.33730  -0.32870  -0.32267  -0.31776
  Beta  occ. eigenvalues --   -0.31017  -0.29880  -0.28968  -0.28467  -0.28308
  Beta  occ. eigenvalues --   -0.28084  -0.26932  -0.26237  -0.23332  -0.23192
  Beta  occ. eigenvalues --   -0.22239  -0.17245  -0.16523  -0.15469  -0.11603
  Beta virt. eigenvalues --    0.06644   0.07179   0.08097   0.08201   0.09245
  Beta virt. eigenvalues --    0.09443   0.09787   0.10174   0.10690   0.11408
  Beta virt. eigenvalues --    0.11925   0.12032   0.12323   0.13080   0.13530

 Mulliken charges and spin densities:
               1          2
     1  C   -0.325070  -0.278858
     2  C    0.259789  -0.455382
     3  C   -1.060860   1.271677
     4  C    0.257955  -1.025071
     5  C    0.709913  -1.035435
     6  N   -0.133196   0.089881
     7  C   -0.265872  -0.336600
     8  N   -0.150401   0.145519
     9  C    0.353647  -0.210512
    10  C   -0.940548   0.732142
    11  N   -0.066487   0.215595
    12  C    1.417262  -1.751723
    13  C    1.137649  -1.621035
    14  H    0.140955  -0.006032
    15  H   -0.409300   0.562126
    16  H    0.303766  -0.145942
    17  H   -0.286193   0.467337
    18  H    0.321406  -0.181427
    19  H   -0.107975   0.255096
    20  H    0.055563   0.077192
    21  H    0.138221   0.037025
    22  H   -0.272126   0.432880
    23  H   -0.154895   0.268156
    24  H   -0.061687   0.203923
    25  H    0.195972   0.065731
    26  H   -0.928473   1.095742
    27  H   -0.476604   0.648729
    28  H   -0.264142   0.457110
    29  H   -0.451705   0.652195
    30  H    0.045888   0.100106
    31  H    0.080987   0.064593
    32  H   -0.063440   0.205263
 Sum of Mulliken charges =  -1.00000   1.00000

 Dipole moment (field-independent basis, Debye):
    X=              0.0298    Y=              4.8144    Z=              1.5299  Tot=              5.0517
 Quadrupole moment (field-independent basis, Debye-Ang):
   XX=           -143.1487   YY=           -134.8667   ZZ=           -118.8751
   XY=              5.9264   XZ=             -0.2249   YZ=             -3.3343

 Summary of Natural Population Analysis:

                                       Natural Population
                Natural  -----------------------------------------------
    Atom  No    Charge         Core      Valence    Rydberg      Total
 -----------------------------------------------------------------------
      C    1   -0.28717      0.99965     2.28173    0.00579     3.28717
      C    2   -0.19604      0.99958     2.18664    0.00982     3.19604
      C    3    0.06270      0.99956     1.92401    0.01372     2.93730
      C    4   -0.29883      0.99961     2.29323    0.00599     3.29883
      C    5   -0.28343      0.99961     2.27600    0.00781     3.28343
      N    6   -0.35196      0.99968     2.84043    0.01185     3.85196
      C    7    0.27906      0.99957     1.70230    0.01906     2.72094
      N    8   -0.27701      0.99967     2.76821    0.00914     3.77701
      C    9    0.05153      0.99955     1.93483    0.01409     2.94847
      C   10   -0.03730      0.99947     2.02571    0.01212     3.03730
      N   11   -0.20809      0.99961     2.69675    0.01173     3.70809
      C   12   -0.17689      0.99963     2.16881    0.00845     3.17689
      C   13   -0.29364      0.99963     2.28919    0.00482     3.29364
      H   14    0.09585      0.00000     0.40317    0.00098     0.40415
      H   15    0.09958      0.00000     0.39949    0.00093     0.40042
      H   16    0.10229      0.00000     0.39589    0.00182     0.39771
      H   17    0.09902      0.00000     0.39959    0.00139     0.40098
      H   18    0.10196      0.00000     0.39623    0.00181     0.39804
      H   19    0.09876      0.00000     0.40040    0.00084     0.40124
      H   20    0.09677      0.00000     0.40225    0.00098     0.40323
      H   21    0.11381      0.00000     0.38479    0.00140     0.38619
      H   22    0.10486      0.00000     0.39384    0.00130     0.39514
      H   23    0.09625      0.00000     0.40281    0.00094     0.40375
      H   24    0.10007      0.00000     0.39881    0.00112     0.39993
      H   25    0.18319      0.00000     0.31442    0.00238     0.31681
      H   26    0.10511      0.00000     0.39335    0.00154     0.39489
      H   27    0.10038      0.00000     0.39755    0.00207     0.39962
      H   28    0.11365      0.00000     0.38435    0.00200     0.38635
      H   29    0.09989      0.00000     0.39777    0.00234     0.40011
      H   30    0.10252      0.00000     0.39629    0.00119     0.39748
      H   31    0.10165      0.00000     0.39712    0.00123     0.39835
      H   32    0.10147      0.00000     0.39772    0.00081     0.39853
 =======================================================================
   * Total *    0.00000     12.99482    36.84371    0.16147    50.00000

 Normal termination of Gaussian 16 at Mon Dec 14 17:37:35 2020.
