 Gaussian 16, Revision A.03,

 -----------------------------------------------------------
 # opt freq B3LYP/6-31G(d) empiricaldispersion=gd3bj scf=xqc
 -----------------------------------------------------------

 ------------------------------
 CID_43500393_JID_2005_neutraal
 ------------------------------
 Symbolic Z-matrix:
 Charge =  0 Multiplicity = 1

 SCF Done:  E(RB3LYP) =  -558.421406495     A.U. after   15 cycles
 SCF Done:  E(RB3LYP) =  -558.424185617     A.U. after   12 cycles
 SCF Done:  E(RB3LYP) =  -558.424673635     A.U. after   12 cycles
 SCF Done:  E(RB3LYP) =  -558.425547932     A.U. after   12 cycles
 SCF Done:  E(RB3LYP) =  -558.426230212     A.U. after   13 cycles
 SCF Done:  E(RB3LYP) =  -558.426363985     A.U. after   12 cycles
 SCF Done:  E(RB3LYP) =  -558.426664191     A.U. after   12 cycles
 SCF Done:  E(RB3LYP) =  -558.426742438     A.U. after   12 cycles
 SCF Done:  E(RB3LYP) =  -558.426789901     A.U. after   11 cycles
 SCF Done:  E(RB3LYP) =  -558.426802199     A.U. after   10 cycles
 SCF Done:  E(RB3LYP) =  -558.426811044     A.U. after    9 cycles
 SCF Done:  E(RB3LYP) =  -558.426811409     A.U. after    8 cycles
 SCF Done:  E(RB3LYP) =  -558.426811445     A.U. after    7 cycles
 SCF Done:  E(RB3LYP) =  -558.426811471     A.U. after    6 cycles
 SCF Done:  E(RB3LYP) =  -558.426811485     A.U. after    6 cycles
 Optimization completed.
    -- Stationary point found.
 Normal termination of Gaussian 16 at Wed Dec  9 16:49:29 2020.

 --------------------------------------------------------------------
 #N Geom=AllCheck Guess=TCheck SCRF=Check GenChk RB3LYP/6-31G(d) Freq
 --------------------------------------------------------------------

 Structure from the checkpoint file:  "JID_2005.chk"
 ------------------------------
 CID_43500393_JID_2005_neutraal
 ------------------------------
 Charge =  0 Multiplicity = 1

 SCF Done:  E(RB3LYP) =  -558.426811485     A.U. after    1 cycles

  Exact polarizability: 126.421 -10.663 107.737   0.725   7.322  89.201
 Approx polarizability: 159.661 -21.817 166.484  -0.563  17.128 133.322

                      1                      2                      3
                      A                      A                      A
 Frequencies --     28.8545                40.2703                49.9547
 Red. masses --      3.7012                 2.4596                 4.6434
 Frc consts  --      0.0018                 0.0024                 0.0068
 IR Inten    --      0.2139                 0.3215                 0.8002

                      4                      5                      6
                      A                      A                      A
 Frequencies --     69.5042                85.7059                97.8672
 Red. masses --      3.7178                 2.7832                 4.2983
 Frc consts  --      0.0106                 0.0120                 0.0243
 IR Inten    --      1.3752                 0.4116                11.6864

                      7                      8                      9
                      A                      A                      A
 Frequencies --    123.1253               163.3065               188.8808
 Red. masses --      1.1007                 3.2470                 1.8794
 Frc consts  --      0.0098                 0.0510                 0.0395
 IR Inten    --      0.0374                 7.2171                 1.3808

                     10                     11                     12
                      A                      A                      A
 Frequencies --    247.7000               257.5057               282.8110
 Red. masses --      1.5773                 2.3327                 2.8543
 Frc consts  --      0.0570                 0.0911                 0.1345
 IR Inten    --      3.1954                 6.8909                 5.4692

                     13                     14                     15
                      A                      A                      A
 Frequencies --    318.1130               322.4883               348.3229
 Red. masses --      1.1517                 2.2707                 3.2439
 Frc consts  --      0.0687                 0.1391                 0.2319
 IR Inten    --    107.9908                10.2701                 2.3802

                     16                     17                     18
                      A                      A                      A
 Frequencies --    394.7819               435.0846               486.2645
 Red. masses --      2.8826                 2.7161                 2.3950
 Frc consts  --      0.2647                 0.3029                 0.3337
 IR Inten    --      7.8735                 1.2067                 1.9687

                     19                     20                     21
                      A                      A                      A
 Frequencies --    555.9841               564.6453               621.2330
 Red. masses --      2.7965                 4.2327                 3.2867
 Frc consts  --      0.5093                 0.7951                 0.7473
 IR Inten    --      5.7526                 3.4118                44.9762

                     22                     23                     24
                      A                      A                      A
 Frequencies --    719.7980               735.9408               776.6614
 Red. masses --      1.9625                 2.7340                 1.3595
 Frc consts  --      0.5991                 0.8724                 0.4831
 IR Inten    --      5.2597                11.7556                27.6878

                     25                     26                     27
                      A                      A                      A
 Frequencies --    816.5812               826.0367               870.3558
 Red. masses --      1.6660                 1.6172                 2.7526
 Frc consts  --      0.6545                 0.6501                 1.2285
 IR Inten    --     32.9311                48.6110                14.8106

                     28                     29                     30
                      A                      A                      A
 Frequencies --    907.7887               934.4306               972.5111
 Red. masses --      2.0999                 1.3567                 2.0373
 Frc consts  --      1.0196                 0.6980                 1.1353
 IR Inten    --      1.1315                14.8748                35.8277

                     31                     32                     33
                      A                      A                      A
 Frequencies --    992.2371              1013.3302              1050.2407
 Red. masses --      2.1163                 1.7203                 2.0141
 Frc consts  --      1.2276                 1.0408                 1.3089
 IR Inten    --     19.2675                17.8130                19.5723

                     34                     35                     36
                      A                      A                      A
 Frequencies --   1082.0853              1096.5554              1102.1152
 Red. masses --      1.4415                 2.4457                 1.9631
 Frc consts  --      0.9945                 1.7327                 1.4049
 IR Inten    --      0.9367                13.8577                18.8918

                     37                     38                     39
                      A                      A                      A
 Frequencies --   1109.7856              1128.5009              1149.5370
 Red. masses --      1.8420                 2.0182                 2.2440
 Frc consts  --      1.3366                 1.5143                 1.7471
 IR Inten    --      3.6199                 7.9011                 8.6939

                     40                     41                     42
                      A                      A                      A
 Frequencies --   1206.7479              1223.0907              1260.5085
 Red. masses --      2.4372                 1.3638                 1.1780
 Frc consts  --      2.0911                 1.2020                 1.1028
 IR Inten    --     37.8236                18.5045                 3.5609

                     43                     44                     45
                      A                      A                      A
 Frequencies --   1294.8682              1305.6637              1332.8408
 Red. masses --      1.3198                 1.2167                 1.1264
 Frc consts  --      1.3038                 1.2221                 1.1789
 IR Inten    --     76.4573                29.7756                 7.6151

                     46                     47                     48
                      A                      A                      A
 Frequencies --   1350.7064              1372.8335              1399.7854
 Red. masses --      1.3625                 2.0139                 1.4464
 Frc consts  --      1.4645                 2.2362                 1.6698
 IR Inten    --      4.8746               115.9232                 1.5577

                     49                     50                     51
                      A                      A                      A
 Frequencies --   1407.0498              1426.4401              1434.3946
 Red. masses --      1.3583                 1.5270                 1.2240
 Frc consts  --      1.5844                 1.8306                 1.4838
 IR Inten    --      1.2641                51.2036                 1.5472

                     52                     53                     54
                      A                      A                      A
 Frequencies --   1442.1291              1479.0696              1482.1700
 Red. masses --      1.4540                 1.4226                 1.3832
 Frc consts  --      1.7817                 1.8336                 1.7904
 IR Inten    --      5.8798                 3.1858                29.7662

                     55                     56                     57
                      A                      A                      A
 Frequencies --   1504.8305              1509.4129              1512.0993
 Red. masses --      1.0735                 1.0652                 1.0693
 Frc consts  --      1.4322                 1.4299                 1.4405
 IR Inten    --      4.4385                 6.3083                 3.3360

                     58                     59                     60
                      A                      A                      A
 Frequencies --   1524.7709              1527.7526              1528.5906
 Red. masses --      1.0788                 1.0615                 1.0936
 Frc consts  --      1.4778                 1.4597                 1.5056
 IR Inten    --      2.2860                12.5721                13.1563

                     61                     62                     63
                      A                      A                      A
 Frequencies --   1537.9783              1558.7076              1731.8075
 Red. masses --      1.0784                 1.0837                 7.2032
 Frc consts  --      1.5028                 1.5513                12.7285
 IR Inten    --      7.1405                 8.4741                43.0281

                     64                     65                     66
                      A                      A                      A
 Frequencies --   1758.0636              3009.0184              3033.4845
 Red. masses --      7.6936                 1.0585                 1.0694
 Frc consts  --     14.0104                 5.6465                 5.7978
 IR Inten    --    250.6229                52.6459                31.7247

                     67                     68                     69
                      A                      A                      A
 Frequencies --   3041.4967              3046.1882              3047.3883
 Red. masses --      1.0948                 1.0477                 1.0354
 Frc consts  --      5.9668                 5.7277                 5.6649
 IR Inten    --     19.8254                18.1987                26.3802

                     70                     71                     72
                      A                      A                      A
 Frequencies --   3051.8968              3089.6872              3096.7280
 Red. masses --      1.0703                 1.1002                 1.0940
 Frc consts  --      5.8734                 6.1878                 6.1810
 IR Inten    --     44.5781                28.6470                 2.1373

                     73                     74                     75
                      A                      A                      A
 Frequencies --   3112.1371              3112.5458              3119.1512
 Red. masses --      1.0781                 1.0744                 1.0994
 Frc consts  --      6.1522                 6.1327                 6.3020
 IR Inten    --     31.0354                20.0832                42.9688

                     76                     77                     78
                      A                      A                      A
 Frequencies --   3121.6477              3152.8101              3157.3230
 Red. masses --      1.1034                 1.0932                 1.1016
 Frc consts  --      6.3351                 6.4024                 6.4701
 IR Inten    --     40.9306                23.4441                15.7751

                     79                     80                     81
                      A                      A                      A
 Frequencies --   3159.2354              3554.4870              3758.7520
 Red. masses --      1.1001                 1.0745                 1.0665
 Frc consts  --      6.4692                 7.9986                 8.8774
 IR Inten    --     20.5420                20.0598                20.0711

 - Thermochemistry -
 -------------------
 Temperature   298.150 Kelvin.  Pressure   1.00000 Atm.
 Atom     1 has atomic number  6 and mass  12.00000

 Molecular mass:   171.12593 amu.
 Principal axes and moments of inertia in atomic units:
                           1         2         3
     Eigenvalues --  1353.619153475.208934095.66805
           X            0.99991  -0.01329  -0.00126
           Y            0.01332   0.99924   0.03665
           Z            0.00077  -0.03666   0.99933
 This molecule is an asymmetric top.
 Rotational symmetry number  1.
 Warning -- assumption of classical behavior for rotation
           may cause significant error
 Rotational temperatures (Kelvin)      0.06399     0.02492     0.02115
 Rotational constants (GHZ):           1.33327     0.51932     0.44065
 Zero-point vibrational energy     674354.0 (Joules/Mol)
                                  161.17447 (Kcal/Mol)
 Warning -- explicit consideration of  20 degrees of freedom as
           vibrations may cause significant error
 Vibrational temperatures:     41.52    57.94    71.87   100.00   123.31
          (Kelvin)            140.81   177.15   234.96   271.76   356.39
                              370.49   406.90   457.69   463.99   501.16
                              568.00   625.99   699.63   799.94   812.40
                              893.82  1035.63  1058.85  1117.44  1174.88
                             1188.48  1252.25  1306.11  1344.44  1399.23
                             1427.61  1457.96  1511.06  1556.88  1577.70
                             1585.70  1596.73  1623.66  1653.93  1736.24
                             1759.75  1813.59  1863.03  1878.56  1917.66
                             1943.37  1975.20  2013.98  2024.43  2052.33
                             2063.77  2074.90  2128.05  2132.51  2165.12
                             2171.71  2175.57  2193.81  2198.10  2199.30
                             2212.81  2242.63  2491.68  2529.46  4329.31
                             4364.51  4376.04  4382.79  4384.51  4391.00
                             4445.37  4455.50  4477.67  4478.26  4487.76
                             4491.35  4536.19  4542.68  4545.44  5114.11
                             5408.01

 Zero-point correction=                           0.256848 (Hartree/Particle)
 Thermal correction to Energy=                    0.271399
 Thermal correction to Enthalpy=                  0.272344
 Thermal correction to Gibbs Free Energy=         0.213767
 Sum of electronic and zero-point Energies=           -558.169964
 Sum of electronic and thermal Energies=              -558.155412
 Sum of electronic and thermal Enthalpies=            -558.154468
 Sum of electronic and thermal Free Energies=         -558.213044

                     E (Thermal)             CV                S
                      KCal/Mol        Cal/Mol-Kelvin    Cal/Mol-Kelvin
 Total                  170.306             51.466            123.284
 Electronic               0.000              0.000              0.000
 Translational            0.889              2.981             41.319
 Rotational               0.889              2.981             31.333
 Vibrational            168.528             45.504             50.632
 Vibration     1          0.593              1.984              5.907
 Vibration     2          0.594              1.981              5.246
 Vibration     3          0.595              1.978              4.819
 Vibration     4          0.598              1.969              4.167
 Vibration     5          0.601              1.959              3.756
 Vibration     6          0.603              1.951              3.496
 Vibration     7          0.610              1.930              3.051
 Vibration     8          0.623              1.887              2.511
 Vibration     9          0.633              1.855              2.239
 Vibration    10          0.661              1.767              1.747
 Vibration    11          0.667              1.750              1.679
 Vibration    12          0.682              1.705              1.517
 Vibration    13          0.705              1.639              1.320
 Vibration    14          0.707              1.630              1.297
 Vibration    15          0.726              1.579              1.174
 Vibration    16          0.762              1.481              0.982
 Vibration    17          0.796              1.394              0.842
 Vibration    18          0.842              1.281              0.693
 Vibration    19          0.911              1.127              0.532
 Vibration    20          0.920              1.108              0.515

 Optimization completed.
    -- Stationary point found.
 Normal termination of Gaussian 16 at Wed Dec  9 16:56:01 2020.

 ----------------------------------------------------------------------
 # B3LYP/6-311++G(d,p) empiricaldispersion=gd3bj scf=xqc pop=npa geom=c
 heck
 ----------------------------------------------------------------------

 --------------------------------------
 CID_43500393_JID_2005_Energie_neutraal
 --------------------------------------
 Structure from the checkpoint file:  "JID_2005.chk"
 Charge =  0 Multiplicity = 1

 SCF Done:  E(RB3LYP) =  -558.603218768     A.U. after   15 cycles
 Normal termination of Gaussian 16 at Wed Dec  9 16:58:53 2020.

 ----------------------------------------------------------------------
 # B3LYP/6-311++G(d,p) empiricaldispersion=gd3bj scf=xqc pop=npa geom=c
 heck
 ----------------------------------------------------------------------

 ------------------------------------
 CID_43500393_JID_2005_Energie_kation
 ------------------------------------
 Structure from the checkpoint file:  "JID_2005.chk"
 Charge =  1 Multiplicity = 2

 SCF Done:  E(UB3LYP) =  -558.282399348     A.U. after   26 cycles
 Normal termination of Gaussian 16 at Wed Dec  9 17:05:16 2020.
 Gaussian 16:  ES64L-G16RevA.03 25-Dec-2016

 ----------------------------------------------------------------------
 # B3LYP/6-311++G(d,p) empiricaldispersion=gd3bj scf=xqc pop=npa geom=c
 heck
 ----------------------------------------------------------------------

 -----------------------------------
 CID_43500393_JID_2005_Energie_anion
 -----------------------------------
 Structure from the checkpoint file:  "JID_2005.chk"
 Charge = -1 Multiplicity = 2

                         Standard orientation:
 ---------------------------------------------------------------------
 Center     Atomic      Atomic             Coordinates (Angstroms)
 Number     Number       Type             X           Y           Z
 ---------------------------------------------------------------------
      1          6           0        3.436830   -1.847695    0.139909
      2          6           0        3.357309   -0.337545   -0.144305
      3          6           0        1.974812    0.069287   -0.565052
      4          6           0        1.119864    0.883841    0.073833
      5          6           0        1.393515    1.648031    1.341926
      6          6           0       -0.204712    1.209550   -0.556531
      7          8           0       -0.631945    2.362083   -0.562648
      8          7           0       -0.908174    0.187028   -1.161837
      9          6           0       -1.001513   -1.178947   -0.636467
     10          6           0       -1.601272   -1.249123    0.777673
     11          6           0       -2.850030   -0.387579    0.927361
     12          8           0       -3.732984   -0.700922   -0.151380
     13          1           0        2.778731   -2.120914    0.972123
     14          1           0        4.458486   -2.146533    0.398902
     15          1           0        3.127529   -2.430609   -0.735681
     16          1           0        3.684948    0.219470    0.738556
     17          1           0        4.062869   -0.090587   -0.950264
     18          1           0        1.639737   -0.367695   -1.505662
     19          1           0        1.227093    2.714638    1.162847
     20          1           0        0.696355    1.349753    2.136163
     21          1           0        2.409999    1.501732    1.711678
     22          1           0       -1.799974    0.534300   -1.502279
     23          1           0       -1.638974   -1.730131   -1.330687
     24          1           0       -0.017940   -1.650381   -0.645731
     25          1           0       -1.836983   -2.295512    1.007948
     26          1           0       -0.860347   -0.911471    1.513950
     27          1           0       -3.324773   -0.586279    1.900193
     28          1           0       -2.571803    0.675862    0.901728
     29          1           0       -4.507131   -0.123048   -0.078769
 ---------------------------------------------------------------------

 SCF Done:  E(UB3LYP) =  -558.593561432     A.U. after   33 cycles
 SCF Done:  E(UB3LYP) =  -558.593561432     a.u. after    1 cycles

 The electronic state is 2-A.
 Alpha  occ. eigenvalues --  -19.02322 -18.97844 -14.21967 -10.15655 -10.11241
 Alpha  occ. eigenvalues --  -10.09934 -10.07266 -10.07164 -10.06836 -10.06682
 Alpha  occ. eigenvalues --  -10.06314 -10.05943  -0.92745  -0.92201  -0.81046
 Alpha  occ. eigenvalues --   -0.71296  -0.67093  -0.65788  -0.58841  -0.58168
 Alpha  occ. eigenvalues --   -0.53977  -0.49858  -0.47151  -0.43022  -0.42125
 Alpha  occ. eigenvalues --   -0.39234  -0.38236  -0.36911  -0.34604  -0.33360
 Alpha  occ. eigenvalues --   -0.32403  -0.31717  -0.31161  -0.30211  -0.29195
 Alpha  occ. eigenvalues --   -0.27957  -0.27403  -0.27072  -0.26637  -0.25168
 Alpha  occ. eigenvalues --   -0.24761  -0.23766  -0.22806  -0.18119  -0.16030
 Alpha  occ. eigenvalues --   -0.14734  -0.14048   0.04266
 Alpha virt. eigenvalues --    0.05938   0.07357   0.07899   0.08141   0.09141
 Alpha virt. eigenvalues --    0.09400   0.10101   0.11097   0.11414   0.11875
 Alpha virt. eigenvalues --    0.12408   0.13043   0.13725   0.14194   0.14507

  Beta  occ. eigenvalues --  -19.02281 -18.97783 -14.21965 -10.15589 -10.11212
  Beta  occ. eigenvalues --  -10.09923 -10.07264 -10.07101 -10.06828 -10.06608
  Beta  occ. eigenvalues --  -10.06312 -10.05878  -0.92628  -0.92109  -0.81006
  Beta  occ. eigenvalues --   -0.71160  -0.67038  -0.65695  -0.58764  -0.58091
  Beta  occ. eigenvalues --   -0.53840  -0.49787  -0.47055  -0.42923  -0.42021
  Beta  occ. eigenvalues --   -0.39175  -0.38160  -0.36867  -0.34493  -0.33287
  Beta  occ. eigenvalues --   -0.32351  -0.31612  -0.31093  -0.30121  -0.29132
  Beta  occ. eigenvalues --   -0.27888  -0.27324  -0.26998  -0.26486  -0.25130
  Beta  occ. eigenvalues --   -0.24695  -0.23711  -0.22736  -0.18069  -0.15916
  Beta  occ. eigenvalues --   -0.14380  -0.13909
  Beta virt. eigenvalues --    0.06711   0.07307   0.07892   0.08222   0.08693
  Beta virt. eigenvalues --    0.09709   0.09847   0.10297   0.11529   0.11615
  Beta virt. eigenvalues --    0.12004   0.12620   0.13160   0.13824   0.14370

 Mulliken charges and spin densities:
               1          2
     1  C    1.291767  -1.891455
     2  C   -1.530572   1.197438
     3  C    0.004829  -0.031423
     4  C    0.766701  -0.180550
     5  C   -0.026537  -0.489440
     6  C   -0.202054  -0.120170
     7  O   -0.333728   0.029600
     8  N   -0.153369   0.013836
     9  C   -0.020901  -0.168525
    10  C   -0.780927   0.564591
    11  C    1.100926  -1.664900
    12  O   -0.314379   0.038847
    13  H   -0.240394   0.380784
    14  H   -0.674556   0.824770
    15  H   -0.162137   0.295254
    16  H   -0.009494   0.143527
    17  H   -0.020630   0.147216
    18  H    0.173149   0.041403
    19  H    0.187523  -0.005698
    20  H   -0.051005   0.194170
    21  H    0.097193   0.014103
    22  H    0.320583  -0.012085
    23  H    0.126500   0.068455
    24  H    0.074066   0.052840
    25  H   -0.132158   0.308792
    26  H    0.156257  -0.030502
    27  H   -0.471343   0.639646
    28  H    0.005526   0.196433
    29  H   -0.180836   0.443043
 Sum of Mulliken charges =  -1.00000   1.00000

 Dipole moment (field-independent basis, Debye):
    X=              0.7994    Y=              1.6614    Z=             -1.6999  Tot=              2.5078
 Quadrupole moment (field-independent basis, Debye-Ang):
   XX=           -159.1531   YY=           -117.0183   ZZ=           -100.2409
   XY=             13.7050   XZ=              2.7386   YZ=              5.7487

 Summary of Natural Population Analysis:

                                       Natural Population
                Natural  -----------------------------------------------
    Atom  No    Charge         Core      Valence    Rydberg      Total
 -----------------------------------------------------------------------
      C    1   -0.27951      0.99966     2.27492    0.00493     3.27951
      C    2   -0.20841      0.99963     2.19939    0.00939     3.20841
      C    3   -0.06166      0.99948     2.05289    0.00929     3.06166
      C    4   -0.05086      0.99943     2.04105    0.01038     3.05086
      C    5   -0.29924      0.99963     2.29326    0.00635     3.29924
      C    6    0.34359      0.99961     1.63357    0.02324     2.65641
      O    7   -0.31884      0.99988     3.31344    0.00552     4.31884
      N    8   -0.32671      0.99968     2.81771    0.00932     3.82671
      C    9   -0.09032      0.99961     2.07929    0.01142     3.09032
      C   10   -0.20684      0.99963     2.19831    0.00890     3.20684
      C   11   -0.01467      0.99960     2.00255    0.01252     3.01467
      O   12   -0.37835      0.99989     3.37133    0.00712     4.37835
      H   13    0.09842      0.00000     0.40005    0.00153     0.40158
      H   14    0.10073      0.00000     0.39641    0.00286     0.39927
      H   15    0.09513      0.00000     0.40372    0.00115     0.40487
      H   16    0.09660      0.00000     0.40224    0.00116     0.40340
      H   17    0.09915      0.00000     0.39981    0.00105     0.40085
      H   18    0.09500      0.00000     0.40371    0.00129     0.40500
      H   19    0.11213      0.00000     0.38684    0.00103     0.38787
      H   20    0.10305      0.00000     0.39592    0.00103     0.39695
      H   21    0.09815      0.00000     0.40099    0.00086     0.40185
      H   22    0.19276      0.00000     0.30466    0.00258     0.30724
      H   23    0.10002      0.00000     0.39875    0.00123     0.39998
      H   24    0.10173      0.00000     0.39709    0.00117     0.39827
      H   25    0.09987      0.00000     0.39902    0.00111     0.40013
      H   26    0.10155      0.00000     0.39691    0.00154     0.39845
      H   27    0.08061      0.00000     0.41711    0.00228     0.41939
      H   28    0.08236      0.00000     0.41586    0.00178     0.41764
      H   29    0.23455      0.00000     0.25842    0.00704     0.26545
 =======================================================================
   * Total *   -0.00000     11.99573    34.85522    0.14905    47.00000

 Normal termination of Gaussian 16 at Wed Dec  9 17:13:25 2020.
