 Gaussian 16, Revision A.03,

 -----------------------------------------------------------
 # opt freq B3LYP/6-31G(d) empiricaldispersion=gd3bj scf=xqc
 -----------------------------------------------------------

 -------------------------------
 CID_107055316_JID_7048_neutraal
 -------------------------------
 Symbolic Z-matrix:
 Charge =  0 Multiplicity = 1

 SCF Done:  E(RB3LYP) =  -760.934189220     A.U. after   15 cycles
 SCF Done:  E(RB3LYP) =  -760.938884162     A.U. after   12 cycles
 SCF Done:  E(RB3LYP) =  -760.939724913     A.U. after   12 cycles
 SCF Done:  E(RB3LYP) =  -760.940255372     A.U. after   11 cycles
 SCF Done:  E(RB3LYP) =  -760.940464899     A.U. after   12 cycles
 SCF Done:  E(RB3LYP) =  -760.940524007     A.U. after   12 cycles
 SCF Done:  E(RB3LYP) =  -760.940580788     A.U. after   12 cycles
 SCF Done:  E(RB3LYP) =  -760.940635488     A.U. after   12 cycles
 SCF Done:  E(RB3LYP) =  -760.940703940     A.U. after   11 cycles
 SCF Done:  E(RB3LYP) =  -760.940743741     A.U. after   11 cycles
 SCF Done:  E(RB3LYP) =  -760.940907585     A.U. after   10 cycles
 SCF Done:  E(RB3LYP) =  -760.940908545     A.U. after    8 cycles
 SCF Done:  E(RB3LYP) =  -760.940908928     A.U. after    8 cycles
 SCF Done:  E(RB3LYP) =  -760.940909094     A.U. after    8 cycles
 SCF Done:  E(RB3LYP) =  -760.940909115     A.U. after    6 cycles
 Optimization completed.
    -- Stationary point found.
 Normal termination of Gaussian 16 at Mon Dec 14 16:53:01 2020.

 --------------------------------------------------------------------
 #N Geom=AllCheck Guess=TCheck SCRF=Check GenChk RB3LYP/6-31G(d) Freq
 --------------------------------------------------------------------

 Structure from the checkpoint file:  "JID_7048.chk"
 -------------------------------
 CID_107055316_JID_7048_neutraal
 -------------------------------
 Charge =  0 Multiplicity = 1

 SCF Done:  E(RB3LYP) =  -760.940909115     A.U. after    1 cycles

  Exact polarizability: 152.485  11.238 163.794   5.360  -1.738 128.285
 Approx polarizability: 213.407  13.805 233.834  16.457  -3.778 205.170

                      1                      2                      3
                      A                      A                      A
 Frequencies --     16.7529                39.5352                51.8999
 Red. masses --      4.4570                 3.2308                 3.1722
 Frc consts  --      0.0007                 0.0030                 0.0050
 IR Inten    --      0.2354                 1.1451                 1.4496

                      4                      5                      6
                      A                      A                      A
 Frequencies --     66.9633                89.2168                96.0227
 Red. masses --      3.3596                 2.1701                 3.2967
 Frc consts  --      0.0089                 0.0102                 0.0179
 IR Inten    --      0.0199                 0.5845                 0.7548

                      7                      8                      9
                      A                      A                      A
 Frequencies --    105.7740               143.5411               176.6565
 Red. masses --      1.5812                 4.2970                 2.6049
 Frc consts  --      0.0104                 0.0522                 0.0479
 IR Inten    --      0.7088                 0.2166                 0.4201

                     10                     11                     12
                      A                      A                      A
 Frequencies --    206.3430               223.7941               239.2444
 Red. masses --      3.2762                 2.2913                 1.1251
 Frc consts  --      0.0822                 0.0676                 0.0379
 IR Inten    --      6.7537                 1.2858                 0.3141

                     13                     14                     15
                      A                      A                      A
 Frequencies --    263.1180               273.7622               301.1766
 Red. masses --      1.3854                 2.5445                 2.3057
 Frc consts  --      0.0565                 0.1124                 0.1232
 IR Inten    --      0.6276                 3.7456                 2.5234

                     16                     17                     18
                      A                      A                      A
 Frequencies --    315.5289               352.8970               403.0319
 Red. masses --      2.7305                 2.3156                 2.0709
 Frc consts  --      0.1602                 0.1699                 0.1982
 IR Inten    --      1.7461                 0.9595                 1.0880

                     19                     20                     21
                      A                      A                      A
 Frequencies --    412.6757               420.5373               433.6656
 Red. masses --      2.7784                 2.8187                 2.6220
 Frc consts  --      0.2788                 0.2937                 0.2905
 IR Inten    --      0.3288                 0.9847                 0.8796

                     22                     23                     24
                      A                      A                      A
 Frequencies --    462.4981               473.1369               485.2904
 Red. masses --      2.5857                 2.9054                 2.2702
 Frc consts  --      0.3259                 0.3832                 0.3150
 IR Inten    --      1.0914                 3.3987                 9.2358

                     25                     26                     27
                      A                      A                      A
 Frequencies --    519.8757               615.0663               663.0898
 Red. masses --      2.4253                 2.2648                 4.7443
 Frc consts  --      0.3862                 0.5048                 1.2290
 IR Inten    --      1.9787                 2.3189                 8.7085

                     28                     29                     30
                      A                      A                      A
 Frequencies --    692.4524               751.8559               794.8079
 Red. masses --     10.3004                 5.4988                 2.9539
 Frc consts  --      2.9100                 1.8314                 1.0994
 IR Inten    --      0.6591                12.2897                12.9936

                     31                     32                     33
                      A                      A                      A
 Frequencies --    822.6871               828.8206               839.4841
 Red. masses --      2.6395                 3.5879                 3.1318
 Frc consts  --      1.0526                 1.4522                 1.3004
 IR Inten    --     80.9679                21.0035                 6.6062

                     34                     35                     36
                      A                      A                      A
 Frequencies --    865.4505               884.6879               912.3932
 Red. masses --      1.7926                 1.6988                 2.0198
 Frc consts  --      0.7911                 0.7834                 0.9907
 IR Inten    --     28.0157                11.4135                18.6674

                     37                     38                     39
                      A                      A                      A
 Frequencies --    940.0781               957.6449               975.2438
 Red. masses --      1.2388                 2.0091                 1.8815
 Frc consts  --      0.6450                 1.0856                 1.0544
 IR Inten    --      2.5599                 1.9891                 0.5299

                     40                     41                     42
                      A                      A                      A
 Frequencies --    978.5855               991.6424              1031.6078
 Red. masses --      1.6882                 2.0558                 1.8475
 Frc consts  --      0.9525                 1.1911                 1.1584
 IR Inten    --      0.1049                 2.3741                19.3868

                     43                     44                     45
                      A                      A                      A
 Frequencies --   1036.4138              1042.1695              1056.1888
 Red. masses --      2.1393                 2.9230                 3.9898
 Frc consts  --      1.3539                 1.8705                 2.6223
 IR Inten    --      3.5954                19.0729                 3.9996

                     46                     47                     48
                      A                      A                      A
 Frequencies --   1087.4743              1108.0752              1111.9772
 Red. masses --      2.7755                 4.9244                 2.1099
 Frc consts  --      1.9338                 3.5624                 1.5371
 IR Inten    --     24.3346                 4.8637                 9.2776

                     49                     50                     51
                      A                      A                      A
 Frequencies --   1130.1554              1155.4465              1161.8823
 Red. masses --      3.4426                 2.2257                 1.3134
 Frc consts  --      2.5907                 1.7507                 1.0446
 IR Inten    --     36.6035                16.8399                 0.0975

                     52                     53                     54
                      A                      A                      A
 Frequencies --   1166.7961              1173.0770              1208.5240
 Red. masses --      2.5683                 2.1568                 1.8521
 Frc consts  --      2.0601                 1.7487                 1.5937
 IR Inten    --      7.7553                 8.9472                 6.9485

                     55                     56                     57
                      A                      A                      A
 Frequencies --   1218.6574              1235.6362              1255.2879
 Red. masses --      2.0990                 1.2249                 1.5707
 Frc consts  --      1.8366                 1.1018                 1.4582
 IR Inten    --     16.1730                 2.6658                 0.6670

                     58                     59                     60
                      A                      A                      A
 Frequencies --   1260.0056              1295.5406              1312.9304
 Red. masses --      3.5092                 1.7177                 2.1583
 Frc consts  --      3.2825                 1.6986                 2.1920
 IR Inten    --     27.0353                 1.1866                10.4881

                     61                     62                     63
                      A                      A                      A
 Frequencies --   1335.1355              1353.6292              1366.1571
 Red. masses --      1.3051                 1.2606                 1.8050
 Frc consts  --      1.3707                 1.3609                 1.9848
 IR Inten    --      0.1962                 3.0897                 1.6775

                     64                     65                     66
                      A                      A                      A
 Frequencies --   1380.6223              1384.5640              1391.5219
 Red. masses --      1.3139                 1.3369                 1.2743
 Frc consts  --      1.4756                 1.5100                 1.4538
 IR Inten    --      3.9394                 6.7105                 7.0077

                     67                     68                     69
                      A                      A                      A
 Frequencies --   1396.7171              1406.6232              1411.6918
 Red. masses --      1.4166                 1.3112                 1.4598
 Frc consts  --      1.6282                 1.5285                 1.7140
 IR Inten    --     14.2723                 3.1050                12.3463

                     70                     71                     72
                      A                      A                      A
 Frequencies --   1418.2684              1421.5676              1427.9238
 Red. masses --      8.0276                 1.2624                 1.4067
 Frc consts  --      9.5137                 1.5031                 1.6899
 IR Inten    --      9.4717                10.8429                 5.0346

                     73                     74                     75
                      A                      A                      A
 Frequencies --   1432.0068              1444.2611              1450.3567
 Red. masses --      1.4035                 3.0422                 1.2375
 Frc consts  --      1.6958                 3.7388                 1.5337
 IR Inten    --      7.9728                 9.4850                 3.3524

                     76                     77                     78
                      A                      A                      A
 Frequencies --   1468.1411              1487.1169              1493.7211
 Red. masses --      1.1887                 1.0897                 1.1202
 Frc consts  --      1.5096                 1.4199                 1.4726
 IR Inten    --      0.2321                12.2299                19.9498

                     79                     80                     81
                      A                      A                      A
 Frequencies --   1505.0418              1507.0512              1510.3961
 Red. masses --      1.0422                 1.1039                 1.1772
 Frc consts  --      1.3910                 1.4771                 1.5823
 IR Inten    --      8.1754                 4.9892                 7.5880

                     82                     83                     84
                      A                      A                      A
 Frequencies --   1516.8860              1518.5579              1519.8471
 Red. masses --      2.3734                 1.0731                 1.1732
 Frc consts  --      3.2176                 1.4579                 1.5967
 IR Inten    --     13.1015                 0.5463                 1.4185

                     85                     86                     87
                      A                      A                      A
 Frequencies --   1520.4740              1529.3475              1535.6453
 Red. masses --      1.0924                 1.0696                 1.1959
 Frc consts  --      1.4880                 1.4739                 1.6616
 IR Inten    --      2.6458                 2.9050                 7.6790

                     88                     89                     90
                      A                      A                      A
 Frequencies --   1536.6562              1540.8645              2985.1982
 Red. masses --      1.1383                 1.0520                 1.0703
 Frc consts  --      1.5836                 1.4716                 5.6198
 IR Inten    --      4.9101                 4.4557                30.3478

                     91                     92                     93
                      A                      A                      A
 Frequencies --   2991.4980              3008.8695              3016.5114
 Red. masses --      1.0716                 1.0784                 1.0726
 Frc consts  --      5.6502                 5.7522                 5.7504
 IR Inten    --     91.3299                 3.2521                39.7470

                     94                     95                     96
                      A                      A                      A
 Frequencies --   3034.9081              3043.2864              3054.8494
 Red. masses --      1.0353                 1.0384                 1.0640
 Frc consts  --      5.6183                 5.6661                 5.8504
 IR Inten    --     28.0120                37.9305                60.8971

                     97                     98                     99
                      A                      A                      A
 Frequencies --   3056.7262              3066.2059              3080.7491
 Red. masses --      1.0637                 1.0821                 1.0940
 Frc consts  --      5.8555                 5.9943                 6.1177
 IR Inten    --     26.9539                20.3532                29.3802

                    100                    101                    102
                      A                      A                      A
 Frequencies --   3086.6498              3087.3668              3098.4390
 Red. masses --      1.0927                 1.0323                 1.1018
 Frc consts  --      6.1335                 5.7976                 6.2324
 IR Inten    --     41.1314                20.1012                 4.3545

                    103                    104                    105
                      A                      A                      A
 Frequencies --   3102.1436              3105.0539              3106.6541
 Red. masses --      1.0935                 1.1017                 1.1010
 Frc consts  --      6.2000                 6.2583                 6.2608
 IR Inten    --     12.1074                48.4575                78.8258

                    106                    107                    108
                      A                      A                      A
 Frequencies --   3112.2717              3117.1877              3125.1060
 Red. masses --      1.1023                 1.1013                 1.0993
 Frc consts  --      6.2907                 6.3049                 6.3255
 IR Inten    --     31.4593                21.1535                29.7041

                    109                    110                    111
                      A                      A                      A
 Frequencies --   3160.5435              3198.4886              3427.1622
 Red. masses --      1.1068                 1.1050                 1.0728
 Frc consts  --      6.5138                 6.6602                 7.4240
 IR Inten    --      7.6634                 0.8009                 6.8200

 - Thermochemistry -
 -------------------
 Temperature   298.150 Kelvin.  Pressure   1.00000 Atm.
 Atom     1 has atomic number  6 and mass  12.00000

 Molecular mass:   238.19059 amu.
 Principal axes and moments of inertia in atomic units:
                           1         2         3
     Eigenvalues --  3489.648154314.187276190.03669
           X            0.99530   0.09683   0.00283
           Y           -0.09682   0.99530  -0.00291
           Z           -0.00310   0.00262   0.99999
 This molecule is an asymmetric top.
 Rotational symmetry number  1.
 Warning -- assumption of classical behavior for rotation
           may cause significant error
 Rotational temperatures (Kelvin)      0.02482     0.02008     0.01399
 Rotational constants (GHZ):           0.51717     0.41833     0.29156
 Zero-point vibrational energy     911622.8 (Joules/Mol)
                                  217.88309 (Kcal/Mol)
 Warning -- explicit consideration of  26 degrees of freedom as
           vibrations may cause significant error
 Vibrational temperatures:     24.10    56.88    74.67    96.35   128.36
          (Kelvin)            138.16   152.19   206.52   254.17   296.88
                              321.99   344.22   378.57   393.88   433.33
                              453.98   507.74   579.87   593.75   605.06
                              623.95   665.43   680.74   698.22   747.99
                              884.94   954.04   996.28  1081.75  1143.55
                             1183.66  1192.49  1207.83  1245.19  1272.87
                             1312.73  1352.56  1377.84  1403.16  1407.97
                             1426.75  1484.25  1491.17  1499.45  1519.62
                             1564.63  1594.27  1599.89  1626.04  1662.43
                             1671.69  1678.76  1687.80  1738.80  1753.38
                             1777.80  1806.08  1812.87  1863.99  1889.01
                             1920.96  1947.57  1965.60  1986.41  1992.08
                             2002.09  2009.56  2023.82  2031.11  2040.57
                             2045.32  2054.46  2060.34  2077.97  2086.74
                             2112.33  2139.63  2149.13  2165.42  2168.31
                             2173.12  2182.46  2184.87  2186.72  2187.62
                             2200.39  2209.45  2210.91  2216.96  4295.03
                             4304.10  4329.09  4340.09  4366.56  4378.61
                             4395.25  4397.95  4411.59  4432.51  4441.00
                             4442.03  4457.96  4463.29  4467.48  4469.78
                             4477.86  4484.94  4496.33  4547.32  4601.91
                             4930.92

 Zero-point correction=                           0.347219 (Hartree/Particle)
 Thermal correction to Energy=                    0.364441
 Thermal correction to Enthalpy=                  0.365385
 Thermal correction to Gibbs Free Energy=         0.300795
 Sum of electronic and zero-point Energies=           -760.593690
 Sum of electronic and thermal Energies=              -760.576468
 Sum of electronic and thermal Enthalpies=            -760.575524
 Sum of electronic and thermal Free Energies=         -760.640114

                     E (Thermal)             CV                S
                      KCal/Mol        Cal/Mol-Kelvin    Cal/Mol-Kelvin
 Total                  228.690             64.841            135.942
 Electronic               0.000              0.000              0.000
 Translational            0.889              2.981             42.305
 Rotational               0.889              2.981             32.899
 Vibrational            226.913             58.880             60.738
 Vibration     1          0.593              1.986              6.986
 Vibration     2          0.594              1.981              5.282
 Vibration     3          0.596              1.977              4.744
 Vibration     4          0.598              1.970              4.241
 Vibration     5          0.602              1.957              3.677
 Vibration     6          0.603              1.952              3.533
 Vibration     7          0.605              1.945              3.345
 Vibration     8          0.616              1.910              2.756
 Vibration     9          0.628              1.871              2.363
 Vibration    10          0.641              1.831              2.076
 Vibration    11          0.649              1.805              1.928
 Vibration    12          0.657              1.780              1.808
 Vibration    13          0.670              1.740              1.641
 Vibration    14          0.676              1.722              1.572
 Vibration    15          0.693              1.671              1.410
 Vibration    16          0.703              1.644              1.333
 Vibration    17          0.729              1.569              1.153
 Vibration    18          0.768              1.464              0.952
 Vibration    19          0.776              1.443              0.917
 Vibration    20          0.783              1.426              0.890
 Vibration    21          0.794              1.397              0.847
 Vibration    22          0.820              1.333              0.759
 Vibration    23          0.830              1.310              0.729
 Vibration    24          0.841              1.283              0.696
 Vibration    25          0.875              1.206              0.610
 Vibration    26          0.975              1.000              0.424

 Optimization completed.
    -- Stationary point found.
 Normal termination of Gaussian 16 at Mon Dec 14 17:10:59 2020.

 ----------------------------------------------------------------------
 # B3LYP/6-311++G(d,p) empiricaldispersion=gd3bj scf=xqc pop=npa geom=c
 heck
 ----------------------------------------------------------------------

 ---------------------------------------
 CID_107055316_JID_7048_Energie_neutraal
 ---------------------------------------
 Structure from the checkpoint file:  "JID_7048.chk"
 Charge =  0 Multiplicity = 1

 SCF Done:  E(RB3LYP) =  -761.147263171     A.U. after   15 cycles
 Normal termination of Gaussian 16 at Mon Dec 14 17:20:12 2020.

 ----------------------------------------------------------------------
 # B3LYP/6-311++G(d,p) empiricaldispersion=gd3bj scf=xqc pop=npa geom=c
 heck
 ----------------------------------------------------------------------

 -------------------------------------
 CID_107055316_JID_7048_Energie_kation
 -------------------------------------
 Structure from the checkpoint file:  "JID_7048.chk"
 Charge =  1 Multiplicity = 2

 SCF Done:  E(UB3LYP) =  -760.883923791     A.U. after   22 cycles
 Normal termination of Gaussian 16 at Mon Dec 14 17:38:59 2020.
 Gaussian 16:  ES64L-G16RevA.03 25-Dec-2016

 ----------------------------------------------------------------------
 # B3LYP/6-311++G(d,p) empiricaldispersion=gd3bj scf=xqc pop=npa geom=c
 heck
 ----------------------------------------------------------------------

 ------------------------------------
 CID_107055316_JID_7048_Energie_anion
 ------------------------------------
 Structure from the checkpoint file:  "JID_7048.chk"
 Charge = -1 Multiplicity = 2

                         Standard orientation:
 ---------------------------------------------------------------------
 Center     Atomic      Atomic             Coordinates (Angstroms)
 Number     Number       Type             X           Y           Z
 ---------------------------------------------------------------------
      1          6           0        3.502423   -0.023823    1.403370
      2          6           0        2.784968    0.475327    0.141244
      3          6           0        3.719579    1.378119   -0.674884
      4          6           0        2.243074   -0.688570   -0.725900
      5          6           0        0.752845   -0.975886   -0.532167
      6          6           0        0.400134   -1.461032    0.890439
      7          7           0       -1.009377   -1.807857    1.069356
      8          6           0       -1.522535   -2.666633    0.001889
      9          6           0       -1.147915   -2.197404   -1.412980
     10          7           0        0.288238   -1.924542   -1.556073
     11          6           0       -1.866727   -0.729209    1.544552
     12          6           0       -1.895403    0.526030    0.714049
     13          7           0       -1.073782    1.558575    0.918055
     14          7           0       -1.381162    2.356149   -0.103227
     15          7           0       -2.335042    1.872633   -0.896184
     16          7           0       -2.671756    0.710866   -0.386829
     17          6           0       -0.726908    3.627792   -0.344372
     18          1           0        4.396887   -0.599287    1.132231
     19          1           0        2.863950   -0.673443    2.010419
     20          1           0        3.823647    0.813925    2.033461
     21          1           0        1.926925    1.085928    0.460599
     22          1           0        4.583535    0.810727   -1.043977
     23          1           0        3.203968    1.799104   -1.546249
     24          1           0        4.101609    2.209490   -0.070243
     25          1           0        2.380612   -0.465700   -1.790352
     26          1           0        2.824829   -1.602077   -0.527978
     27          1           0        0.210907   -0.042438   -0.724460
     28          1           0        0.662825   -0.709147    1.640935
     29          1           0        1.005054   -2.359154    1.099702
     30          1           0       -1.097284   -3.671952    0.157023
     31          1           0       -2.609271   -2.753911    0.112164
     32          1           0       -1.692168   -1.279141   -1.657238
     33          1           0       -1.435304   -2.957372   -2.149946
     34          1           0        0.801338   -2.801238   -1.435624
     35          1           0       -2.886417   -1.117187    1.625459
     36          1           0       -1.534160   -0.446632    2.550378
     37          1           0       -0.870520    4.283772    0.517034
     38          1           0        0.341055    3.464091   -0.507240
     39          1           0       -1.183062    4.062598   -1.233225
 ---------------------------------------------------------------------

 SCF Done:  E(UB3LYP) =  -761.136035870     A.U. after   33 cycles
 SCF Done:  E(UB3LYP) =  -761.136035870     a.u. after    1 cycles

 The electronic state is 2-A.
 Alpha  occ. eigenvalues --  -14.31185 -14.25913 -14.23500 -14.22469 -14.21093
 Alpha  occ. eigenvalues --  -14.19973 -10.11714 -10.11282 -10.11237 -10.10110
 Alpha  occ. eigenvalues --  -10.09330 -10.09167 -10.09042 -10.06909 -10.06027
 Alpha  occ. eigenvalues --  -10.05614 -10.04928  -1.02906  -0.84735  -0.83479
 Alpha  occ. eigenvalues --   -0.79883  -0.77662  -0.70858  -0.66506  -0.65618
 Alpha  occ. eigenvalues --   -0.62451  -0.59504  -0.57941  -0.55727  -0.52508
 Alpha  occ. eigenvalues --   -0.51663  -0.50207  -0.47928  -0.46013  -0.41693
 Alpha  occ. eigenvalues --   -0.40773  -0.39211  -0.38091  -0.36561  -0.36174
 Alpha  occ. eigenvalues --   -0.35600  -0.34872  -0.33308  -0.32696  -0.32021
 Alpha  occ. eigenvalues --   -0.31693  -0.31339  -0.30082  -0.29034  -0.28571
 Alpha  occ. eigenvalues --   -0.28103  -0.26963  -0.26394  -0.25523  -0.24673
 Alpha  occ. eigenvalues --   -0.23972  -0.22316  -0.22118  -0.21466  -0.20646
 Alpha  occ. eigenvalues --   -0.20036  -0.18066  -0.17669  -0.15496  -0.10097
 Alpha  occ. eigenvalues --    0.04748
 Alpha virt. eigenvalues --    0.06353   0.06796   0.07419   0.08143   0.08689
 Alpha virt. eigenvalues --    0.09184   0.09631   0.10146   0.10293   0.11110
 Alpha virt. eigenvalues --    0.11462   0.11816   0.11936   0.12440   0.12598

  Beta  occ. eigenvalues --  -14.30952 -14.25633 -14.23329 -14.22449 -14.21094
  Beta  occ. eigenvalues --  -14.19969 -10.11735 -10.11279 -10.11206 -10.10108
  Beta  occ. eigenvalues --  -10.09321 -10.09163 -10.09041 -10.06897 -10.06018
  Beta  occ. eigenvalues --  -10.05593 -10.04889  -1.02580  -0.84726  -0.83166
  Beta  occ. eigenvalues --   -0.79843  -0.77422  -0.70835  -0.66490  -0.65528
  Beta  occ. eigenvalues --   -0.62353  -0.59478  -0.57879  -0.55698  -0.52460
  Beta  occ. eigenvalues --   -0.51433  -0.50112  -0.47898  -0.45955  -0.41577
  Beta  occ. eigenvalues --   -0.40277  -0.38935  -0.38047  -0.36525  -0.36145
  Beta  occ. eigenvalues --   -0.35583  -0.34823  -0.33270  -0.32650  -0.31898
  Beta  occ. eigenvalues --   -0.31530  -0.31291  -0.30051  -0.29002  -0.28544
  Beta  occ. eigenvalues --   -0.28069  -0.26792  -0.26356  -0.25469  -0.24621
  Beta  occ. eigenvalues --   -0.23915  -0.22287  -0.22022  -0.21432  -0.19822
  Beta  occ. eigenvalues --   -0.19662  -0.17877  -0.16989  -0.15452  -0.10082
  Beta virt. eigenvalues --    0.06392   0.07377   0.07753   0.08157   0.08678
  Beta virt. eigenvalues --    0.09135   0.09440   0.09875   0.10136   0.10716
  Beta virt. eigenvalues --    0.11377   0.11700   0.12062   0.12164   0.12619

 Mulliken charges and spin densities:
               1          2
     1  C    0.241453  -0.960491
     2  C   -1.921730   2.371386
     3  C    1.234870  -1.936357
     4  C    0.702379  -1.175868
     5  C    0.075805  -0.021241
     6  C   -1.264899   0.046526
     7  N    0.294686   0.027617
     8  C    0.072946  -0.104741
     9  C   -0.421000   0.035344
    10  N    0.002518   0.026658
    11  C   -0.444885  -0.167685
    12  C   -0.580902   0.087756
    13  N    0.005184   0.151462
    14  N   -0.106909   0.167471
    15  N    0.087303   0.191000
    16  N   -0.134886  -0.048864
    17  C    0.965783  -1.261674
    18  H   -0.044454   0.173796
    19  H   -0.004921   0.104985
    20  H   -0.218047   0.367698
    21  H    0.560659  -0.398690
    22  H    0.000881   0.128211
    23  H   -0.160163   0.301481
    24  H   -0.509508   0.656393
    25  H    0.100435   0.110368
    26  H    0.011813   0.118043
    27  H    0.198810   0.086727
    28  H    0.142273   0.116468
    29  H    0.045584   0.152265
    30  H    0.034702   0.088505
    31  H    0.127955   0.007934
    32  H    0.175265   0.011300
    33  H    0.118456   0.048969
    34  H    0.213550   0.015641
    35  H    0.127601   0.037955
    36  H    0.161941  -0.011059
    37  H   -0.022918   0.188494
    38  H   -0.660647   0.889150
    39  H   -0.206984   0.377068
 Sum of Mulliken charges =  -1.00000   1.00000

 Dipole moment (field-independent basis, Debye):
    X=             -4.4813    Y=             -6.8968    Z=              2.4353  Tot=              8.5778
 Quadrupole moment (field-independent basis, Debye-Ang):
   XX=           -169.1842   YY=           -157.2505   ZZ=           -138.8375
   XY=            -10.9210   XZ=             -6.0982   YZ=              8.0950

 Summary of Natural Population Analysis:

                                       Natural Population
                Natural  -----------------------------------------------
    Atom  No    Charge         Core      Valence    Rydberg      Total
 -----------------------------------------------------------------------
      C    1   -0.28143      0.99965     2.27635    0.00544     3.28143
      C    2   -0.12383      0.99962     2.11464    0.00957     3.12383
      C    3   -0.27945      0.99965     2.27369    0.00611     3.27945
      C    4   -0.18819      0.99959     2.17801    0.01059     3.18819
      C    5   -0.02248      0.99958     2.01128    0.01163     3.02248
      C    6   -0.09515      0.99959     2.08370    0.01186     3.09515
      N    7   -0.27941      0.99974     2.76554    0.01413     3.77941
      C    8   -0.08875      0.99962     2.07947    0.00967     3.08875
      C    9   -0.10369      0.99962     2.09355    0.01052     3.10369
      N   10   -0.33516      0.99975     2.82334    0.01207     3.83516
      C   11   -0.09930      0.99956     2.08832    0.01142     3.09930
      C   12    0.13415      0.99966     1.84815    0.01805     2.86585
      N   13   -0.13477      0.99969     2.62419    0.01090     3.63477
      N   14    0.01291      0.99972     2.47178    0.01559     3.48709
      N   15   -0.00117      0.99977     2.48550    0.01589     3.50117
      N   16   -0.16825      0.99971     2.65414    0.01440     3.66825
      C   17   -0.17810      0.99964     2.17042    0.00804     3.17810
      H   18    0.09371      0.00000     0.40538    0.00091     0.40629
      H   19    0.09648      0.00000     0.40267    0.00085     0.40352
      H   20    0.09995      0.00000     0.39921    0.00084     0.40005
      H   21    0.09891      0.00000     0.39852    0.00256     0.40109
      H   22    0.09240      0.00000     0.40657    0.00103     0.40760
      H   23    0.10126      0.00000     0.39730    0.00144     0.39874
      H   24    0.10089      0.00000     0.39759    0.00152     0.39911
      H   25    0.10564      0.00000     0.39283    0.00152     0.39436
      H   26    0.09109      0.00000     0.40786    0.00105     0.40891
      H   27    0.09660      0.00000     0.40048    0.00292     0.40340
      H   28    0.10420      0.00000     0.39469    0.00111     0.39580
      H   29    0.08938      0.00000     0.40931    0.00130     0.41062
      H   30    0.08511      0.00000     0.41332    0.00157     0.41489
      H   31    0.09587      0.00000     0.40299    0.00114     0.40413
      H   32    0.10462      0.00000     0.39362    0.00176     0.39538
      H   33    0.08889      0.00000     0.41004    0.00107     0.41111
      H   34    0.16308      0.00000     0.33445    0.00248     0.33692
      H   35    0.10225      0.00000     0.39666    0.00109     0.39775
      H   36    0.10106      0.00000     0.39785    0.00109     0.39894
      H   37    0.09980      0.00000     0.39931    0.00089     0.40020
      H   38    0.11230      0.00000     0.38412    0.00358     0.38770
      H   39    0.10856      0.00000     0.38989    0.00155     0.39144
 =======================================================================
   * Total *    0.00000     16.99415    47.77672    0.22913    65.00000

 Normal termination of Gaussian 16 at Mon Dec 14 18:07:34 2020.
