 Gaussian 16, Revision A.03,

 -----------------------------------------------------------
 # opt freq B3LYP/6-31G(d) empiricaldispersion=gd3bj scf=xqc
 -----------------------------------------------------------

 ------------------------------
 CID_20187591_JID_3521_neutraal
 ------------------------------
 Symbolic Z-matrix:
 Charge =  0 Multiplicity = 1

 SCF Done:  E(RB3LYP) =  -1007.39269545     A.U. after   33 cycles
 SCF Done:  E(RB3LYP) =  -1007.39269546     a.u. after    2 cycles
 SCF Done:  E(RB3LYP) =  -1007.41686013     A.U. after   23 cycles
 SCF Done:  E(RB3LYP) =  -1007.42611442     A.U. after   23 cycles
 SCF Done:  E(RB3LYP) =  -1007.44357245     A.U. after   22 cycles
 SCF Done:  E(RB3LYP) =  -1007.46435468     A.U. after   20 cycles
 SCF Done:  E(RB3LYP) =  -1007.48577491     A.U. after   17 cycles
 SCF Done:  E(RB3LYP) =  -1007.49855872     A.U. after   15 cycles
 SCF Done:  E(RB3LYP) =  -1007.50485733     A.U. after   17 cycles
 SCF Done:  E(RB3LYP) =  -1007.51651981     A.U. after   15 cycles
 SCF Done:  E(RB3LYP) =  -1007.55335038     A.U. after   11 cycles
 SCF Done:  E(RB3LYP) =  -1007.55335448     A.U. after    9 cycles
 SCF Done:  E(RB3LYP) =  -1007.55335548     A.U. after    9 cycles
 SCF Done:  E(RB3LYP) =  -1007.55335656     A.U. after    8 cycles
 SCF Done:  E(RB3LYP) =  -1007.55335671     A.U. after    8 cycles
 Optimization completed.
    -- Stationary point found.
 Normal termination of Gaussian 16 at Wed Dec  9 23:44:51 2020.

 --------------------------------------------------------------------
 #N Geom=AllCheck Guess=TCheck SCRF=Check GenChk RB3LYP/6-31G(d) Freq
 --------------------------------------------------------------------

 Structure from the checkpoint file:  "JID_3521.chk"
 ------------------------------
 CID_20187591_JID_3521_neutraal
 ------------------------------
 Charge =  0 Multiplicity = 1

 SCF Done:  E(RB3LYP) =  -1007.55335671     A.U. after    1 cycles

  Exact polarizability: 142.896 -12.370 100.840   8.666  -9.234  57.069
 Approx polarizability: 217.193 -18.279 182.109  19.519 -22.451  89.998

                      1                      2                      3
                      A                      A                      A
 Frequencies --     19.0325                23.1469                37.1079
 Red. masses --      7.7482                12.1705                 7.4838
 Frc consts  --      0.0017                 0.0038                 0.0061
 IR Inten    --      0.1410                 0.0897                 0.0973

                      4                      5                      6
                      A                      A                      A
 Frequencies --     43.4867                65.2987                84.9112
 Red. masses --      5.0021                10.9275                10.2664
 Frc consts  --      0.0056                 0.0275                 0.0436
 IR Inten    --      0.7313                 2.6387                 1.6543

                      7                      8                      9
                      A                      A                      A
 Frequencies --     96.4184               119.6903               196.3555
 Red. masses --     10.2990                14.3824                 7.1912
 Frc consts  --      0.0564                 0.1214                 0.1634
 IR Inten    --      1.0623                 0.8996                 6.3578

                     10                     11                     12
                      A                      A                      A
 Frequencies --    259.7084               288.4018               407.8926
 Red. masses --      6.1256                 4.0551                 2.5433
 Frc consts  --      0.2434                 0.1987                 0.2493
 IR Inten    --      1.9654                 1.6050                 4.1534

                     13                     14                     15
                      A                      A                      A
 Frequencies --    483.6854               549.2222               562.7560
 Red. masses --      5.5544                 4.8921                 4.4107
 Frc consts  --      0.7656                 0.8694                 0.8230
 IR Inten    --      7.9220                 3.9419                 0.1134

                     16                     17                     18
                      A                      A                      A
 Frequencies --    599.1304               623.3646               634.9119
 Red. masses --      3.9563                11.5852                 7.4898
 Frc consts  --      0.8367                 2.6524                 1.7789
 IR Inten    --      4.5881                60.0664                21.9139

                     19                     20                     21
                      A                      A                      A
 Frequencies --    642.5636               675.5173               711.0325
 Red. masses --     12.8172                 7.7928                 1.1996
 Frc consts  --      3.1180                 2.0952                 0.3573
 IR Inten    --     28.0370                33.9692                54.1434

                     22                     23                     24
                      A                      A                      A
 Frequencies --    719.6006               762.2159               839.0998
 Red. masses --      6.4040                 6.5507                 1.3080
 Frc consts  --      1.9538                 2.2423                 0.5426
 IR Inten    --     24.9781                 8.6438                 7.4790

                     25                     26                     27
                      A                      A                      A
 Frequencies --    864.2132               899.6350               910.2383
 Red. masses --      3.9585                 2.4395                 1.3250
 Frc consts  --      1.7419                 1.1633                 0.6468
 IR Inten    --      3.6747                 8.5098                 0.6157

                     28                     29                     30
                      A                      A                      A
 Frequencies --    992.0961              1052.0751              1072.7789
 Red. masses --      2.2049                 2.4234                 1.6054
 Frc consts  --      1.2786                 1.5804                 1.0885
 IR Inten    --     28.9254                15.0715                 6.2470

                     31                     32                     33
                      A                      A                      A
 Frequencies --   1114.8739              1146.4277              1166.2399
 Red. masses --      1.2405                 2.1706                 3.4103
 Frc consts  --      0.9084                 1.6808                 2.7329
 IR Inten    --      0.8575                24.0732                19.9481

                     34                     35                     36
                      A                      A                      A
 Frequencies --   1201.0617              1236.8726              1284.9324
 Red. masses --      2.6706                 1.5751                 1.3262
 Frc consts  --      2.2698                 1.4197                 1.2901
 IR Inten    --     31.6466                28.4653                 4.1596

                     37                     38                     39
                      A                      A                      A
 Frequencies --   1325.8888              1371.5943              1406.6950
 Red. masses --      1.3352                15.9657                 2.0492
 Frc consts  --      1.3829                17.6965                 2.3891
 IR Inten    --     14.2202                 0.5447                 0.4656

                     40                     41                     42
                      A                      A                      A
 Frequencies --   1418.4112              1486.3140              1503.9059
 Red. masses --      1.6685                 1.0870                 6.4908
 Frc consts  --      1.9778                 1.4148                 8.6495
 IR Inten    --      1.5150                 7.7654                 7.3374

                     43                     44                     45
                      A                      A                      A
 Frequencies --   1607.0642              2010.4186              2435.4692
 Red. masses --      5.5509                12.5542                12.8702
 Frc consts  --      8.4466                29.8960                44.9779
 IR Inten    --      0.6117               535.7511               613.2989

                     46                     47                     48
                      A                      A                      A
 Frequencies --   3057.4419              3102.2647              3177.7685
 Red. masses --      1.0618                 1.1011                 1.0890
 Frc consts  --      5.8478                 6.2437                 6.4790
 IR Inten    --     13.2401                 2.7226                 5.4439

                     49                     50                     51
                      A                      A                      A
 Frequencies --   3211.9515              3230.5035              3272.4697
 Red. masses --      1.0902                 1.0940                 1.0972
 Frc consts  --      6.6264                 6.7268                 6.9230
 IR Inten    --      7.0756                 7.1957                 1.0212

 - Thermochemistry -
 -------------------
 Temperature   298.150 Kelvin.  Pressure   1.00000 Atm.
 Atom     1 has atomic number  6 and mass  12.00000

 Molecular mass:   197.99868 amu.
 Principal axes and moments of inertia in atomic units:
                           1         2         3
     Eigenvalues --  1046.116196002.879376897.86975
           X            0.99996  -0.00846   0.00192
           Y            0.00847   0.99996  -0.00411
           Z           -0.00188   0.00413   0.99999
 This molecule is an asymmetric top.
 Rotational symmetry number  1.
 Warning -- assumption of classical behavior for rotation
           may cause significant error
 Rotational temperatures (Kelvin)      0.08280     0.01443     0.01256
 Rotational constants (GHZ):           1.72518     0.30065     0.26164
 Zero-point vibrational energy     334979.2 (Joules/Mol)
                                   80.06196 (Kcal/Mol)
 Warning -- explicit consideration of  16 degrees of freedom as
           vibrations may cause significant error
 Vibrational temperatures:     27.38    33.30    53.39    62.57    93.95
          (Kelvin)            122.17   138.72   172.21   282.51   373.66
                              414.95   586.87   695.92   790.21   809.68
                              862.01   896.88   913.50   924.51   971.92
                             1023.02  1035.34  1096.66  1207.28  1243.41
                             1294.37  1309.63  1427.41  1513.70  1543.49
                             1604.05  1649.45  1677.96  1728.06  1779.58
                             1848.73  1907.66  1973.42  2023.92  2040.78
                             2138.47  2163.79  2312.21  2892.54  3504.10
                             4398.98  4463.47  4572.10  4621.28  4647.97
                             4708.35

 Zero-point correction=                           0.127587 (Hartree/Particle)
 Thermal correction to Energy=                    0.140813
 Thermal correction to Enthalpy=                  0.141757
 Thermal correction to Gibbs Free Energy=         0.082746
 Sum of electronic and zero-point Energies=          -1007.425770
 Sum of electronic and thermal Energies=             -1007.412544
 Sum of electronic and thermal Enthalpies=           -1007.411600
 Sum of electronic and thermal Free Energies=        -1007.470611

                     E (Thermal)             CV                S
                      KCal/Mol        Cal/Mol-Kelvin    Cal/Mol-Kelvin
 Total                   88.361             44.191            124.199
 Electronic               0.000              0.000              0.000
 Translational            0.889              2.981             41.754
 Rotational               0.889              2.981             32.138
 Vibrational             86.584             38.230             50.307
 Vibration     1          0.593              1.986              6.733
 Vibration     2          0.593              1.985              6.344
 Vibration     3          0.594              1.982              5.408
 Vibration     4          0.595              1.980              5.094
 Vibration     5          0.597              1.971              4.290
 Vibration     6          0.601              1.960              3.774
 Vibration     7          0.603              1.952              3.525
 Vibration     8          0.609              1.933              3.105
 Vibration     9          0.636              1.845              2.167
 Vibration    10          0.668              1.746              1.664
 Vibration    11          0.685              1.695              1.483
 Vibration    12          0.772              1.453              0.934
 Vibration    13          0.840              1.286              0.700
 Vibration    14          0.904              1.141              0.546
 Vibration    15          0.918              1.112              0.518
 Vibration    16          0.957              1.034              0.451

                           ! Non-Optimized Parameters !
 Normal termination of Gaussian 16 at Wed Dec  9 23:48:22 2020.

 ----------------------------------------------------------------------
 # B3LYP/6-311++G(d,p) empiricaldispersion=gd3bj scf=xqc pop=npa geom=c
 heck
 ----------------------------------------------------------------------

 --------------------------------------
 CID_20187591_JID_3521_Energie_neutraal
 --------------------------------------
 Structure from the checkpoint file:  "JID_3521.chk"
 Charge =  0 Multiplicity = 1

 SCF Done:  E(RB3LYP) =  -1007.76387891     A.U. after   16 cycles
 Normal termination of Gaussian 16 at Wed Dec  9 23:49:40 2020.

 ----------------------------------------------------------------------
 # B3LYP/6-311++G(d,p) empiricaldispersion=gd3bj scf=xqc pop=npa geom=c
 heck
 ----------------------------------------------------------------------

 ------------------------------------
 CID_20187591_JID_3521_Energie_kation
 ------------------------------------
 Structure from the checkpoint file:  "JID_3521.chk"
 Charge =  1 Multiplicity = 2

 SCF Done:  E(UB3LYP) =  -1007.44132117     A.U. after   25 cycles
 Normal termination of Gaussian 16 at Wed Dec  9 23:52:24 2020.
 Gaussian 16:  ES64L-G16RevA.03 25-Dec-2016

 ----------------------------------------------------------------------
 # B3LYP/6-311++G(d,p) empiricaldispersion=gd3bj scf=xqc pop=npa geom=c
 heck
 ----------------------------------------------------------------------

 -----------------------------------
 CID_20187591_JID_3521_Energie_anion
 -----------------------------------
 Structure from the checkpoint file:  "JID_3521.chk"
 Charge = -1 Multiplicity = 2

                         Standard orientation:
 ---------------------------------------------------------------------
 Center     Atomic      Atomic             Coordinates (Angstroms)
 Number     Number       Type             X           Y           Z
 ---------------------------------------------------------------------
      1          6           0        3.821024   -1.301461    0.287469
      2          6           0        4.099022    0.010462    0.024596
      3         16           0        2.664709    0.904646   -0.370805
      4          6           0        1.667684   -0.519446   -0.184688
      5          6           0        2.429518   -1.601864    0.168530
      6          6           0        0.181837   -0.464141   -0.387194
      7          6           0       -0.516795    0.428146    0.607737
      8          6           0       -1.630716    1.282116    0.248987
      9          8           0       -2.781625    1.500943    0.001746
     10          8           0       -0.475281    1.942715    0.286152
     11          6           0       -3.990949   -1.052738   -0.085577
     12          8           0       -5.055921   -0.618331   -0.277235
     13          8           0       -2.940219   -1.536252    0.105402
     14          1           0        4.576446   -2.031450    0.555661
     15          1           0        5.058254    0.509567    0.042277
     16          1           0        2.006258   -2.587408    0.333749
     17          1           0       -0.077303   -0.137043   -1.401415
     18          1           0       -0.234137   -1.471145   -0.264183
     19          1           0       -0.304242    0.244102    1.659116
 ---------------------------------------------------------------------

 SCF Done:  E(UB3LYP) =  -1007.75371283     A.U. after   33 cycles
 SCF Done:  E(UB3LYP) =  -1007.75371283     a.u. after    1 cycles

 The electronic state is 2-A.
 Alpha  occ. eigenvalues --  -88.76587 -19.10134 -19.10001 -19.08623 -19.04485
 Alpha  occ. eigenvalues --  -10.25944 -10.22493 -10.16281 -10.09887 -10.09755
 Alpha  occ. eigenvalues --  -10.08827 -10.06995 -10.06695  -7.85221  -5.81505
 Alpha  occ. eigenvalues --   -5.81139  -5.80829  -1.05744  -1.04063  -1.01826
 Alpha  occ. eigenvalues --   -0.96344  -0.77722  -0.69879  -0.62818  -0.61644
 Alpha  occ. eigenvalues --   -0.55871  -0.48353  -0.46491  -0.45963  -0.43931
 Alpha  occ. eigenvalues --   -0.42310  -0.42104  -0.41221  -0.40987  -0.40270
 Alpha  occ. eigenvalues --   -0.38656  -0.37286  -0.33554  -0.31096  -0.30474
 Alpha  occ. eigenvalues --   -0.29103  -0.28264  -0.27209  -0.26975  -0.26806
 Alpha  occ. eigenvalues --   -0.26349  -0.23905  -0.23096  -0.19160  -0.14984
 Alpha  occ. eigenvalues --   -0.13204   0.04528
 Alpha virt. eigenvalues --    0.06710   0.07195   0.08036   0.08099   0.08791
 Alpha virt. eigenvalues --    0.09393   0.09671   0.10721   0.12208   0.12363
 Alpha virt. eigenvalues --    0.12857   0.13115   0.13464   0.13616   0.13801

  Beta  occ. eigenvalues --  -88.76568 -19.10103 -19.09960 -19.08613 -19.04464
  Beta  occ. eigenvalues --  -10.25938 -10.22485 -10.16241 -10.09866 -10.09674
  Beta  occ. eigenvalues --  -10.08722 -10.06992 -10.06650  -7.85202  -5.81495
  Beta  occ. eigenvalues --   -5.81130  -5.80773  -1.05647  -1.04035  -1.01730
  Beta  occ. eigenvalues --   -0.96306  -0.77602  -0.69773  -0.62709  -0.61508
  Beta  occ. eigenvalues --   -0.55792  -0.48294  -0.46460  -0.45828  -0.43804
  Beta  occ. eigenvalues --   -0.42264  -0.42054  -0.41137  -0.40913  -0.40186
  Beta  occ. eigenvalues --   -0.38595  -0.37240  -0.33494  -0.30998  -0.30383
  Beta  occ. eigenvalues --   -0.29036  -0.28198  -0.27173  -0.26943  -0.26646
  Beta  occ. eigenvalues --   -0.26200  -0.23831  -0.23037  -0.19103  -0.14725
  Beta  occ. eigenvalues --   -0.12720
  Beta virt. eigenvalues --    0.06904   0.07352   0.07756   0.08435   0.08803
  Beta virt. eigenvalues --    0.09369   0.09904   0.10080   0.11108   0.12422
  Beta virt. eigenvalues --    0.12486   0.12998   0.13290   0.13543   0.13762

 Mulliken charges and spin densities:
               1          2
     1  C    1.593519  -2.569317
     2  C   -0.391764   0.765890
     3  S   -0.188378  -0.206521
     4  C   -2.242629   2.631013
     5  C   -1.409021   2.198836
     6  C    4.407470  -5.411925
     7  C   -1.113126   1.098167
     8  C    1.524034  -1.580025
     9  O   -0.290540  -0.002158
    10  O   -0.059618  -0.004926
    11  C    0.301199   0.147194
    12  O   -0.162211  -0.079026
    13  O   -0.146982  -0.053969
    14  H   -0.333265   0.461712
    15  H   -0.351463   0.589879
    16  H   -0.805113   0.982428
    17  H   -0.651268   0.887810
    18  H   -0.129685   0.340947
    19  H   -0.551159   0.803992
 Sum of Mulliken charges =  -1.00000   1.00000

 Dipole moment (field-independent basis, Debye):
    X=             -0.9459    Y=              2.4098    Z=              0.6735  Tot=              2.6750
 Quadrupole moment (field-independent basis, Debye-Ang):
   XX=           -156.3496   YY=           -119.4034   ZZ=           -104.1993
   XY=              8.6336   XZ=             -2.5524   YZ=             -0.3174

 Summary of Natural Population Analysis:

                                       Natural Population
                Natural  -----------------------------------------------
    Atom  No    Charge         Core      Valence    Rydberg      Total
 -----------------------------------------------------------------------
      C    1   -0.12933      0.99953     2.11930    0.01051     3.12933
      C    2   -0.17985      0.99954     2.16894    0.01137     3.17985
      S    3    0.20878      4.99940     2.77141    0.02041     7.79122
      C    4   -0.09446      0.99950     2.08043    0.01453     3.09446
      C    5   -0.12056      0.99945     2.10899    0.01212     3.12056
      C    6   -0.22578      0.99955     2.21355    0.01268     3.22578
      C    7    0.02498      0.99956     1.96212    0.01334     2.97502
      C    8    0.39257      0.99961     1.58031    0.02751     2.60743
      O    9   -0.28366      0.99987     3.27698    0.00681     4.28366
      O   10   -0.25702      0.99991     3.25012    0.00698     4.25702
      C   11    0.51645      0.99983     1.45930    0.02442     2.48355
      O   12   -0.25605      0.99986     3.24880    0.00740     4.25605
      O   13   -0.26133      0.99986     3.25356    0.00792     4.26133
      H   14    0.10551      0.00000     0.39314    0.00136     0.39449
      H   15    0.10602      0.00000     0.39294    0.00105     0.39398
      H   16    0.10859      0.00000     0.38921    0.00220     0.39141
      H   17    0.11328      0.00000     0.38375    0.00298     0.38672
      H   18    0.12782      0.00000     0.36814    0.00404     0.37218
      H   19    0.10403      0.00000     0.39409    0.00188     0.39597
 =======================================================================
   * Total *    0.00000     16.99547    33.81505    0.18948    51.00000

 Normal termination of Gaussian 16 at Wed Dec  9 23:56:07 2020.
