 Gaussian 16, Revision A.03,

 -----------------------------------------------------------
 # opt freq B3LYP/6-31G(d) empiricaldispersion=gd3bj scf=xqc
 -----------------------------------------------------------

 -------------------------------
 CID_105487694_JID_7328_neutraal
 -------------------------------
 Symbolic Z-matrix:
 Charge =  0 Multiplicity = 1

 SCF Done:  E(RB3LYP) =  -767.675656936     A.U. after   14 cycles
 SCF Done:  E(RB3LYP) =  -767.680854913     A.U. after   12 cycles
 SCF Done:  E(RB3LYP) =  -767.679163218     A.U. after   13 cycles
 SCF Done:  E(RB3LYP) =  -767.681406690     A.U. after   11 cycles
 SCF Done:  E(RB3LYP) =  -767.681509632     A.U. after   10 cycles
 SCF Done:  E(RB3LYP) =  -767.681510234     A.U. after   10 cycles
 SCF Done:  E(RB3LYP) =  -767.681512464     A.U. after    9 cycles
 SCF Done:  E(RB3LYP) =  -767.681512696     A.U. after    7 cycles
 Optimization completed.
    -- Stationary point found.
 Normal termination of Gaussian 16 at Mon Dec 14 13:12:35 2020.

 --------------------------------------------------------------------
 #N Geom=AllCheck Guess=TCheck SCRF=Check GenChk RB3LYP/6-31G(d) Freq
 --------------------------------------------------------------------

 Structure from the checkpoint file:  "JID_7328.chk"
 -------------------------------
 CID_105487694_JID_7328_neutraal
 -------------------------------
 Charge =  0 Multiplicity = 1

 SCF Done:  E(RB3LYP) =  -767.681512696     A.U. after    1 cycles

  Exact polarizability: 240.244   4.488 150.465  10.464   1.721  83.346
 Approx polarizability: 364.733  23.543 268.529  21.023   7.839 123.931

                      1                      2                      3
                      A                      A                      A
 Frequencies --     32.3288                41.7449                72.0947
 Red. masses --      6.0592                 9.8051                 4.5638
 Frc consts  --      0.0037                 0.0101                 0.0140
 IR Inten    --      0.3006                 1.0853                 1.3597

                      4                      5                      6
                      A                      A                      A
 Frequencies --    122.8062               139.2651               166.5632
 Red. masses --      5.6066                 4.5685                 4.9654
 Frc consts  --      0.0498                 0.0522                 0.0812
 IR Inten    --      0.9166                 0.4497                 0.6996

                      7                      8                      9
                      A                      A                      A
 Frequencies --    221.2359               240.1153               260.5320
 Red. masses --      2.7412                 1.1244                 2.9610
 Frc consts  --      0.0790                 0.0382                 0.1184
 IR Inten    --      0.1942                 0.2695                 0.6113

                     10                     11                     12
                      A                      A                      A
 Frequencies --    300.2315               301.3642               312.2490
 Red. masses --      2.8310                 3.8064                 1.8950
 Frc consts  --      0.1504                 0.2037                 0.1089
 IR Inten    --      0.5321                 1.1839                 0.4427

                     13                     14                     15
                      A                      A                      A
 Frequencies --    328.4284               332.7092               356.0664
 Red. masses --      1.0895                 2.3945                 2.7448
 Frc consts  --      0.0692                 0.1562                 0.2050
 IR Inten    --    114.6129                 0.4557                 4.7872

                     16                     17                     18
                      A                      A                      A
 Frequencies --    381.9966               429.7138               438.9038
 Red. masses --      4.5224                 4.0243                 3.8230
 Frc consts  --      0.3888                 0.4378                 0.4339
 IR Inten    --      5.2534                 1.0118                 1.6742

                     19                     20                     21
                      A                      A                      A
 Frequencies --    474.5000               483.6288               484.9887
 Red. masses --      3.8569                 4.2220                 2.7077
 Frc consts  --      0.5116                 0.5818                 0.3752
 IR Inten    --      3.9883                 1.0855                 2.9508

                     22                     23                     24
                      A                      A                      A
 Frequencies --    515.1859               585.4615               616.5431
 Red. masses --      4.2516                 4.2844                 1.9251
 Frc consts  --      0.6649                 0.8652                 0.4311
 IR Inten    --     12.0540                11.1026                56.1193

                     25                     26                     27
                      A                      A                      A
 Frequencies --    628.3836               652.8469               673.4941
 Red. masses --      2.2392                 6.6497                 2.7234
 Frc consts  --      0.5209                 1.6698                 0.7278
 IR Inten    --     39.8741                 3.1820                15.5704

                     28                     29                     30
                      A                      A                      A
 Frequencies --    681.3756               751.1312               763.0746
 Red. masses --      3.7218                 4.9071                 2.8406
 Frc consts  --      1.0181                 1.6312                 0.9745
 IR Inten    --     35.2351                 8.5210                 4.1176

                     31                     32                     33
                      A                      A                      A
 Frequencies --    781.5722               797.6009               804.1569
 Red. masses --      3.5449                 4.5411                 1.9387
 Frc consts  --      1.2758                 1.7021                 0.7387
 IR Inten    --     12.1224                 0.6448                 9.7059

                     34                     35                     36
                      A                      A                      A
 Frequencies --    830.9964               850.5606               863.6735
 Red. masses --      2.7812                 1.5976                 1.3773
 Frc consts  --      1.1316                 0.6810                 0.6053
 IR Inten    --     33.2260                22.7259                17.4206

                     37                     38                     39
                      A                      A                      A
 Frequencies --    911.7667               937.4872               951.0847
 Red. masses --      1.5879                 1.2959                 2.7730
 Frc consts  --      0.7777                 0.6711                 1.4779
 IR Inten    --     14.6134                 1.9275                 1.5269

                     40                     41                     42
                      A                      A                      A
 Frequencies --    967.5286               975.3740               977.4700
 Red. masses --      1.5153                 2.1656                 1.4760
 Frc consts  --      0.8357                 1.2139                 0.8309
 IR Inten    --      0.8912                 5.2508                 2.4458

                     43                     44                     45
                      A                      A                      A
 Frequencies --    989.0258              1045.9418              1122.0696
 Red. masses --      3.0757                 1.3095                 2.3460
 Frc consts  --      1.7726                 0.8441                 1.7402
 IR Inten    --     17.1036                 8.2121                27.9440

                     46                     47                     48
                      A                      A                      A
 Frequencies --   1155.3385              1173.0172              1188.1222
 Red. masses --      2.6714                 1.5050                 1.3564
 Frc consts  --      2.1009                 1.2201                 1.1281
 IR Inten    --    173.9031                40.4410                23.1323

                     49                     50                     51
                      A                      A                      A
 Frequencies --   1206.7200              1212.2602              1237.9374
 Red. masses --      2.1409                 1.4778                 1.4871
 Frc consts  --      1.8368                 1.2795                 1.3427
 IR Inten    --     58.7319                42.3686                61.0323

                     52                     53                     54
                      A                      A                      A
 Frequencies --   1247.3164              1262.6068              1267.0167
 Red. masses --      2.0928                 2.4680                 2.8682
 Frc consts  --      1.9184                 2.3181                 2.7129
 IR Inten    --     37.8879                 5.1829                36.7925

                     55                     56                     57
                      A                      A                      A
 Frequencies --   1302.2472              1317.1224              1371.1134
 Red. masses --      2.1508                 1.9849                 2.4021
 Frc consts  --      2.1490                 2.0288                 2.6607
 IR Inten    --     44.2459               112.6489                28.0664

                     58                     59                     60
                      A                      A                      A
 Frequencies --   1397.8842              1426.9969              1430.0782
 Red. masses --      2.0062                 1.6087                 3.9301
 Frc consts  --      2.3097                 1.9301                 4.7356
 IR Inten    --     48.5122                 1.2508                 3.1874

                     61                     62                     63
                      A                      A                      A
 Frequencies --   1436.7145              1451.0981              1499.6518
 Red. masses --      2.5987                 1.2399                 3.1176
 Frc consts  --      3.1604                 1.5382                 4.1309
 IR Inten    --      8.4490                 8.0125                 0.7166

                     64                     65                     66
                      A                      A                      A
 Frequencies --   1512.6082              1516.5401              1520.7759
 Red. masses --      1.4847                 1.0913                 1.4080
 Frc consts  --      2.0015                 1.4787                 1.9186
 IR Inten    --     14.2453                 0.5952                28.0161

                     67                     68                     69
                      A                      A                      A
 Frequencies --   1535.2408              1541.6106              1570.2284
 Red. masses --      1.0524                 1.0742                 3.4277
 Frc consts  --      1.4614                 1.5041                 4.9794
 IR Inten    --      6.6428                16.1431                80.3184

                     70                     71                     72
                      A                      A                      A
 Frequencies --   1633.3700              1677.2834              1699.1985
 Red. masses --      6.6142                 5.5733                 6.1663
 Frc consts  --     10.3968                 9.2379                10.4898
 IR Inten    --     20.0816                 7.9198               114.7888

                     73                     74                     75
                      A                      A                      A
 Frequencies --   1830.9094              3062.8215              3068.5581
 Red. masses --      9.9197                 1.0361                 1.0365
 Frc consts  --     19.5922                 5.7267                 5.7503
 IR Inten    --    260.4384                 9.9749                29.3440

                     76                     77                     78
                      A                      A                      A
 Frequencies --   3125.7628              3135.5264              3157.1201
 Red. masses --      1.1029                 1.1031                 1.1019
 Frc consts  --      6.3491                 6.3900                 6.4713
 IR Inten    --     11.6609                45.8593                13.9997

                     79                     80                     81
                      A                      A                      A
 Frequencies --   3161.0476              3166.9012              3180.5508
 Red. masses --      1.1008                 1.0877                 1.0881
 Frc consts  --      6.4804                 6.4272                 6.4851
 IR Inten    --     15.8280                16.3174                 7.4398

                     82                     83                     84
                      A                      A                      A
 Frequencies --   3193.5353              3206.1006              3206.8104
 Red. masses --      1.0937                 1.0934                 1.0907
 Frc consts  --      6.5721                 6.6219                 6.6087
 IR Inten    --     23.7654                11.5827                 4.1839

                     85                     86                     87
                      A                      A                      A
 Frequencies --   3213.8205              3686.7279              3755.8441
 Red. masses --      1.0891                 1.0640                 1.0660
 Frc consts  --      6.6277                 8.5209                 8.8600
 IR Inten    --      8.1209                56.1852                61.2919

 - Thermochemistry -
 -------------------
 Temperature   298.150 Kelvin.  Pressure   1.00000 Atm.
 Atom     1 has atomic number  6 and mass  12.00000

 Molecular mass:   230.09429 amu.
 Principal axes and moments of inertia in atomic units:
                           1         2         3
     Eigenvalues --  1596.492517412.884968056.39302
           X            0.99988  -0.01268   0.00840
           Y            0.01277   0.99987  -0.01019
           Z           -0.00827   0.01029   0.99991
 This molecule is an asymmetric top.
 Rotational symmetry number  1.
 Warning -- assumption of classical behavior for rotation
           may cause significant error
 Rotational temperatures (Kelvin)      0.05425     0.01168     0.01075
 Rotational constants (GHZ):           1.13044     0.24346     0.22401
 Zero-point vibrational energy     661160.5 (Joules/Mol)
                                  158.02116 (Kcal/Mol)
 Warning -- explicit consideration of  24 degrees of freedom as
           vibrations may cause significant error
 Vibrational temperatures:     46.51    60.06   103.73   176.69   200.37
          (Kelvin)            239.65   318.31   345.47   374.85   431.97
                              433.60   449.26   472.54   478.69   512.30
                              549.61   618.26   631.48   682.70   695.83
                              697.79   741.24   842.35   887.07   904.10
                              939.30   969.01   980.35  1080.71  1097.89
                             1124.51  1147.57  1157.00  1195.62  1223.77
                             1242.63  1311.83  1348.83  1368.40  1392.06
                             1403.35  1406.36  1422.99  1504.88  1614.41
                             1662.27  1687.71  1709.44  1736.20  1744.17
                             1781.12  1794.61  1816.61  1822.95  1873.64
                             1895.05  1972.73  2011.24  2053.13  2057.56
                             2067.11  2087.81  2157.66  2176.31  2181.96
                             2188.06  2208.87  2218.03  2259.21  2350.06
                             2413.24  2444.77  2634.27  4406.72  4414.97
                             4497.28  4511.32  4542.39  4548.04  4556.46
                             4576.10  4594.79  4612.86  4613.88  4623.97
                             5304.38  5403.82

 Zero-point correction=                           0.251823 (Hartree/Particle)
 Thermal correction to Energy=                    0.266879
 Thermal correction to Enthalpy=                  0.267823
 Thermal correction to Gibbs Free Energy=         0.209568
 Sum of electronic and zero-point Energies=           -767.429690
 Sum of electronic and thermal Energies=              -767.414634
 Sum of electronic and thermal Enthalpies=            -767.413689
 Sum of electronic and thermal Free Energies=         -767.471944

                     E (Thermal)             CV                S
                      KCal/Mol        Cal/Mol-Kelvin    Cal/Mol-Kelvin
 Total                  167.469             59.821            122.608
 Electronic               0.000              0.000              0.000
 Translational            0.889              2.981             42.202
 Rotational               0.889              2.981             32.922
 Vibrational            165.692             53.860             47.484
 Vibration     1          0.594              1.983              5.681
 Vibration     2          0.594              1.980              5.175
 Vibration     3          0.598              1.967              4.095
 Vibration     4          0.610              1.930              3.056
 Vibration     5          0.615              1.914              2.814
 Vibration     6          0.624              1.884              2.474
 Vibration     7          0.648              1.809              1.949
 Vibration     8          0.657              1.779              1.802
 Vibration     9          0.669              1.745              1.658
 Vibration    10          0.693              1.673              1.416
 Vibration    11          0.693              1.671              1.409
 Vibration    12          0.701              1.650              1.350
 Vibration    13          0.712              1.619              1.268
 Vibration    14          0.715              1.610              1.247
 Vibration    15          0.732              1.563              1.139
 Vibration    16          0.751              1.509              1.031
 Vibration    17          0.791              1.406              0.860
 Vibration    18          0.799              1.385              0.830
 Vibration    19          0.831              1.307              0.725
 Vibration    20          0.840              1.286              0.700
 Vibration    21          0.841              1.283              0.697
 Vibration    22          0.870              1.216              0.621
 Vibration    23          0.942              1.063              0.475
 Vibration    24          0.976              0.997              0.422

                           ! Non-Optimized Parameters !
 Normal termination of Gaussian 16 at Mon Dec 14 13:23:37 2020.

 ----------------------------------------------------------------------
 # B3LYP/6-311++G(d,p) empiricaldispersion=gd3bj scf=xqc pop=npa geom=c
 heck
 ----------------------------------------------------------------------

 ---------------------------------------
 CID_105487694_JID_7328_Energie_neutraal
 ---------------------------------------
 Structure from the checkpoint file:  "JID_7328.chk"
 Charge =  0 Multiplicity = 1

 SCF Done:  E(RB3LYP) =  -767.904220918     A.U. after   15 cycles
 Normal termination of Gaussian 16 at Mon Dec 14 13:28:56 2020.

 ----------------------------------------------------------------------
 # B3LYP/6-311++G(d,p) empiricaldispersion=gd3bj scf=xqc pop=npa geom=c
 heck
 ----------------------------------------------------------------------

 -------------------------------------
 CID_105487694_JID_7328_Energie_kation
 -------------------------------------
 Structure from the checkpoint file:  "JID_7328.chk"
 Charge =  1 Multiplicity = 2

 SCF Done:  E(UB3LYP) =  -767.623199719     A.U. after   23 cycles
 Normal termination of Gaussian 16 at Mon Dec 14 13:39:58 2020.
 Gaussian 16:  ES64L-G16RevA.03 25-Dec-2016

 ----------------------------------------------------------------------
 # B3LYP/6-311++G(d,p) empiricaldispersion=gd3bj scf=xqc pop=npa geom=c
 heck
 ----------------------------------------------------------------------

 ------------------------------------
 CID_105487694_JID_7328_Energie_anion
 ------------------------------------
 Structure from the checkpoint file:  "JID_7328.chk"
 Charge = -1 Multiplicity = 2

                         Standard orientation:
 ---------------------------------------------------------------------
 Center     Atomic      Atomic             Coordinates (Angstroms)
 Number     Number       Type             X           Y           Z
 ---------------------------------------------------------------------
      1          6           0        2.970017   -0.187132    1.813400
      2          6           0        2.425360   -0.543074    0.416760
      3          6           0        2.519452   -2.064360    0.203438
      4          6           0        0.996282    0.000098    0.273065
      5          6           0       -0.104094   -0.820289    0.160942
      6          6           0       -1.421833   -0.293025    0.071398
      7          6           0       -1.599945    1.126804    0.091732
      8          6           0       -0.452948    1.954739    0.199782
      9          6           0        0.804536    1.411878    0.290155
     10          6           0       -2.914420    1.647858    0.000283
     11          6           0       -4.002135    0.812865   -0.105360
     12          6           0       -3.820149   -0.593219   -0.124954
     13          6           0       -2.554430   -1.134429   -0.038412
     14          8           0       -4.883345   -1.447554   -0.229242
     15          6           0        3.279418    0.164715   -0.639270
     16          8           0        4.079742    1.049933   -0.426311
     17          8           0        3.027974   -0.289720   -1.891132
     18          1           0        2.346773   -0.662726    2.576900
     19          1           0        2.966628    0.891183    1.982157
     20          1           0        3.999767   -0.540935    1.926306
     21          1           0        1.971805   -2.589906    0.991866
     22          1           0        2.118424   -2.363903   -0.766964
     23          1           0        3.565200   -2.384396    0.255658
     24          1           0        0.008416   -1.898650    0.137365
     25          1           0       -0.584843    3.033984    0.209292
     26          1           0        1.670292    2.062972    0.365278
     27          1           0       -3.055980    2.725401    0.014862
     28          1           0       -5.007437    1.224351   -0.174615
     29          1           0       -2.435543   -2.213334   -0.055783
     30          1           0       -5.699872   -0.927889   -0.281999
     31          1           0        3.590742    0.242004   -2.484592
 ---------------------------------------------------------------------

 SCF Done:  E(UB3LYP) =  -767.901870203     A.U. after   33 cycles
 SCF Done:  E(UB3LYP) =  -767.902119240     a.u. after    6 cycles

 The electronic state is 2-A.
 Alpha  occ. eigenvalues --  -19.06607 -19.03205 -19.00661 -10.19159 -10.10241
 Alpha  occ. eigenvalues --  -10.09352 -10.06412 -10.05635 -10.05073 -10.04834
 Alpha  occ. eigenvalues --  -10.04432 -10.03797 -10.03713 -10.03569 -10.03346
 Alpha  occ. eigenvalues --  -10.02920 -10.02748  -1.00590  -0.94138  -0.91459
 Alpha  occ. eigenvalues --   -0.74510  -0.71980  -0.67585  -0.64014  -0.60499
 Alpha  occ. eigenvalues --   -0.59261  -0.58465  -0.55906  -0.50408  -0.49302
 Alpha  occ. eigenvalues --   -0.47099  -0.45465  -0.42699  -0.38825  -0.38674
 Alpha  occ. eigenvalues --   -0.38413  -0.37254  -0.35046  -0.33191  -0.32031
 Alpha  occ. eigenvalues --   -0.31531  -0.31183  -0.30677  -0.29578  -0.29198
 Alpha  occ. eigenvalues --   -0.28880  -0.28435  -0.27568  -0.26341  -0.25320
 Alpha  occ. eigenvalues --   -0.24743  -0.24190  -0.22868  -0.22407  -0.21622
 Alpha  occ. eigenvalues --   -0.19923  -0.18411  -0.17115  -0.15560  -0.10689
 Alpha  occ. eigenvalues --   -0.08437   0.04740
 Alpha virt. eigenvalues --    0.06615   0.07068   0.08052   0.09143   0.09608
 Alpha virt. eigenvalues --    0.09926   0.10290   0.10883   0.11596   0.11863
 Alpha virt. eigenvalues --    0.12216   0.12722   0.13177   0.13968   0.14505

  Beta  occ. eigenvalues --  -19.06573 -19.03176 -19.00581 -10.19056 -10.10254
  Beta  occ. eigenvalues --  -10.09371 -10.06400 -10.05609 -10.05113 -10.04705
  Beta  occ. eigenvalues --  -10.04476 -10.03827 -10.03559 -10.03364 -10.03126
  Beta  occ. eigenvalues --  -10.02729 -10.02576  -1.00475  -0.94075  -0.91336
  Beta  occ. eigenvalues --   -0.74298  -0.71821  -0.67342  -0.63644  -0.60332
  Beta  occ. eigenvalues --   -0.59060  -0.58268  -0.55758  -0.50079  -0.49151
  Beta  occ. eigenvalues --   -0.46881  -0.45278  -0.42559  -0.38679  -0.38582
  Beta  occ. eigenvalues --   -0.38222  -0.37135  -0.34880  -0.32979  -0.31905
  Beta  occ. eigenvalues --   -0.31457  -0.31063  -0.30565  -0.29484  -0.29146
  Beta  occ. eigenvalues --   -0.28598  -0.28316  -0.27462  -0.26228  -0.25218
  Beta  occ. eigenvalues --   -0.24598  -0.23855  -0.22744  -0.22101  -0.21476
  Beta  occ. eigenvalues --   -0.19838  -0.17859  -0.16734  -0.14644  -0.09921
  Beta  occ. eigenvalues --   -0.07381
  Beta virt. eigenvalues --    0.06951   0.07605   0.08022   0.09013   0.09222
  Beta virt. eigenvalues --    0.09618   0.09989   0.10906   0.11170   0.11694
  Beta virt. eigenvalues --    0.11904   0.12330   0.12736   0.13325   0.14039

 Mulliken charges and spin densities:
               1          2
     1  C   -0.422614  -0.214642
     2  C    0.337252  -0.051695
     3  C   -0.413355  -0.150323
     4  C    0.658395   0.200960
     5  C   -0.216836   0.148939
     6  C    0.491816  -0.130864
     7  C   -0.251812   0.116048
     8  C   -0.255634   0.148869
     9  C   -0.312198  -0.079783
    10  C   -0.456307   0.294837
    11  C   -0.121737   0.177286
    12  C    0.282653  -0.647310
    13  C   -0.296071  -0.075651
    14  O   -0.265819   0.031330
    15  C   -0.250177   0.077754
    16  O   -0.251090   0.025280
    17  O   -0.158989   0.003211
    18  H    0.104933   0.024751
    19  H    0.147854   0.020604
    20  H    0.077214   0.069286
    21  H    0.103399   0.025907
    22  H    0.151847   0.012442
    23  H    0.047359   0.113404
    24  H    0.069487  -0.013508
    25  H    0.073095   0.014582
    26  H    0.132889   0.019217
    27  H    0.102360  -0.028442
    28  H   -0.380409   0.479225
    29  H    0.108757   0.012736
    30  H   -0.072914   0.332944
    31  H    0.236655   0.042607
 Sum of Mulliken charges =  -1.00000   1.00000

 Dipole moment (field-independent basis, Debye):
    X=              5.3036    Y=             -0.6727    Z=              0.0576  Tot=              5.3464
 Quadrupole moment (field-independent basis, Debye-Ang):
   XX=           -180.6604   YY=           -117.7472   ZZ=           -113.4866
   XY=             -8.8387   XZ=             -6.9191   YZ=             -0.8974

 Summary of Natural Population Analysis:

                                       Natural Population
                Natural  -----------------------------------------------
    Atom  No    Charge         Core      Valence    Rydberg      Total
 -----------------------------------------------------------------------
      C    1   -0.27565      0.99964     2.26965    0.00636     3.27565
      C    2   -0.08432      0.99950     2.07328    0.01154     3.08432
      C    3   -0.28326      0.99965     2.27763    0.00598     3.28326
      C    4    0.00450      0.99948     1.98439    0.01162     2.99550
      C    5   -0.06828      0.99947     2.06128    0.00752     3.06828
      C    6   -0.02008      0.99950     2.01294    0.00764     3.02008
      C    7   -0.04650      0.99949     2.03917    0.00785     3.04650
      C    8   -0.04679      0.99954     2.03893    0.00833     3.04679
      C    9   -0.12367      0.99952     2.11568    0.00846     3.12367
      C   10   -0.04916      0.99954     2.04038    0.00924     3.04916
      C   11   -0.11719      0.99953     2.10717    0.01048     3.11719
      C   12    0.15282      0.99938     1.83367    0.01413     2.84718
      C   13   -0.09824      0.99949     2.09029    0.00847     3.09824
      O   14   -0.34711      0.99988     3.34032    0.00691     4.34711
      C   15    0.42995      0.99964     1.54228    0.02812     2.57005
      O   16   -0.31282      0.99987     3.30620    0.00676     4.31282
      O   17   -0.34442      0.99987     3.33798    0.00657     4.34442
      H   18    0.09861      0.00000     0.40053    0.00086     0.40139
      H   19    0.10750      0.00000     0.39158    0.00092     0.39250
      H   20    0.09609      0.00000     0.40275    0.00116     0.40391
      H   21    0.10033      0.00000     0.39855    0.00112     0.39967
      H   22    0.10902      0.00000     0.38981    0.00117     0.39098
      H   23    0.09736      0.00000     0.40177    0.00087     0.40264
      H   24    0.09158      0.00000     0.40660    0.00182     0.40842
      H   25    0.08893      0.00000     0.40969    0.00138     0.41107
      H   26    0.09821      0.00000     0.40020    0.00159     0.40179
      H   27    0.08923      0.00000     0.40933    0.00144     0.41077
      H   28    0.09182      0.00000     0.40690    0.00128     0.40818
      H   29    0.09574      0.00000     0.40293    0.00133     0.40426
      H   30    0.23233      0.00000     0.26355    0.00411     0.26767
      H   31    0.23346      0.00000     0.26206    0.00448     0.26654
 =======================================================================
   * Total *   -0.00000     16.99299    43.81748    0.18953    61.00000

 Normal termination of Gaussian 16 at Mon Dec 14 15:17:01 2020.
