 Gaussian 16, Revision A.03,

 -----------------------------------------------------------
 # opt freq B3LYP/6-31G(d) empiricaldispersion=gd3bj scf=xqc
 -----------------------------------------------------------

 ------------------------------
 CID_79418638_JID_8485_neutraal
 ------------------------------
 Symbolic Z-matrix:
 Charge =  0 Multiplicity = 1

 SCF Done:  E(RB3LYP) =  -846.483111493     A.U. after   15 cycles
 SCF Done:  E(RB3LYP) =  -846.486362857     A.U. after   13 cycles
 SCF Done:  E(RB3LYP) =  -846.486547120     A.U. after   13 cycles
 SCF Done:  E(RB3LYP) =  -846.486985648     A.U. after   13 cycles
 SCF Done:  E(RB3LYP) =  -846.487678533     A.U. after   12 cycles
 SCF Done:  E(RB3LYP) =  -846.487710525     A.U. after   11 cycles
 SCF Done:  E(RB3LYP) =  -846.487875021     A.U. after   11 cycles
 SCF Done:  E(RB3LYP) =  -846.487895884     A.U. after   11 cycles
 SCF Done:  E(RB3LYP) =  -846.487973527     A.U. after   11 cycles
 SCF Done:  E(RB3LYP) =  -846.488082845     A.U. after   12 cycles
 SCF Done:  E(RB3LYP) =  -846.490014731     A.U. after   10 cycles
 SCF Done:  E(RB3LYP) =  -846.490017467     A.U. after    9 cycles
 SCF Done:  E(RB3LYP) =  -846.490019066     A.U. after    8 cycles
 SCF Done:  E(RB3LYP) =  -846.490019479     A.U. after    7 cycles
 SCF Done:  E(RB3LYP) =  -846.490019550     A.U. after    7 cycles
 Optimization completed.
    -- Stationary point found.
 Normal termination of Gaussian 16 at Fri Dec 11 21:15:06 2020.

 --------------------------------------------------------------------
 #N Geom=AllCheck Guess=TCheck SCRF=Check GenChk RB3LYP/6-31G(d) Freq
 --------------------------------------------------------------------

 Structure from the checkpoint file:  "JID_8485.chk"
 ------------------------------
 CID_79418638_JID_8485_neutraal
 ------------------------------
 Charge =  0 Multiplicity = 1

 SCF Done:  E(RB3LYP) =  -846.490019550     A.U. after    1 cycles

  Exact polarizability: 196.824  -4.748 154.971 -22.263   0.368 117.953
 Approx polarizability: 247.695  -7.253 253.301 -46.681   2.957 184.138

                      1                      2                      3
                      A                      A                      A
 Frequencies --     29.2789                31.1487                45.3636
 Red. masses --      4.2144                 4.3247                 3.7969
 Frc consts  --      0.0021                 0.0025                 0.0046
 IR Inten    --      0.1561                 0.3664                 0.6330

                      4                      5                      6
                      A                      A                      A
 Frequencies --     62.2495                68.4780                82.9699
 Red. masses --      5.7352                 4.3868                 4.4728
 Frc consts  --      0.0131                 0.0121                 0.0181
 IR Inten    --      0.8074                 0.4290                 2.9037

                      7                      8                      9
                      A                      A                      A
 Frequencies --     91.5113               103.1155               158.3501
 Red. masses --      2.9610                 3.0394                 4.4987
 Frc consts  --      0.0146                 0.0190                 0.0665
 IR Inten    --      3.2865                 2.2640                 1.3031

                     10                     11                     12
                      A                      A                      A
 Frequencies --    171.1585               191.0149               196.6567
 Red. masses --      3.5517                 3.0843                 1.9056
 Frc consts  --      0.0613                 0.0663                 0.0434
 IR Inten    --      0.1576                 2.0491                 0.4395

                     13                     14                     15
                      A                      A                      A
 Frequencies --    213.4401               241.3712               253.8331
 Red. masses --      1.4761                 1.4995                 1.3097
 Frc consts  --      0.0396                 0.0515                 0.0497
 IR Inten    --      0.3311                 2.2395                 0.0834

                     16                     17                     18
                      A                      A                      A
 Frequencies --    273.3917               294.5754               326.4428
 Red. masses --      2.8605                 3.2561                 3.5278
 Frc consts  --      0.1260                 0.1665                 0.2215
 IR Inten    --      1.2215                 2.0605                 1.0481

                     19                     20                     21
                      A                      A                      A
 Frequencies --    354.8677               394.3758               401.7971
 Red. masses --      2.9449                 2.6660                 2.6040
 Frc consts  --      0.2185                 0.2443                 0.2477
 IR Inten    --      3.0004                 3.0134                 1.2986

                     22                     23                     24
                      A                      A                      A
 Frequencies --    415.4670               428.4079               471.1132
 Red. masses --      3.7833                 3.1715                 3.2242
 Frc consts  --      0.3848                 0.3429                 0.4216
 IR Inten    --      0.7414                 0.0508                 2.8351

                     25                     26                     27
                      A                      A                      A
 Frequencies --    513.3554               529.2018               567.6723
 Red. masses --      3.6120                 3.3685                 2.5260
 Frc consts  --      0.5608                 0.5558                 0.4796
 IR Inten    --      5.0380                10.9096                11.1280

                     28                     29                     30
                      A                      A                      A
 Frequencies --    601.4278               613.1755               656.7962
 Red. masses --      3.4633                 1.8163                 6.5255
 Frc consts  --      0.7381                 0.4024                 1.6585
 IR Inten    --     36.5213                40.1280                 0.3276

                     31                     32                     33
                      A                      A                      A
 Frequencies --    665.9987               717.7828               743.5060
 Red. masses --      2.1278                 3.9646                 4.0696
 Frc consts  --      0.5561                 1.2035                 1.3255
 IR Inten    --     46.8855                 7.7364                28.3501

                     34                     35                     36
                      A                      A                      A
 Frequencies --    775.7061               822.4959               834.9601
 Red. masses --      3.5363                 1.4326                 3.6322
 Frc consts  --      1.2537                 0.5710                 1.4919
 IR Inten    --     21.8612                15.2394                 0.8710

                     37                     38                     39
                      A                      A                      A
 Frequencies --    848.1050               851.5091               884.6394
 Red. masses --      1.7230                 2.5692                 2.4963
 Frc consts  --      0.7302                 1.0975                 1.1510
 IR Inten    --     22.2524                 3.5762                14.7935

                     40                     41                     42
                      A                      A                      A
 Frequencies --    931.2005               939.8563               957.0040
 Red. masses --      2.1302                 1.4243                 2.0658
 Frc consts  --      1.0883                 0.7413                 1.1147
 IR Inten    --      4.5527                 4.5912                15.9832

                     43                     44                     45
                      A                      A                      A
 Frequencies --    971.2763               985.1329              1004.2822
 Red. masses --      1.3055                 1.5750                 2.5730
 Frc consts  --      0.7256                 0.9006                 1.5290
 IR Inten    --      0.4224                 1.6925                10.5882

                     46                     47                     48
                      A                      A                      A
 Frequencies --   1021.2812              1037.1479              1085.0528
 Red. masses --      2.1356                 2.6979                 6.0673
 Frc consts  --      1.3124                 1.7098                 4.2087
 IR Inten    --      4.2286                 0.5311                55.3262

                     49                     50                     51
                      A                      A                      A
 Frequencies --   1096.7115              1127.4459              1148.9605
 Red. masses --      1.9819                 2.1378                 1.4337
 Frc consts  --      1.4045                 1.6011                 1.1151
 IR Inten    --     21.4020                61.4577                 8.7122

                     52                     53                     54
                      A                      A                      A
 Frequencies --   1165.3930              1170.6230              1187.0517
 Red. masses --      1.5947                 3.5980                 1.2718
 Frc consts  --      1.2761                 2.9050                 1.0559
 IR Inten    --     18.1554               162.3996                 0.7660

                     55                     56                     57
                      A                      A                      A
 Frequencies --   1197.5853              1207.0300              1216.4400
 Red. masses --      1.3341                 1.9918                 1.2341
 Frc consts  --      1.1273                 1.7097                 1.0760
 IR Inten    --      8.7137                66.6810                38.0289

                     58                     59                     60
                      A                      A                      A
 Frequencies --   1220.0095              1226.4887              1237.2844
 Red. masses --      1.3789                 1.8674                 2.1701
 Frc consts  --      1.2092                 1.6551                 1.9573
 IR Inten    --     18.2816                39.3135                 5.4049

                     61                     62                     63
                      A                      A                      A
 Frequencies --   1244.8870              1264.6770              1289.6293
 Red. masses --      1.3724                 1.3604                 1.1586
 Frc consts  --      1.2531                 1.2819                 1.1353
 IR Inten    --     36.2128                 2.2251                 8.1571

                     64                     65                     66
                      A                      A                      A
 Frequencies --   1302.5743              1324.0343              1353.0545
 Red. masses --      4.0105                 1.4071                 1.5401
 Frc consts  --      4.0092                 1.4534                 1.6612
 IR Inten    --    252.7318                15.7579                12.9574

                     67                     68                     69
                      A                      A                      A
 Frequencies --   1368.2131              1371.7503              1377.7172
 Red. masses --      1.5501                 2.1658                 2.3287
 Frc consts  --      1.7097                 2.4011                 2.6043
 IR Inten    --      5.7873                18.1314                15.3218

                     70                     71                     72
                      A                      A                      A
 Frequencies --   1393.3261              1415.6074              1425.5734
 Red. masses --      1.7732                 1.5183                 1.3100
 Frc consts  --      2.0282                 1.7926                 1.5685
 IR Inten    --     30.3116                 2.3502                23.1408

                     73                     74                     75
                      A                      A                      A
 Frequencies --   1447.1467              1473.9317              1500.5893
 Red. masses --      1.2561                 2.7836                 1.1972
 Frc consts  --      1.5499                 3.5629                 1.5883
 IR Inten    --     18.6768                 0.4218                15.6640

                     76                     77                     78
                      A                      A                      A
 Frequencies --   1504.7136              1514.3339              1518.0145
 Red. masses --      1.1633                 1.0479                 1.0799
 Frc consts  --      1.5518                 1.4159                 1.4662
 IR Inten    --      4.7104                 4.7495                 9.5962

                     79                     80                     81
                      A                      A                      A
 Frequencies --   1520.7653              1531.6266              1534.2245
 Red. masses --      1.0478                 1.0608                 1.0571
 Frc consts  --      1.4278                 1.4663                 1.4661
 IR Inten    --      5.1017                 1.6980                18.9749

                     82                     83                     84
                      A                      A                      A
 Frequencies --   1536.3166              1540.8671              1565.2645
 Red. masses --      1.0635                 1.0649                 1.0839
 Frc consts  --      1.4789                 1.4897                 1.5647
 IR Inten    --     41.7179                 2.9752                 2.9370

                     85                     86                     87
                      A                      A                      A
 Frequencies --   1570.7871              1637.4405              1679.9739
 Red. masses --      2.4441                 6.3888                 5.7993
 Frc consts  --      3.5531                10.0926                 9.6433
 IR Inten    --    107.7567                13.0062                55.7128

                     88                     89                     90
                      A                      A                      A
 Frequencies --   1833.5760              2975.8941              2990.1207
 Red. masses --      9.4329                 1.0620                 1.0436
 Frc consts  --     18.6851                 5.5415                 5.4973
 IR Inten    --    244.1046                37.1678               101.2491

                     91                     92                     93
                      A                      A                      A
 Frequencies --   3023.5428              3030.5801              3045.5840
 Red. masses --      1.0349                 1.1044                 1.0927
 Frc consts  --      5.5744                 5.9762                 5.9718
 IR Inten    --     56.3257                71.3795                30.2865

                     94                     95                     96
                      A                      A                      A
 Frequencies --   3060.8223              3071.5607              3075.8779
 Red. masses --      1.0380                 1.0806                 1.0647
 Frc consts  --      5.7297                 6.0066                 5.9348
 IR Inten    --     23.3232                17.2824                 9.9014

                     97                     98                     99
                      A                      A                      A
 Frequencies --   3081.1184              3099.8309              3116.9651
 Red. masses --      1.1065                 1.0833                 1.1035
 Frc consts  --      6.1890                 6.1333                 6.3167
 IR Inten    --     45.0148                13.6046                26.6517

                    100                    101                    102
                      A                      A                      A
 Frequencies --   3124.7900              3136.1974              3143.6256
 Red. masses --      1.0988                 1.0965                 1.1013
 Frc consts  --      6.3214                 6.3543                 6.4126
 IR Inten    --     22.8623                34.7963                36.6437

                    103                    104                    105
                      A                      A                      A
 Frequencies --   3157.8854              3187.6369              3189.7383
 Red. masses --      1.0995                 1.0887                 1.0884
 Frc consts  --      6.4600                 6.5175                 6.5243
 IR Inten    --     29.3807                 8.3267                16.4135

                    106                    107                    108
                      A                      A                      A
 Frequencies --   3214.5135              3227.0888              3680.5655
 Red. masses --      1.0934                 1.0913                 1.0639
 Frc consts  --      6.6565                 6.6962                 8.4917
 IR Inten    --      7.8122                12.4851                44.1912

 - Thermochemistry -
 -------------------
 Temperature   298.150 Kelvin.  Pressure   1.00000 Atm.
 Atom     1 has atomic number  6 and mass  12.00000

 Molecular mass:   252.13616 amu.
 Principal axes and moments of inertia in atomic units:
                           1         2         3
     Eigenvalues --  2173.101068882.068959620.51460
           X            1.00000   0.00146   0.00050
           Y           -0.00146   1.00000   0.00040
           Z           -0.00050  -0.00040   1.00000
 This molecule is an asymmetric top.
 Rotational symmetry number  1.
 Warning -- assumption of classical behavior for rotation
           may cause significant error
 Rotational temperatures (Kelvin)      0.03986     0.00975     0.00900
 Rotational constants (GHZ):           0.83049     0.20319     0.18759
 Zero-point vibrational energy     853742.0 (Joules/Mol)
                                  204.04924 (Kcal/Mol)
 Warning -- explicit consideration of  29 degrees of freedom as
           vibrations may cause significant error
 Vibrational temperatures:     42.13    44.82    65.27    89.56    98.52
          (Kelvin)            119.38   131.66   148.36   227.83   246.26
                              274.83   282.95   307.09   347.28   365.21
                              393.35   423.83   469.68   510.58   567.42
                              578.10   597.76   616.38   677.83   738.60
                              761.40   816.75   865.32   882.22   944.98
                              958.22  1032.73  1069.74  1116.07  1183.39
                             1201.32  1220.23  1225.13  1272.80  1339.79
                             1352.24  1376.92  1397.45  1417.39  1444.94
                             1469.40  1492.22  1561.15  1577.92  1622.14
                             1653.10  1676.74  1684.27  1707.90  1723.06
                             1736.65  1750.19  1755.32  1764.64  1780.18
                             1791.11  1819.59  1855.49  1874.11  1904.99
                             1946.74  1968.55  1973.64  1982.23  2004.69
                             2036.74  2051.08  2082.12  2120.66  2159.01
                             2164.95  2178.79  2184.08  2188.04  2203.67
                             2207.41  2210.42  2216.96  2252.07  2260.01
                             2355.91  2417.11  2638.11  4281.65  4302.12
                             4350.20  4360.33  4381.92  4403.84  4419.29
                             4425.50  4433.04  4459.97  4484.62  4495.88
                             4512.29  4522.98  4543.49  4586.30  4589.32
                             4624.97  4643.06  5295.51

 Zero-point correction=                           0.325173 (Hartree/Particle)
 Thermal correction to Energy=                    0.343955
 Thermal correction to Enthalpy=                  0.344899
 Thermal correction to Gibbs Free Energy=         0.276624
 Sum of electronic and zero-point Energies=           -846.164846
 Sum of electronic and thermal Energies=              -846.146064
 Sum of electronic and thermal Enthalpies=            -846.145120
 Sum of electronic and thermal Free Energies=         -846.213396

                     E (Thermal)             CV                S
                      KCal/Mol        Cal/Mol-Kelvin    Cal/Mol-Kelvin
 Total                  215.835             69.385            143.698
 Electronic               0.000              0.000              0.000
 Translational            0.889              2.981             42.475
 Rotational               0.889              2.981             33.584
 Vibrational            214.058             63.423             67.639
 Vibration     1          0.593              1.984              5.878
 Vibration     2          0.594              1.983              5.755
 Vibration     3          0.595              1.979              5.010
 Vibration     4          0.597              1.972              4.385
 Vibration     5          0.598              1.969              4.197
 Vibration     6          0.600              1.961              3.819
 Vibration     7          0.602              1.955              3.627
 Vibration     8          0.605              1.947              3.395
 Vibration     9          0.621              1.893              2.569
 Vibration    10          0.626              1.878              2.423
 Vibration    11          0.634              1.852              2.218
 Vibration    12          0.636              1.845              2.164
 Vibration    13          0.644              1.820              2.014
 Vibration    14          0.658              1.777              1.793
 Vibration    15          0.665              1.756              1.704
 Vibration    16          0.676              1.722              1.575
 Vibration    17          0.689              1.684              1.448
 Vibration    18          0.710              1.623              1.278
 Vibration    19          0.731              1.565              1.145
 Vibration    20          0.761              1.482              0.984
 Vibration    21          0.767              1.466              0.956
 Vibration    22          0.779              1.437              0.908
 Vibration    23          0.790              1.408              0.864
 Vibration    24          0.828              1.314              0.734
 Vibration    25          0.868              1.220              0.626
 Vibration    26          0.884              1.185              0.589
 Vibration    27          0.924              1.101              0.509
 Vibration    28          0.960              1.029              0.447
 Vibration    29          0.972              1.004              0.428

                           ! Non-Optimized Parameters !
 Normal termination of Gaussian 16 at Fri Dec 11 21:32:35 2020.

 ----------------------------------------------------------------------
 # B3LYP/6-311++G(d,p) empiricaldispersion=gd3bj scf=xqc pop=npa geom=c
 heck
 ----------------------------------------------------------------------

 --------------------------------------
 CID_79418638_JID_8485_Energie_neutraal
 --------------------------------------
 Structure from the checkpoint file:  "JID_8485.chk"
 Charge =  0 Multiplicity = 1

 SCF Done:  E(RB3LYP) =  -846.738300322     A.U. after   15 cycles
 Normal termination of Gaussian 16 at Fri Dec 11 21:40:49 2020.

 ----------------------------------------------------------------------
 # B3LYP/6-311++G(d,p) empiricaldispersion=gd3bj scf=xqc pop=npa geom=c
 heck
 ----------------------------------------------------------------------

 ------------------------------------
 CID_79418638_JID_8485_Energie_kation
 ------------------------------------
 Structure from the checkpoint file:  "JID_8485.chk"
 Charge =  1 Multiplicity = 2

 SCF Done:  E(UB3LYP) =  -846.448896751     A.U. after   26 cycles
 Normal termination of Gaussian 16 at Fri Dec 11 22:00:38 2020.
 Gaussian 16:  ES64L-G16RevA.03 25-Dec-2016

 ----------------------------------------------------------------------
 # B3LYP/6-311++G(d,p) empiricaldispersion=gd3bj scf=xqc pop=npa geom=c
 heck
 ----------------------------------------------------------------------

 -----------------------------------
 CID_79418638_JID_8485_Energie_anion
 -----------------------------------
 Structure from the checkpoint file:  "JID_8485.chk"
 Charge = -1 Multiplicity = 2

                         Standard orientation:
 ---------------------------------------------------------------------
 Center     Atomic      Atomic             Coordinates (Angstroms)
 Number     Number       Type             X           Y           Z
 ---------------------------------------------------------------------
      1          6           0       -1.959889   -2.164798    0.905292
      2          6           0       -1.766377   -0.966696   -0.036346
      3          6           0       -2.978364   -0.855628   -0.966708
      4          8           0       -4.128996   -0.579996   -0.184421
      5          6           0       -5.293230   -0.434836   -0.964522
      6          6           0       -1.548386    0.348558    0.742461
      7          6           0       -0.353101    0.325370    1.746307
      8          6           0        1.007582    0.210623    1.099750
      9          6           0        1.704772    1.363102    0.701029
     10          6           0        2.938544    1.281128    0.071546
     11          6           0        3.518349    0.029809   -0.178044
     12          6           0        2.847100   -1.130569    0.217884
     13          6           0        1.605287   -1.025931    0.850437
     14          8           0        4.733531    0.050805   -0.801416
     15          6           0        5.361534   -1.191234   -1.066298
     16          6           0       -1.351902    1.579290   -0.125602
     17          8           0       -1.539860    2.716965    0.250452
     18          8           0       -0.857017    1.309950   -1.360201
     19          1           0       -2.805154   -1.994023    1.579158
     20          1           0       -1.072823   -2.368792    1.510187
     21          1           0       -2.175370   -3.068400    0.323991
     22          1           0       -0.891358   -1.146908   -0.671729
     23          1           0       -2.830082   -0.063781   -1.714465
     24          1           0       -3.111748   -1.804976   -1.513809
     25          1           0       -5.197267    0.390737   -1.688185
     26          1           0       -5.526325   -1.356290   -1.522697
     27          1           0       -6.117447   -0.214727   -0.281164
     28          1           0       -2.450327    0.551234    1.327917
     29          1           0       -0.406780    1.253297    2.324821
     30          1           0       -0.512559   -0.495435    2.451109
     31          1           0        1.266758    2.340040    0.889222
     32          1           0        3.478688    2.172361   -0.231641
     33          1           0        3.275803   -2.111011    0.047248
     34          1           0        1.101504   -1.937757    1.159417
     35          1           0        5.566719   -1.744966   -0.140381
     36          1           0        4.751719   -1.818100   -1.730593
     37          1           0        6.304718   -0.952327   -1.560639
     38          1           0       -0.701446    2.178905   -1.776199
 ---------------------------------------------------------------------

 SCF Done:  E(UB3LYP) =  -846.726750306     A.U. after   33 cycles
 SCF Done:  E(UB3LYP) =  -846.726750305     a.u. after    1 cycles

 The electronic state is 2-A.
 Alpha  occ. eigenvalues --  -19.08594 -19.06505 -19.04003 -19.03017 -10.22046
 Alpha  occ. eigenvalues --  -10.14555 -10.13038 -10.12613 -10.12506 -10.10460
 Alpha  occ. eigenvalues --  -10.09562 -10.09268 -10.08925 -10.08725 -10.08674
 Alpha  occ. eigenvalues --  -10.08367 -10.08348 -10.07180  -1.02647  -0.98098
 Alpha  occ. eigenvalues --   -0.95397  -0.93544  -0.77387  -0.74218  -0.69159
 Alpha  occ. eigenvalues --   -0.66550  -0.65333  -0.61947  -0.61641  -0.57879
 Alpha  occ. eigenvalues --   -0.55978  -0.53033  -0.52112  -0.49684  -0.47817
 Alpha  occ. eigenvalues --   -0.44707  -0.42335  -0.41207  -0.40337  -0.39634
 Alpha  occ. eigenvalues --   -0.39337  -0.39096  -0.37999  -0.37314  -0.36379
 Alpha  occ. eigenvalues --   -0.35749  -0.34178  -0.33887  -0.33136  -0.32845
 Alpha  occ. eigenvalues --   -0.31794  -0.31521  -0.30036  -0.29709  -0.28737
 Alpha  occ. eigenvalues --   -0.27393  -0.27162  -0.26336  -0.25899  -0.24846
 Alpha  occ. eigenvalues --   -0.24232  -0.23893  -0.22991  -0.22476  -0.19588
 Alpha  occ. eigenvalues --   -0.17648  -0.16927  -0.13379   0.03867
 Alpha virt. eigenvalues --    0.05267   0.06278   0.06556   0.06890   0.07313
 Alpha virt. eigenvalues --    0.07812   0.08116   0.08617   0.08907   0.09304
 Alpha virt. eigenvalues --    0.09679   0.09796   0.10372   0.10632   0.11007

  Beta  occ. eigenvalues --  -19.08573 -19.06496 -19.03995 -19.03009 -10.22041
  Beta  occ. eigenvalues --  -10.14556 -10.12989 -10.12581 -10.12489 -10.10457
  Beta  occ. eigenvalues --  -10.09557 -10.09263 -10.08926 -10.08721 -10.08660
  Beta  occ. eigenvalues --  -10.08348 -10.08341 -10.07162  -1.02617  -0.98078
  Beta  occ. eigenvalues --   -0.95386  -0.93519  -0.77373  -0.74203  -0.69140
  Beta  occ. eigenvalues --   -0.66520  -0.65307  -0.61908  -0.61592  -0.57835
  Beta  occ. eigenvalues --   -0.55922  -0.52998  -0.52070  -0.49654  -0.47788
  Beta  occ. eigenvalues --   -0.44668  -0.42306  -0.41181  -0.40312  -0.39610
  Beta  occ. eigenvalues --   -0.39307  -0.39073  -0.37968  -0.37283  -0.36350
  Beta  occ. eigenvalues --   -0.35725  -0.34155  -0.33859  -0.33108  -0.32818
  Beta  occ. eigenvalues --   -0.31770  -0.31502  -0.30012  -0.29688  -0.28710
  Beta  occ. eigenvalues --   -0.27368  -0.27137  -0.26316  -0.25875  -0.24825
  Beta  occ. eigenvalues --   -0.24202  -0.23867  -0.22962  -0.22450  -0.19563
  Beta  occ. eigenvalues --   -0.17629  -0.16894  -0.13359
  Beta virt. eigenvalues --    0.05819   0.06363   0.06539   0.07031   0.07173
  Beta virt. eigenvalues --    0.07589   0.07906   0.08603   0.08889   0.09066
  Beta virt. eigenvalues --    0.09769   0.09823   0.10234   0.10664   0.10761

 Mulliken charges and spin densities:
               1          2
     1  C    0.126593  -0.782184
     2  C   -0.387141   0.280597
     3  C   -0.612035   0.064658
     4  O   -0.120561   0.038095
     5  C    0.548880  -0.773368
     6  C    0.857731  -0.102127
     7  C    0.275487  -0.867494
     8  C    1.202695  -0.294213
     9  C   -0.512828   0.342367
    10  C   -0.573667   0.225984
    11  C   -0.597531  -0.151896
    12  C    0.248642  -0.178368
    13  C   -0.024094  -0.163876
    14  O   -0.212839   0.060636
    15  C    0.845101  -1.193675
    16  C   -0.327020  -0.485876
    17  O   -0.240558   0.031432
    18  O   -0.129677   0.054443
    19  H    0.057582   0.116236
    20  H    0.085934   0.012504
    21  H   -0.121349   0.275260
    22  H    0.157809   0.091492
    23  H    0.051970   0.102040
    24  H   -0.135777   0.272766
    25  H   -0.141420   0.270925
    26  H   -0.231952   0.361842
    27  H   -0.137050   0.272368
    28  H    0.289798  -0.001002
    29  H    0.198068   0.010574
    30  H    0.106556   0.063220
    31  H    0.112580   0.075821
    32  H    0.064322   0.115800
    33  H   -0.393842   0.621815
    34  H   -0.384248   0.508320
    35  H   -0.216300   0.369924
    36  H   -0.285615   0.448023
    37  H   -0.458390   0.632031
    38  H    0.014148   0.274906
 Sum of Mulliken charges =  -1.00000   1.00000

 Dipole moment (field-independent basis, Debye):
    X=             -2.3585    Y=              3.5815    Z=              2.9034  Tot=              5.1788
 Quadrupole moment (field-independent basis, Debye-Ang):
   XX=           -226.8238   YY=           -158.5840   ZZ=           -142.0188
   XY=             13.0886   XZ=              1.8616   YZ=             -4.0635

 Summary of Natural Population Analysis:

                                       Natural Population
                Natural  -----------------------------------------------
    Atom  No    Charge         Core      Valence    Rydberg      Total
 -----------------------------------------------------------------------
      C    1   -0.28646      0.99965     2.28011    0.00670     3.28646
      C    2   -0.12748      0.99958     2.11576    0.01214     3.12748
      C    3   -0.00612      0.99956     1.99349    0.01307     3.00612
      O    4   -0.30265      0.99988     3.29400    0.00877     4.30265
      C    5   -0.09366      0.99962     2.08605    0.00799     3.09366
      C    6   -0.14921      0.99951     2.13789    0.01181     3.14921
      C    7   -0.18902      0.99958     2.18082    0.00862     3.18902
      C    8   -0.03794      0.99950     2.02792    0.01052     3.03794
      C    9   -0.09439      0.99952     2.08687    0.00800     3.09439
      C   10   -0.11646      0.99952     2.10806    0.00887     3.11646
      C   11    0.15967      0.99938     1.82707    0.01388     2.84033
      C   12   -0.13916      0.99952     2.13061    0.00903     3.13916
      C   13   -0.08764      0.99952     2.07860    0.00952     3.08764
      O   14   -0.27333      0.99986     3.26363    0.00985     4.27333
      C   15   -0.10107      0.99960     2.09241    0.00906     3.10107
      C   16    0.41449      0.99967     1.55808    0.02776     2.58551
      O   17   -0.31135      0.99987     3.30551    0.00598     4.31135
      O   18   -0.34290      0.99987     3.33634    0.00669     4.34290
      H   19    0.10255      0.00000     0.39622    0.00122     0.39745
      H   20    0.09729      0.00000     0.40166    0.00104     0.40271
      H   21    0.10273      0.00000     0.39644    0.00084     0.39727
      H   22    0.11023      0.00000     0.38736    0.00241     0.38977
      H   23    0.08736      0.00000     0.41066    0.00197     0.41264
      H   24    0.08145      0.00000     0.41721    0.00134     0.41855
      H   25    0.07842      0.00000     0.41976    0.00182     0.42158
      H   26    0.07811      0.00000     0.41987    0.00202     0.42189
      H   27    0.08898      0.00000     0.40985    0.00117     0.41102
      H   28    0.11921      0.00000     0.37905    0.00173     0.38079
      H   29    0.10719      0.00000     0.39179    0.00102     0.39281
      H   30    0.10670      0.00000     0.39233    0.00097     0.39330
      H   31    0.10261      0.00000     0.39616    0.00123     0.39739
      H   32    0.10443      0.00000     0.39423    0.00134     0.39557
      H   33    0.10913      0.00000     0.38910    0.00177     0.39087
      H   34    0.10053      0.00000     0.39773    0.00175     0.39947
      H   35    0.08538      0.00000     0.41275    0.00187     0.41462
      H   36    0.08729      0.00000     0.41069    0.00202     0.41271
      H   37    0.09421      0.00000     0.40444    0.00135     0.40579
      H   38    0.24087      0.00000     0.25511    0.00402     0.25913
 =======================================================================
   * Total *    0.00000     17.99322    49.78565    0.22113    68.00000

 Normal termination of Gaussian 16 at Fri Dec 11 22:26:56 2020.
