 Gaussian 16, Revision A.03,

 -----------------------------------------------------------
 # opt freq B3LYP/6-31G(d) empiricaldispersion=gd3bj scf=xqc
 -----------------------------------------------------------

 -------------------------------
 CID_106309314_JID_9135_neutraal
 -------------------------------
 Symbolic Z-matrix:
 Charge =  0 Multiplicity = 1

 SCF Done:  E(RB3LYP) =  -846.021908558     A.U. after   13 cycles
 SCF Done:  E(RB3LYP) =  -846.025748144     A.U. after   12 cycles
 SCF Done:  E(RB3LYP) =  -846.021157259     A.U. after   13 cycles
 SCF Done:  E(RB3LYP) =  -846.027642387     A.U. after   12 cycles
 SCF Done:  E(RB3LYP) =  -846.027080890     A.U. after   12 cycles
 SCF Done:  E(RB3LYP) =  -846.028222282     A.U. after   12 cycles
 SCF Done:  E(RB3LYP) =  -846.029626528     A.U. after   11 cycles
 SCF Done:  E(RB3LYP) =  -846.029606660     A.U. after   11 cycles
 SCF Done:  E(RB3LYP) =  -846.030025963     A.U. after   11 cycles
 SCF Done:  E(RB3LYP) =  -846.030092604     A.U. after   12 cycles
 SCF Done:  E(RB3LYP) =  -846.030249531     A.U. after    8 cycles
 SCF Done:  E(RB3LYP) =  -846.030249966     A.U. after    7 cycles
 SCF Done:  E(RB3LYP) =  -846.030250099     A.U. after    7 cycles
 SCF Done:  E(RB3LYP) =  -846.030250132     A.U. after    6 cycles
 SCF Done:  E(RB3LYP) =  -846.030250156     A.U. after    6 cycles
 Optimization completed.
    -- Stationary point found.
 Normal termination of Gaussian 16 at Sun Dec 13 16:27:00 2020.

 --------------------------------------------------------------------
 #N Geom=AllCheck Guess=TCheck SCRF=Check GenChk RB3LYP/6-31G(d) Freq
 --------------------------------------------------------------------

 Structure from the checkpoint file:  "JID_9135.chk"
 -------------------------------
 CID_106309314_JID_9135_neutraal
 -------------------------------
 Charge =  0 Multiplicity = 1

 SCF Done:  E(RB3LYP) =  -846.030250156     A.U. after    1 cycles

  Exact polarizability: 198.535  -2.998 185.212  10.911   2.574 133.390
 Approx polarizability: 271.589  -5.125 279.610  24.317  10.076 202.523

                      1                      2                      3
                      A                      A                      A
 Frequencies --     16.9041                43.9312                60.5229
 Red. masses --      4.0478                 4.6027                 4.9369
 Frc consts  --      0.0007                 0.0052                 0.0107
 IR Inten    --      0.1121                 0.5186                 0.0189

                      4                      5                      6
                      A                      A                      A
 Frequencies --     69.1345                82.6081               109.0261
 Red. masses --      3.8877                 4.3120                 3.3117
 Frc consts  --      0.0109                 0.0173                 0.0232
 IR Inten    --      0.0397                 0.1581                 8.0449

                      7                      8                      9
                      A                      A                      A
 Frequencies --    112.8581               131.8654               148.3965
 Red. masses --      3.5270                 4.1082                 3.7377
 Frc consts  --      0.0265                 0.0421                 0.0485
 IR Inten    --      2.8751                 2.3143                 0.7262

                     10                     11                     12
                      A                      A                      A
 Frequencies --    198.5297               207.0339               247.0611
 Red. masses --      3.3598                 3.0155                 2.5507
 Frc consts  --      0.0780                 0.0762                 0.0917
 IR Inten    --      2.1958                 9.2336                 0.4097

                     13                     14                     15
                      A                      A                      A
 Frequencies --    264.1967               283.1079               303.5496
 Red. masses --      1.1216                 3.0950                 3.5126
 Frc consts  --      0.0461                 0.1462                 0.1907
 IR Inten    --     96.0535                 0.3113                 0.7285

                     16                     17                     18
                      A                      A                      A
 Frequencies --    311.5124               328.0198               358.2454
 Red. masses --      2.1616                 3.0930                 4.0069
 Frc consts  --      0.1236                 0.1961                 0.3030
 IR Inten    --      9.9203                 1.0598                 0.8651

                     19                     20                     21
                      A                      A                      A
 Frequencies --    373.1243               380.1683               393.6353
 Red. masses --      3.0349                 2.1640                 2.7709
 Frc consts  --      0.2489                 0.1843                 0.2530
 IR Inten    --      1.8652                 8.3217                 2.0414

                     22                     23                     24
                      A                      A                      A
 Frequencies --    461.4558               486.5658               493.1149
 Red. masses --      2.2017                 2.4082                 2.7403
 Frc consts  --      0.2762                 0.3359                 0.3926
 IR Inten    --      2.4102                 7.0473                 6.5152

                     25                     26                     27
                      A                      A                      A
 Frequencies --    511.2122               512.5060               544.9612
 Red. masses --      2.1486                 3.9128                 2.3651
 Frc consts  --      0.3308                 0.6055                 0.4138
 IR Inten    --     11.1331                 1.7810                 7.0946

                     28                     29                     30
                      A                      A                      A
 Frequencies --    568.6623               607.5013               629.8163
 Red. masses --      2.4164                 3.2155                 3.3403
 Frc consts  --      0.4604                 0.6992                 0.7807
 IR Inten    --      5.3850                 5.3180                12.0279

                     31                     32                     33
                      A                      A                      A
 Frequencies --    688.5325               749.4639               765.0352
 Red. masses --      1.5631                 2.5695                 1.9863
 Frc consts  --      0.4366                 0.8503                 0.6849
 IR Inten    --     86.8032                92.8688                10.4992

                     34                     35                     36
                      A                      A                      A
 Frequencies --    772.9877               775.7727               782.8656
 Red. masses --      2.5331                 1.5365                 2.0457
 Frc consts  --      0.8918                 0.5448                 0.7387
 IR Inten    --      4.1994                12.6241                54.4529

                     37                     38                     39
                      A                      A                      A
 Frequencies --    815.3070               842.3339               855.8053
 Red. masses --      2.5762                 3.5988                 2.5892
 Frc consts  --      1.0090                 1.5045                 1.1173
 IR Inten    --     15.6295                15.5569                 2.8202

                     40                     41                     42
                      A                      A                      A
 Frequencies --    883.7277               889.3592               900.3414
 Red. masses --      1.9671                 1.6020                 1.7326
 Frc consts  --      0.9051                 0.7466                 0.8275
 IR Inten    --      9.5059                 7.0464                 7.7826

                     43                     44                     45
                      A                      A                      A
 Frequencies --    923.5090               951.7187               961.1454
 Red. masses --      2.4599                 1.7218                 1.4558
 Frc consts  --      1.2361                 0.9189                 0.7924
 IR Inten    --     62.9013                 7.0355                 5.7579

                     46                     47                     48
                      A                      A                      A
 Frequencies --    978.4524               992.3748              1012.4213
 Red. masses --      2.1169                 1.2971                 2.0002
 Frc consts  --      1.1941                 0.7526                 1.2080
 IR Inten    --      7.1110                 2.5131                 8.5287

                     49                     50                     51
                      A                      A                      A
 Frequencies --   1021.4275              1034.4941              1045.9199
 Red. masses --      2.0960                 2.5134                 2.0287
 Frc consts  --      1.2884                 1.5848                 1.3075
 IR Inten    --      7.5128                11.3663                 7.9484

                     52                     53                     54
                      A                      A                      A
 Frequencies --   1084.8522              1089.3648              1095.7519
 Red. masses --      2.3673                 1.9546                 2.8752
 Frc consts  --      1.6415                 1.3666                 2.0340
 IR Inten    --     18.7689                21.0521                21.5565

                     55                     56                     57
                      A                      A                      A
 Frequencies --   1103.8806              1111.7348              1133.3782
 Red. masses --      2.6165                 2.4003                 2.2289
 Frc consts  --      1.8785                 1.7479                 1.6869
 IR Inten    --      7.7402                25.3069                14.4807

                     58                     59                     60
                      A                      A                      A
 Frequencies --   1137.2413              1159.3562              1173.3194
 Red. masses --      2.5077                 3.6762                 3.1252
 Frc consts  --      1.9109                 2.9113                 2.5349
 IR Inten    --     59.9020                43.8824               132.8809

                     61                     62                     63
                      A                      A                      A
 Frequencies --   1184.9333              1193.5738              1198.3636
 Red. masses --      2.6084                 1.6442                 1.2337
 Frc consts  --      2.1578                 1.3801                 1.0439
 IR Inten    --     47.1555                 7.2951                 5.5349

                     64                     65                     66
                      A                      A                      A
 Frequencies --   1207.3934              1235.8301              1252.2679
 Red. masses --      1.3550                 2.5952                 1.1989
 Frc consts  --      1.1638                 2.3353                 1.1077
 IR Inten    --     10.3498                 6.4574                13.5131

                     67                     68                     69
                      A                      A                      A
 Frequencies --   1258.0429              1272.1051              1280.1997
 Red. masses --      1.2615                 1.1288                 1.3656
 Frc consts  --      1.1763                 1.0763                 1.3186
 IR Inten    --      2.4913                23.7294                19.6931

                     70                     71                     72
                      A                      A                      A
 Frequencies --   1298.4361              1312.2658              1321.7571
 Red. masses --      1.2940                 1.6529                 1.4482
 Frc consts  --      1.2854                 1.6770                 1.4907
 IR Inten    --      9.8589                 8.6402                 1.9196

                     73                     74                     75
                      A                      A                      A
 Frequencies --   1343.1878              1354.2600              1357.5565
 Red. masses --      1.2756                 1.8765                 1.1887
 Frc consts  --      1.3559                 2.0277                 1.2907
 IR Inten    --      9.6048                 7.2944                12.0446

                     76                     77                     78
                      A                      A                      A
 Frequencies --   1363.7790              1385.7917              1391.2708
 Red. masses --      1.3774                 1.2491                 1.3518
 Frc consts  --      1.5094                 1.4134                 1.5417
 IR Inten    --      8.7293                 3.6562                 4.9550

                     79                     80                     81
                      A                      A                      A
 Frequencies --   1402.3503              1411.6622              1413.5663
 Red. masses --      1.2616                 1.3003                 1.3674
 Frc consts  --      1.4617                 1.5267                 1.6098
 IR Inten    --     12.2932                 5.1219                 6.3655

                     82                     83                     84
                      A                      A                      A
 Frequencies --   1418.3036              1434.1389              1449.7829
 Red. masses --      1.2527                 1.2449                 1.2699
 Frc consts  --      1.4847                 1.5085                 1.5726
 IR Inten    --     15.5685                 6.2097                 3.9756

                     85                     86                     87
                      A                      A                      A
 Frequencies --   1467.1220              1496.7507              1498.6579
 Red. masses --      1.4656                 1.1888                 1.7272
 Frc consts  --      1.8586                 1.5692                 2.2856
 IR Inten    --      4.5361                 4.2474                 5.6219

                     88                     89                     90
                      A                      A                      A
 Frequencies --   1501.2278              1511.1115              1512.6339
 Red. masses --      1.1409                 1.1214                 1.1194
 Frc consts  --      1.5150                 1.5087                 1.5091
 IR Inten    --      1.1456                 4.9814                10.1290

                     91                     92                     93
                      A                      A                      A
 Frequencies --   1515.4009              1524.3641              1527.4682
 Red. masses --      1.1145                 1.1961                 1.0840
 Frc consts  --      1.5080                 1.6376                 1.4901
 IR Inten    --      6.2254                 9.3863                 9.8877

                     94                     95                     96
                      A                      A                      A
 Frequencies --   1532.9294              1534.9994              1538.8340
 Red. masses --      1.2792                 1.3583                 1.2291
 Frc consts  --      1.7711                 1.8856                 1.7149
 IR Inten    --      4.9537                13.6479                 4.0107

                     97                     98                     99
                      A                      A                      A
 Frequencies --   1553.6095              1639.2943              1664.8397
 Red. masses --      1.2967                 5.6668                 5.6570
 Frc consts  --      1.8441                 8.9723                 9.2380
 IR Inten    --     35.6122                 0.8865                 0.6906

                    100                    101                    102
                      A                      A                      A
 Frequencies --   3010.5943              3020.2695              3026.6537
 Red. masses --      1.0579                 1.0796                 1.0652
 Frc consts  --      5.6494                 5.8024                 5.7493
 IR Inten    --     67.0960                 0.8968                34.6947

                    103                    104                    105
                      A                      A                      A
 Frequencies --   3030.9870              3032.9830              3036.9523
 Red. masses --      1.0646                 1.0658                 1.0641
 Frc consts  --      5.7624                 5.7766                 5.7823
 IR Inten    --      1.7632                22.4889                 5.8097

                    106                    107                    108
                      A                      A                      A
 Frequencies --   3039.6217              3045.5114              3056.9349
 Red. masses --      1.0606                 1.0637                 1.1026
 Frc consts  --      5.7738                 5.8131                 6.0707
 IR Inten    --     53.4776                68.4215                71.1986

                    109                    110                    111
                      A                      A                      A
 Frequencies --   3068.0482              3071.9534              3075.5423
 Red. masses --      1.0732                 1.0990                 1.1014
 Frc consts  --      5.9516                 6.1108                 6.1380
 IR Inten    --     41.5595                15.8750                49.6052

                    112                    113                    114
                      A                      A                      A
 Frequencies --   3078.0798              3087.5611              3093.1678
 Red. masses --      1.1025                 1.0988                 1.1014
 Frc consts  --      6.1546                 6.1715                 6.2085
 IR Inten    --     43.5017               117.2230                39.7901

                    115                    116                    117
                      A                      A                      A
 Frequencies --   3097.8781              3150.3179              3169.2765
 Red. masses --      1.0992                 1.0940                 1.0868
 Frc consts  --      6.2150                 6.3968                 6.4314
 IR Inten    --     21.1799                22.1343                 9.4070

                    118                    119                    120
                      A                      A                      A
 Frequencies --   3181.7809              3201.7682              3232.1426
 Red. masses --      1.0886                 1.0959                 1.0901
 Frc consts  --      6.4933                 6.6189                 6.7095
 IR Inten    --     21.6186                35.7274                 2.4030

                    121                    122                    123
                      A                      A                      A
 Frequencies --   3485.8661              3539.5715              3755.2812
 Red. masses --      1.0736                 1.0748                 1.0665
 Frc consts  --      7.6861                 7.9334                 8.8614
 IR Inten    --      0.7067                37.4917                20.6660

 - Thermochemistry -
 -------------------
 Temperature   298.150 Kelvin.  Pressure   1.00000 Atm.
 Atom     1 has atomic number  6 and mass  12.00000

 Molecular mass:   264.18378 amu.
 Principal axes and moments of inertia in atomic units:
                           1         2         3
     Eigenvalues --  3016.305287772.469848858.23864
           X            0.99997   0.00561   0.00524
           Y           -0.00563   0.99998   0.00309
           Z           -0.00522  -0.00312   0.99998
 This molecule is an asymmetric top.
 Rotational symmetry number  1.
 Warning -- assumption of classical behavior for rotation
           may cause significant error
 Rotational temperatures (Kelvin)      0.02872     0.01114     0.00978
 Rotational constants (GHZ):           0.59833     0.23220     0.20374
 Zero-point vibrational energy    1006776.6 (Joules/Mol)
                                  240.62539 (Kcal/Mol)
 Warning -- explicit consideration of  29 degrees of freedom as
           vibrations may cause significant error
 Vibrational temperatures:     24.32    63.21    87.08    99.47   118.85
          (Kelvin)            156.86   162.38   189.72   213.51   285.64
                              297.88   355.47   380.12   407.33   436.74
                              448.20   471.95   515.44   536.84   546.98
                              566.35   663.93   700.06   709.48   735.52
                              737.38   784.08   818.18   874.06   906.17
                              990.64  1078.31  1100.71  1112.16  1116.16
                             1126.37  1173.04  1211.93  1231.31  1271.49
                             1279.59  1295.39  1328.72  1369.31  1382.87
                             1407.77  1427.81  1456.65  1469.61  1488.41
                             1504.85  1560.86  1567.35  1576.54  1588.24
                             1599.54  1630.68  1636.24  1668.06  1688.14
                             1704.85  1717.29  1724.18  1737.17  1778.08
                             1801.73  1810.04  1830.28  1841.92  1868.16
                             1888.06  1901.71  1932.55  1948.48  1953.22
                             1962.17  1993.85  2001.73  2017.67  2031.07
                             2033.81  2040.62  2063.41  2085.91  2110.86
                             2153.49  2156.23  2159.93  2174.15  2176.34
                             2180.32  2193.22  2197.69  2205.54  2208.52
                             2214.04  2235.30  2358.58  2395.33  4331.57
                             4345.49  4354.68  4360.91  4363.79  4369.50
                             4373.34  4381.81  4398.25  4414.24  4419.86
                             4425.02  4428.67  4442.31  4450.38  4457.16
                             4532.60  4559.88  4577.87  4606.63  4650.33
                             5015.38  5092.65  5403.01

 Zero-point correction=                           0.383461 (Hartree/Particle)
 Thermal correction to Energy=                    0.401854
 Thermal correction to Enthalpy=                  0.402798
 Thermal correction to Gibbs Free Energy=         0.336180
 Sum of electronic and zero-point Energies=           -845.646789
 Sum of electronic and thermal Energies=              -845.628396
 Sum of electronic and thermal Enthalpies=            -845.627452
 Sum of electronic and thermal Free Energies=         -845.694070

                     E (Thermal)             CV                S
                      KCal/Mol        Cal/Mol-Kelvin    Cal/Mol-Kelvin
 Total                  252.167             71.970            140.210
 Electronic               0.000              0.000              0.000
 Translational            0.889              2.981             42.614
 Rotational               0.889              2.981             33.695
 Vibrational            250.390             66.008             63.901
 Vibration     1          0.593              1.986              6.968
 Vibration     2          0.595              1.980              5.073
 Vibration     3          0.597              1.973              4.440
 Vibration     4          0.598              1.969              4.178
 Vibration     5          0.600              1.961              3.828
 Vibration     6          0.606              1.942              3.286
 Vibration     7          0.607              1.939              3.219
 Vibration     8          0.612              1.921              2.919
 Vibration     9          0.618              1.904              2.693
 Vibration    10          0.637              1.842              2.147
 Vibration    11          0.641              1.830              2.070
 Vibration    12          0.661              1.768              1.751
 Vibration    13          0.671              1.739              1.634
 Vibration    14          0.682              1.705              1.515
 Vibration    15          0.695              1.667              1.397
 Vibration    16          0.700              1.652              1.354
 Vibration    17          0.711              1.620              1.270
 Vibration    18          0.733              1.558              1.130
 Vibration    19          0.745              1.527              1.067
 Vibration    20          0.750              1.512              1.038
 Vibration    21          0.761              1.484              0.986
 Vibration    22          0.819              1.336              0.762
 Vibration    23          0.843              1.280              0.693
 Vibration    24          0.849              1.265              0.676
 Vibration    25          0.866              1.225              0.631
 Vibration    26          0.868              1.222              0.628
 Vibration    27          0.900              1.151              0.555
 Vibration    28          0.925              1.099              0.507
 Vibration    29          0.966              1.016              0.437

 Optimization completed.
    -- Stationary point found.
 Normal termination of Gaussian 16 at Sun Dec 13 16:53:36 2020.

 ----------------------------------------------------------------------
 # B3LYP/6-311++G(d,p) empiricaldispersion=gd3bj scf=xqc pop=npa geom=c
 heck
 ----------------------------------------------------------------------

 ---------------------------------------
 CID_106309314_JID_9135_Energie_neutraal
 ---------------------------------------
 Structure from the checkpoint file:  "JID_9135.chk"
 Charge =  0 Multiplicity = 1

 SCF Done:  E(RB3LYP) =  -846.278372809     A.U. after   16 cycles
 Normal termination of Gaussian 16 at Sun Dec 13 17:06:46 2020.

 ----------------------------------------------------------------------
 # B3LYP/6-311++G(d,p) empiricaldispersion=gd3bj scf=xqc pop=npa geom=c
 heck
 ----------------------------------------------------------------------

 -------------------------------------
 CID_106309314_JID_9135_Energie_kation
 -------------------------------------
 Structure from the checkpoint file:  "JID_9135.chk"
 Charge =  1 Multiplicity = 2

 SCF Done:  E(UB3LYP) =  -846.006582736     A.U. after   26 cycles
 Normal termination of Gaussian 16 at Sun Dec 13 17:37:52 2020.
 Gaussian 16:  ES64L-G16RevA.03 25-Dec-2016

 ----------------------------------------------------------------------
 # B3LYP/6-311++G(d,p) empiricaldispersion=gd3bj scf=xqc pop=npa geom=c
 heck
 ----------------------------------------------------------------------

 ------------------------------------
 CID_106309314_JID_9135_Energie_anion
 ------------------------------------
 Structure from the checkpoint file:  "JID_9135.chk"
 Charge = -1 Multiplicity = 2

                         Standard orientation:
 ---------------------------------------------------------------------
 Center     Atomic      Atomic             Coordinates (Angstroms)
 Number     Number       Type             X           Y           Z
 ---------------------------------------------------------------------
      1          6           0       -1.641112   -1.902876    1.033373
      2          6           0       -3.082598   -2.260406    0.625912
      3          7           0       -4.015272   -1.176051    0.322099
      4          6           0       -3.611791   -0.280738   -0.769103
      5          6           0       -2.561827    0.749165   -0.392863
      6          6           0       -2.921369    2.099009   -0.338807
      7          6           0       -2.030747    3.071181    0.118069
      8          6           0       -0.765303    2.682144    0.547835
      9          6           0       -0.391808    1.337619    0.486719
     10          6           0       -1.262189    0.362595   -0.003631
     11          6           0       -0.866029   -1.117138   -0.054906
     12          7           0        0.554742   -1.439112   -0.008376
     13          6           0        1.274797   -1.478015   -1.275556
     14          6           0        1.666313   -0.154844   -1.960772
     15          6           0        2.673465    0.720414   -1.213733
     16          8           0        3.947540    0.096217   -1.014348
     17          6           0        4.166522   -0.596566    0.199810
     18          6           0        3.991779    0.217159    1.477968
     19          8           0        2.610433    0.209008    1.859888
     20          1           0       -1.639084   -1.336401    1.974760
     21          1           0       -1.093303   -2.835056    1.211932
     22          1           0       -3.038177   -2.902305   -0.265480
     23          1           0       -3.538593   -2.866544    1.418289
     24          1           0       -4.175635   -0.616933    1.158614
     25          1           0       -4.506567    0.244026   -1.125073
     26          1           0       -3.272990   -0.913904   -1.599527
     27          1           0       -3.921942    2.388872   -0.653043
     28          1           0       -2.329940    4.115184    0.150560
     29          1           0       -0.063666    3.419775    0.928907
     30          1           0        0.592236    1.048192    0.834835
     31          1           0       -1.209971   -1.510322   -1.021577
     32          1           0        1.064970   -0.954024    0.724066
     33          1           0        2.181966   -2.076878   -1.134056
     34          1           0        0.653410   -2.051421   -1.975514
     35          1           0        2.091775   -0.399545   -2.943680
     36          1           0        0.768153    0.450693   -2.140824
     37          1           0        2.882995    1.608977   -1.819991
     38          1           0        2.265775    1.065845   -0.262777
     39          1           0        3.542628   -1.497115    0.289905
     40          1           0        5.210444   -0.923641    0.143557
     41          1           0        4.600410   -0.242418    2.270931
     42          1           0        4.354798    1.241697    1.312721
     43          1           0        2.511608    0.715373    2.680196
 ---------------------------------------------------------------------

 SCF Done:  E(UB3LYP) =  -846.269792429     A.U. after   33 cycles
 SCF Done:  E(UB3LYP) =  -846.269792429     a.u. after    1 cycles

 The electronic state is 2-A.
 Alpha  occ. eigenvalues --  -19.02597 -19.02525 -14.21793 -14.19679 -10.12056
 Alpha  occ. eigenvalues --  -10.11619 -10.11615 -10.11610 -10.11351 -10.11303
 Alpha  occ. eigenvalues --  -10.10257 -10.08916 -10.08746 -10.08409 -10.08104
 Alpha  occ. eigenvalues --  -10.07893 -10.07608 -10.07455 -10.07208  -0.93857
 Alpha  occ. eigenvalues --   -0.91989  -0.83186  -0.81272  -0.76351  -0.69929
 Alpha  occ. eigenvalues --   -0.67963  -0.67322  -0.65110  -0.64046  -0.59306
 Alpha  occ. eigenvalues --   -0.57976  -0.56015  -0.52546  -0.51521  -0.49851
 Alpha  occ. eigenvalues --   -0.48606  -0.47479  -0.43395  -0.42909  -0.41502
 Alpha  occ. eigenvalues --   -0.41162  -0.38586  -0.37676  -0.37193  -0.36831
 Alpha  occ. eigenvalues --   -0.36143  -0.35548  -0.35231  -0.33858  -0.33341
 Alpha  occ. eigenvalues --   -0.32672  -0.31658  -0.31297  -0.30514  -0.30192
 Alpha  occ. eigenvalues --   -0.28947  -0.27993  -0.27617  -0.27260  -0.26837
 Alpha  occ. eigenvalues --   -0.26334  -0.25211  -0.24914  -0.24298  -0.23878
 Alpha  occ. eigenvalues --   -0.21041  -0.18431  -0.16563  -0.16168  -0.15665
 Alpha  occ. eigenvalues --   -0.14013  -0.12539   0.04177
 Alpha virt. eigenvalues --    0.05917   0.06465   0.06958   0.07306   0.07630
 Alpha virt. eigenvalues --    0.07706   0.08026   0.08627   0.08933   0.09837
 Alpha virt. eigenvalues --    0.09927   0.10346   0.10831   0.11025   0.11245

  Beta  occ. eigenvalues --  -19.02596 -19.02462 -14.21789 -14.19676 -10.12050
  Beta  occ. eigenvalues --  -10.11619 -10.11607 -10.11568 -10.11343 -10.11302
  Beta  occ. eigenvalues --  -10.10257 -10.08918 -10.08737 -10.08399 -10.08090
  Beta  occ. eigenvalues --  -10.07877 -10.07604 -10.07450 -10.07207  -0.93828
  Beta  occ. eigenvalues --   -0.91875  -0.83178  -0.81266  -0.76332  -0.69919
  Beta  occ. eigenvalues --   -0.67947  -0.67294  -0.65090  -0.63989  -0.59280
  Beta  occ. eigenvalues --   -0.57948  -0.55992  -0.52512  -0.51495  -0.49827
  Beta  occ. eigenvalues --   -0.48582  -0.47445  -0.43329  -0.42804  -0.41470
  Beta  occ. eigenvalues --   -0.41145  -0.38562  -0.37657  -0.37178  -0.36809
  Beta  occ. eigenvalues --   -0.36122  -0.35525  -0.35207  -0.33831  -0.33328
  Beta  occ. eigenvalues --   -0.32649  -0.31635  -0.31279  -0.30487  -0.30173
  Beta  occ. eigenvalues --   -0.28928  -0.27964  -0.27604  -0.27239  -0.26823
  Beta  occ. eigenvalues --   -0.26315  -0.25179  -0.24890  -0.24278  -0.23857
  Beta  occ. eigenvalues --   -0.21018  -0.18373  -0.16550  -0.16145  -0.15636
  Beta  occ. eigenvalues --   -0.13997  -0.12533
  Beta virt. eigenvalues --    0.05957   0.06648   0.06952   0.07128   0.07360
  Beta virt. eigenvalues --    0.07796   0.08186   0.08587   0.08683   0.09405
  Beta virt. eigenvalues --    0.09970   0.10181   0.10562   0.10967   0.11292

 Mulliken charges and spin densities:
               1          2
     1  C   -0.234984  -0.031099
     2  C   -0.577155  -0.110496
     3  N    0.011146   0.019067
     4  C   -0.664034  -0.162895
     5  C   -0.622590   1.017069
     6  C    0.414336  -0.699311
     7  C    0.595344  -0.859451
     8  C   -0.212522  -0.057711
     9  C   -0.096719  -0.118139
    10  C    0.086935   0.665475
    11  C   -0.475077  -0.432171
    12  N    0.102120   0.024748
    13  C    0.227438  -0.160504
    14  C   -0.288897  -0.053633
    15  C   -0.434098  -0.002249
    16  O   -0.043549  -0.013599
    17  C   -0.717060   0.431599
    18  C    1.544597  -1.837939
    19  O   -0.351029   0.033085
    20  H    0.004317   0.174458
    21  H    0.137459   0.003675
    22  H    0.167058  -0.009724
    23  H    0.105816   0.060358
    24  H    0.180135   0.022833
    25  H    0.102263   0.094177
    26  H    0.124682   0.008227
    27  H   -0.106775   0.232422
    28  H   -0.244485   0.410027
    29  H   -0.936686   1.129259
    30  H    1.541468  -1.466530
    31  H    0.053450   0.034698
    32  H    0.317826   0.069749
    33  H    0.132294   0.061608
    34  H    0.155017  -0.029821
    35  H    0.157172   0.012439
    36  H    0.119889  -0.002931
    37  H   -0.024886   0.198745
    38  H    0.222371  -0.076241
    39  H    0.272900  -0.149867
    40  H   -0.258255   0.439972
    41  H   -0.681481   0.828405
    42  H   -0.182905   0.359482
    43  H   -0.622845   0.942736
 Sum of Mulliken charges =  -1.00000   1.00000

 Dipole moment (field-independent basis, Debye):
    X=             -6.5852    Y=             -5.7351    Z=             -7.1478  Tot=             11.2848
 Quadrupole moment (field-independent basis, Debye-Ang):
   XX=           -202.4840   YY=           -165.3691   ZZ=           -164.3426
   XY=             -3.6423   XZ=            -19.4830   YZ=             -6.4161

 Summary of Natural Population Analysis:

                                       Natural Population
                Natural  -----------------------------------------------
    Atom  No    Charge         Core      Valence    Rydberg      Total
 -----------------------------------------------------------------------
      C    1   -0.19860      0.99960     2.18933    0.00967     3.19860
      C    2   -0.08486      0.99962     2.07494    0.01030     3.08486
      N    3   -0.33693      0.99976     2.82587    0.01130     3.83693
      C    4   -0.09687      0.99959     2.08489    0.01238     3.09687
      C    5   -0.03324      0.99946     2.02450    0.00929     3.03324
      C    6   -0.10072      0.99952     2.09125    0.00995     3.10072
      C    7   -0.10304      0.99956     2.09346    0.01002     3.10304
      C    8   -0.09317      0.99956     2.08310    0.01052     3.09317
      C    9   -0.10684      0.99950     2.09667    0.01066     3.10684
      C   10   -0.01370      0.99944     2.00307    0.01119     3.01370
      C   11   -0.01650      0.99955     2.00370    0.01325     3.01650
      N   12   -0.35632      0.99973     2.84536    0.01122     3.85632
      C   13   -0.08359      0.99962     2.07376    0.01021     3.08359
      C   14   -0.21144      0.99962     2.20488    0.00694     3.21144
      C   15   -0.01771      0.99955     2.00453    0.01363     3.01771
      O   16   -0.30569      0.99989     3.29675    0.00905     4.30569
      C   17   -0.01953      0.99956     2.00624    0.01373     3.01953
      C   18   -0.02583      0.99960     2.01316    0.01307     3.02583
      O   19   -0.38629      0.99989     3.37810    0.00830     4.38629
      H   20    0.09772      0.00000     0.40097    0.00131     0.40228
      H   21    0.10660      0.00000     0.39226    0.00114     0.39340
      H   22    0.08541      0.00000     0.41346    0.00113     0.41459
      H   23    0.09408      0.00000     0.40506    0.00086     0.40592
      H   24    0.17094      0.00000     0.32645    0.00261     0.32906
      H   25    0.09578      0.00000     0.40308    0.00114     0.40422
      H   26    0.09391      0.00000     0.40502    0.00107     0.40609
      H   27    0.09720      0.00000     0.40167    0.00113     0.40280
      H   28    0.10097      0.00000     0.39800    0.00103     0.39903
      H   29    0.10555      0.00000     0.39269    0.00177     0.39445
      H   30    0.11084      0.00000     0.38620    0.00297     0.38916
      H   31    0.09186      0.00000     0.40642    0.00172     0.40814
      H   32    0.19382      0.00000     0.30214    0.00404     0.30618
      H   33    0.09223      0.00000     0.40653    0.00124     0.40777
      H   34    0.08780      0.00000     0.41122    0.00098     0.41220
      H   35    0.09505      0.00000     0.40378    0.00118     0.40495
      H   36    0.10098      0.00000     0.39793    0.00109     0.39902
      H   37    0.08707      0.00000     0.41173    0.00120     0.41293
      H   38    0.09345      0.00000     0.40406    0.00249     0.40655
      H   39    0.08050      0.00000     0.41777    0.00172     0.41950
      H   40    0.09164      0.00000     0.40712    0.00125     0.40836
      H   41    0.08576      0.00000     0.41129    0.00294     0.41424
      H   42    0.08443      0.00000     0.41329    0.00228     0.41557
      H   43    0.24727      0.00000     0.22609    0.02664     0.25273
 =======================================================================
   * Total *   -0.00000     18.99260    52.73779    0.26961    72.00000

 Normal termination of Gaussian 16 at Sun Dec 13 18:15:37 2020.
