 Gaussian 16, Revision A.03,

 -----------------------------------------------------------
 # opt freq B3LYP/6-31G(d) empiricaldispersion=gd3bj scf=xqc
 -----------------------------------------------------------

 ------------------------------
 CID_65294831_JID_2479_neutraal
 ------------------------------
 Symbolic Z-matrix:
 Charge =  0 Multiplicity = 1

 SCF Done:  E(RB3LYP) =  -892.396503201     A.U. after   14 cycles
 SCF Done:  E(RB3LYP) =  -892.401364075     A.U. after   12 cycles
 SCF Done:  E(RB3LYP) =  -892.402050198     A.U. after   12 cycles
 SCF Done:  E(RB3LYP) =  -892.402155288     A.U. after   12 cycles
 SCF Done:  E(RB3LYP) =  -892.402266652     A.U. after   12 cycles
 SCF Done:  E(RB3LYP) =  -892.402467779     A.U. after   11 cycles
 SCF Done:  E(RB3LYP) =  -892.402488277     A.U. after   10 cycles
 SCF Done:  E(RB3LYP) =  -892.402491796     A.U. after    9 cycles
 SCF Done:  E(RB3LYP) =  -892.402493234     A.U. after    9 cycles
 SCF Done:  E(RB3LYP) =  -892.402493585     A.U. after    8 cycles
 SCF Done:  E(RB3LYP) =  -892.402493712     A.U. after    7 cycles
 SCF Done:  E(RB3LYP) =  -892.402493757     A.U. after    7 cycles
 Optimization completed.
    -- Stationary point found.
 Normal termination of Gaussian 16 at Wed Dec  9 17:25:37 2020.

 --------------------------------------------------------------------
 #N Geom=AllCheck Guess=TCheck SCRF=Check GenChk RB3LYP/6-31G(d) Freq
 --------------------------------------------------------------------

 Structure from the checkpoint file:  "JID_2479.chk"
 ------------------------------
 CID_65294831_JID_2479_neutraal
 ------------------------------
 Charge =  0 Multiplicity = 1

 SCF Done:  E(RB3LYP) =  -892.402493757     A.U. after    1 cycles

  Exact polarizability: 146.729   6.838 115.538   6.644  -5.699  83.489
 Approx polarizability: 193.631   8.788 183.071  16.370 -20.138 131.661

                      1                      2                      3
                      A                      A                      A
 Frequencies --     28.9986                66.6337                76.2993
 Red. masses --      4.3478                 3.7730                 3.6264
 Frc consts  --      0.0022                 0.0099                 0.0124
 IR Inten    --      2.4003                 1.0390                 2.6866

                      4                      5                      6
                      A                      A                      A
 Frequencies --    103.7565               134.1925               148.1550
 Red. masses --      3.3669                 3.0218                 2.3507
 Frc consts  --      0.0214                 0.0321                 0.0304
 IR Inten    --      1.2911                 3.1264                 3.8438

                      7                      8                      9
                      A                      A                      A
 Frequencies --    173.5032               194.4796               226.5825
 Red. masses --      2.0825                 1.1483                 2.6835
 Frc consts  --      0.0369                 0.0256                 0.0812
 IR Inten    --      2.9664                 0.2923                 6.2668

                     10                     11                     12
                      A                      A                      A
 Frequencies --    263.2102               275.2616               284.9237
 Red. masses --      1.8749                 1.3553                 1.5538
 Frc consts  --      0.0765                 0.0605                 0.0743
 IR Inten    --      4.4910                39.4712                25.7642

                     13                     14                     15
                      A                      A                      A
 Frequencies --    315.4516               342.2158               365.5497
 Red. masses --      4.6532                 2.8318                 3.2340
 Frc consts  --      0.2728                 0.1954                 0.2546
 IR Inten    --      0.4764                 9.8127                 5.0281

                     16                     17                     18
                      A                      A                      A
 Frequencies --    454.3998               495.6555               511.3688
 Red. masses --      4.2949                 3.4163                 3.2339
 Frc consts  --      0.5225                 0.4945                 0.4982
 IR Inten    --      5.8156                 1.6425                10.7538

                     19                     20                     21
                      A                      A                      A
 Frequencies --    651.9166               669.0922               676.8203
 Red. masses --      4.7640                 4.0304                 6.3529
 Frc consts  --      1.1929                 1.0631                 1.7146
 IR Inten    --      4.7362                10.8018                 1.2709

                     22                     23                     24
                      A                      A                      A
 Frequencies --    692.4292               740.1957               777.9203
 Red. masses --      7.9075                 4.0986                 1.2100
 Frc consts  --      2.2338                 1.3231                 0.4314
 IR Inten    --      5.1857                 3.0583                 9.6490

                     25                     26                     27
                      A                      A                      A
 Frequencies --    882.3344               904.4993               923.8300
 Red. masses --      1.9570                 1.2902                 2.0392
 Frc consts  --      0.8976                 0.6219                 1.0254
 IR Inten    --     32.4318                77.7896                 6.4389

                     28                     29                     30
                      A                      A                      A
 Frequencies --    990.0956               998.9334              1031.3990
 Red. masses --      1.9287                 3.8880                 1.9354
 Frc consts  --      1.1140                 2.2858                 1.2130
 IR Inten    --     11.7083                 1.8699                 1.8116

                     31                     32                     33
                      A                      A                      A
 Frequencies --   1069.3256              1086.4129              1088.9858
 Red. masses --      5.5492                 1.4274                 1.5019
 Frc consts  --      3.7385                 0.9926                 1.0494
 IR Inten    --      1.1251                 0.2775                 3.3063

                     34                     35                     36
                      A                      A                      A
 Frequencies --   1093.6378              1107.1617              1128.5349
 Red. masses --      1.8128                 2.3747                 1.8697
 Frc consts  --      1.2775                 1.7151                 1.4030
 IR Inten    --     14.0673                 9.0747                30.5686

                     37                     38                     39
                      A                      A                      A
 Frequencies --   1196.5275              1237.9393              1276.5116
 Red. masses --      1.4395                 2.8344                 2.0088
 Frc consts  --      1.2142                 2.5592                 1.9286
 IR Inten    --      0.5856                16.4328                 2.5892

                     40                     41                     42
                      A                      A                      A
 Frequencies --   1300.4250              1328.4853              1364.1133
 Red. masses --      1.1856                 1.2682                 1.2769
 Frc consts  --      1.1813                 1.3188                 1.4000
 IR Inten    --      2.2188                29.5868                 3.2336

                     43                     44                     45
                      A                      A                      A
 Frequencies --   1400.1453              1403.5049              1428.9137
 Red. masses --      1.9704                 2.2203                 1.7257
 Frc consts  --      2.2758                 2.5769                 2.0760
 IR Inten    --     35.1872                19.3070                19.7653

                     46                     47                     48
                      A                      A                      A
 Frequencies --   1435.1930              1439.5592              1447.9289
 Red. masses --      1.2343                 1.8405                 1.4896
 Frc consts  --      1.4979                 2.2472                 1.8400
 IR Inten    --      7.6993                10.2003                15.9759

                     49                     50                     51
                      A                      A                      A
 Frequencies --   1481.2292              1492.0922              1510.7129
 Red. masses --      2.2845                 1.3607                 1.0805
 Frc consts  --      2.9531                 1.7849                 1.4530
 IR Inten    --     73.3937                34.0082                 5.2185

                     52                     53                     54
                      A                      A                      A
 Frequencies --   1511.5650              1517.5123              1531.5475
 Red. masses --      1.0866                 1.0434                 1.3052
 Frc consts  --      1.4628                 1.4157                 1.8038
 IR Inten    --     16.3973                 2.5459                 2.7208

                     55                     56                     57
                      A                      A                      A
 Frequencies --   1533.3483              1536.8529              1587.4761
 Red. masses --      1.1461                 1.0442                 4.6233
 Frc consts  --      1.5877                 1.4532                 6.8646
 IR Inten    --      3.0859                 3.6771                33.2522

                     58                     59                     60
                      A                      A                      A
 Frequencies --   1699.9796              2991.8311              3049.2768
 Red. masses --      1.0872                 1.0716                 1.0424
 Frc consts  --      1.8512                 5.6513                 5.7106
 IR Inten    --     37.0114                47.1945                22.7089

                     61                     62                     63
                      A                      A                      A
 Frequencies --   3056.4946              3080.6054              3088.5711
 Red. masses --      1.0390                 1.0704                 1.0621
 Frc consts  --      5.7187                 5.9851                 5.9692
 IR Inten    --     30.8919                 6.1811                15.2113

                     64                     65                     66
                      A                      A                      A
 Frequencies --   3090.8394              3111.5235              3121.4120
 Red. masses --      1.0844                 1.0962                 1.1002
 Frc consts  --      6.1039                 6.2531                 6.3157
 IR Inten    --     45.1760                 5.2795                20.8231

                     67                     68                     69
                      A                      A                      A
 Frequencies --   3146.4175              3148.3420              3164.2070
 Red. masses --      1.1029                 1.1005                 1.1022
 Frc consts  --      6.4330                 6.4272                 6.5021
 IR Inten    --     13.6214                 1.9859                10.9750

                     70                     71                     72
                      A                      A                      A
 Frequencies --   3164.2398              3477.5408              3559.9963
 Red. masses --      1.1031                 1.0505                 1.0921
 Frc consts  --      6.5073                 7.4851                 8.1547
 IR Inten    --      3.9412                 0.0956                 0.2095

 - Thermochemistry -
 -------------------
 Temperature   298.150 Kelvin.  Pressure   1.00000 Atm.
 Atom     1 has atomic number  6 and mass  12.00000

 Molecular mass:   186.09392 amu.
 Principal axes and moments of inertia in atomic units:
                           1         2         3
     Eigenvalues --  1392.905453139.581104069.77105
           X            0.99989  -0.01463  -0.00061
           Y            0.01464   0.99971   0.01915
           Z            0.00033  -0.01916   0.99982
 This molecule is an asymmetric top.
 Rotational symmetry number  1.
 Warning -- assumption of classical behavior for rotation
           may cause significant error
 Rotational temperatures (Kelvin)      0.06218     0.02759     0.02128
 Rotational constants (GHZ):           1.29567     0.57484     0.44345
 Zero-point vibrational energy     579513.1 (Joules/Mol)
                                  138.50695 (Kcal/Mol)
 Warning -- explicit consideration of  18 degrees of freedom as
           vibrations may cause significant error
 Vibrational temperatures:     41.72    95.87   109.78   149.28   193.07
          (Kelvin)            213.16   249.63   279.81   326.00   378.70
                              396.04   409.94   453.86   492.37   525.94
                              653.78   713.14   735.75   937.96   962.67
                              973.79   996.25  1064.98  1119.25  1269.48
                             1301.37  1329.19  1424.53  1437.24  1483.95
                             1538.52  1563.11  1566.81  1573.50  1592.96
                             1623.71  1721.54  1781.12  1836.62  1871.02
                             1911.39  1962.65  2014.50  2019.33  2055.89
                             2064.92  2071.20  2083.25  2131.16  2146.79
                             2173.58  2174.80  2183.36  2203.56  2206.15
                             2211.19  2284.02  2445.89  4304.58  4387.23
                             4397.61  4432.30  4443.76  4447.03  4476.79
                             4491.02  4526.99  4529.76  4552.59  4552.64
                             5003.41  5122.04

 Zero-point correction=                           0.220725 (Hartree/Particle)
 Thermal correction to Energy=                    0.234192
 Thermal correction to Enthalpy=                  0.235136
 Thermal correction to Gibbs Free Energy=         0.179960
 Sum of electronic and zero-point Energies=           -892.181769
 Sum of electronic and thermal Energies=              -892.168302
 Sum of electronic and thermal Enthalpies=            -892.167357
 Sum of electronic and thermal Free Energies=         -892.222534

                     E (Thermal)             CV                S
                      KCal/Mol        Cal/Mol-Kelvin    Cal/Mol-Kelvin
 Total                  146.958             48.421            116.128
 Electronic               0.000              0.000              0.000
 Translational            0.889              2.981             41.569
 Rotational               0.889              2.981             31.254
 Vibrational            145.180             42.460             43.305
 Vibration     1          0.593              1.984              5.897
 Vibration     2          0.598              1.970              4.250
 Vibration     3          0.599              1.965              3.984
 Vibration     4          0.605              1.946              3.382
 Vibration     5          0.613              1.919              2.885
 Vibration     6          0.618              1.905              2.696
 Vibration     7          0.627              1.875              2.397
 Vibration     8          0.635              1.848              2.185
 Vibration     9          0.650              1.801              1.906
 Vibration    10          0.670              1.740              1.640
 Vibration    11          0.677              1.719              1.563
 Vibration    12          0.683              1.702              1.504
 Vibration    13          0.703              1.644              1.334
 Vibration    14          0.721              1.591              1.202
 Vibration    15          0.739              1.543              1.098
 Vibration    16          0.813              1.351              0.783
 Vibration    17          0.851              1.260              0.669
 Vibration    18          0.866              1.225              0.630

 Optimization completed.
    -- Stationary point found.
 Normal termination of Gaussian 16 at Wed Dec  9 17:31:18 2020.

 ----------------------------------------------------------------------
 # B3LYP/6-311++G(d,p) empiricaldispersion=gd3bj scf=xqc pop=npa geom=c
 heck
 ----------------------------------------------------------------------

 --------------------------------------
 CID_65294831_JID_2479_Energie_neutraal
 --------------------------------------
 Structure from the checkpoint file:  "JID_2479.chk"
 Charge =  0 Multiplicity = 1

 SCF Done:  E(RB3LYP) =  -892.570891598     A.U. after   14 cycles
 Normal termination of Gaussian 16 at Wed Dec  9 17:34:10 2020.

 ----------------------------------------------------------------------
 # B3LYP/6-311++G(d,p) empiricaldispersion=gd3bj scf=xqc pop=npa geom=c
 heck
 ----------------------------------------------------------------------

 ------------------------------------
 CID_65294831_JID_2479_Energie_kation
 ------------------------------------
 Structure from the checkpoint file:  "JID_2479.chk"
 Charge =  1 Multiplicity = 2

 SCF Done:  E(UB3LYP) =  -892.277858138     A.U. after   24 cycles
 Normal termination of Gaussian 16 at Wed Dec  9 17:43:25 2020.
 Gaussian 16:  ES64L-G16RevA.03 25-Dec-2016

 ----------------------------------------------------------------------
 # B3LYP/6-311++G(d,p) empiricaldispersion=gd3bj scf=xqc pop=npa geom=c
 heck
 ----------------------------------------------------------------------

 -----------------------------------
 CID_65294831_JID_2479_Energie_anion
 -----------------------------------
 Structure from the checkpoint file:  "JID_2479.chk"
 Charge = -1 Multiplicity = 2

                         Standard orientation:
 ---------------------------------------------------------------------
 Center     Atomic      Atomic             Coordinates (Angstroms)
 Number     Number       Type             X           Y           Z
 ---------------------------------------------------------------------
      1          6           0       -3.734836    0.558185    0.557418
      2          6           0       -3.164671   -0.389481   -0.490331
      3         16           0       -1.590415   -1.199790    0.022224
      4          6           0       -0.515144    0.189694   -0.116508
      5          7           0       -0.778187    1.338833   -0.695086
      6          7           0        0.357912    2.128272   -0.567824
      7          6           0        1.264781    1.431892    0.075912
      8          7           0        0.760300    0.185106    0.399208
      9          6           0        1.448091   -0.921825    1.053846
     10          6           0        1.990726   -1.937563    0.045998
     11          7           0        2.929567   -1.282750   -0.867654
     12          6           0        2.636270    1.895660    0.428127
     13          1           0       -3.921285    0.040979    1.503655
     14          1           0       -4.683289    0.974968    0.197433
     15          1           0       -3.044549    1.386609    0.731917
     16          1           0       -3.835646   -1.230130   -0.691662
     17          1           0       -2.962299    0.130705   -1.428603
     18          1           0        2.271877   -0.500728    1.633650
     19          1           0        0.746704   -1.402488    1.743695
     20          1           0        2.531317   -2.708670    0.606663
     21          1           0        1.142869   -2.433424   -0.455166
     22          1           0        3.401954   -1.981528   -1.437305
     23          1           0        2.411186   -0.693008   -1.517275
     24          1           0        3.395882    1.204790    0.047888
     25          1           0        2.785618    2.883486   -0.012191
     26          1           0        2.767871    1.979482    1.514437
 ---------------------------------------------------------------------

 SCF Done:  E(UB3LYP) =  -892.558664437     A.U. after   30 cycles

 The electronic state is 2-A.
 Alpha  occ. eigenvalues --  -88.76754 -14.28087 -14.22056 -14.21939 -14.19592
 Alpha  occ. eigenvalues --  -10.15760 -10.13920 -10.12181 -10.11476 -10.09903
 Alpha  occ. eigenvalues --  -10.08352 -10.07511  -7.85379  -5.81782  -5.81372
 Alpha  occ. eigenvalues --   -5.80762  -0.96326  -0.83224  -0.78336  -0.74990
 Alpha  occ. eigenvalues --   -0.70295  -0.65551  -0.63589  -0.61495  -0.54537
 Alpha  occ. eigenvalues --   -0.53435  -0.49700  -0.46294  -0.42298  -0.40265
 Alpha  occ. eigenvalues --   -0.38186  -0.37346  -0.36590  -0.35332  -0.33681
 Alpha  occ. eigenvalues --   -0.32264  -0.31866  -0.30704  -0.29977  -0.29468
 Alpha  occ. eigenvalues --   -0.28782  -0.27826  -0.26717  -0.24133  -0.21191
 Alpha  occ. eigenvalues --   -0.19985  -0.18932  -0.16426  -0.14977  -0.12622
 Alpha  occ. eigenvalues --    0.04366
 Alpha virt. eigenvalues --    0.05945   0.07163   0.07781   0.08304   0.09211
 Alpha virt. eigenvalues --    0.09902   0.10126   0.10663   0.10970   0.11322
 Alpha virt. eigenvalues --    0.12087   0.12237   0.12974   0.13351   0.13622

  Beta  occ. eigenvalues --  -88.76747 -14.28088 -14.22052 -14.21933 -14.19541
  Beta  occ. eigenvalues --  -10.15756 -10.13917 -10.12159 -10.11460 -10.09864
  Beta  occ. eigenvalues --  -10.08334 -10.07496  -7.85371  -5.81775  -5.81363
  Beta  occ. eigenvalues --   -5.80756  -0.96318  -0.83208  -0.78260  -0.74973
  Beta  occ. eigenvalues --   -0.70275  -0.65494  -0.63556  -0.61468  -0.54470
  Beta  occ. eigenvalues --   -0.53374  -0.49672  -0.46259  -0.42239  -0.40217
  Beta  occ. eigenvalues --   -0.38138  -0.37318  -0.36548  -0.35303  -0.33655
  Beta  occ. eigenvalues --   -0.32235  -0.31839  -0.30678  -0.29915  -0.29417
  Beta  occ. eigenvalues --   -0.28746  -0.27767  -0.26691  -0.24098  -0.21166
  Beta  occ. eigenvalues --   -0.19965  -0.18912  -0.16412  -0.14925  -0.12602
  Beta virt. eigenvalues --    0.06472   0.07074   0.07964   0.08505   0.08691
  Beta virt. eigenvalues --    0.09618   0.10088   0.10622   0.10882   0.11468
  Beta virt. eigenvalues --    0.11534   0.12403   0.12735   0.12940   0.13504

 Mulliken charges and spin densities:
               1          2
     1  C   -0.040484  -0.454559
     2  C    0.055799  -0.349418
     3  S    0.335225  -0.720959
     4  C   -0.085120  -0.079649
     5  N   -0.203205   0.089029
     6  N    0.108991  -0.109485
     7  C   -0.381014   0.717803
     8  N    0.197575  -0.013233
     9  C   -0.716384   0.481445
    10  C    2.403286  -2.711974
    11  N   -0.508429   0.066322
    12  C    0.128065  -0.745335
    13  H   -0.012806   0.131458
    14  H   -0.066276   0.193435
    15  H    0.067891   0.102712
    16  H   -0.397701   0.593386
    17  H    0.269135  -0.044730
    18  H   -0.311891   0.477142
    19  H   -0.477123   0.648265
    20  H   -0.854270   1.034256
    21  H   -0.339085   0.474068
    22  H   -0.347519   0.623113
    23  H    0.127202   0.113653
    24  H    0.026328   0.172307
    25  H    0.191161  -0.026254
    26  H   -0.169351   0.337202
 Sum of Mulliken charges =  -1.00000   1.00000

 Dipole moment (field-independent basis, Debye):
    X=             -3.8202    Y=              4.3333    Z=              0.2576  Tot=              5.7825
 Quadrupole moment (field-independent basis, Debye-Ang):
   XX=           -148.0784   YY=           -134.3054   ZZ=           -113.1374
   XY=             14.9401   XZ=              0.3791   YZ=              3.3682

 Summary of Natural Population Analysis:

                                       Natural Population
                Natural  -----------------------------------------------
    Atom  No    Charge         Core      Valence    Rydberg      Total
 -----------------------------------------------------------------------
      C    1   -0.29393      0.99965     2.28757    0.00671     3.29393
      C    2   -0.24558      0.99960     2.23459    0.01138     3.24558
      S    3    0.12619      4.99954     2.85541    0.01886     7.87381
      C    4    0.10974      0.99954     1.87064    0.02008     2.89026
      N    5   -0.18870      0.99965     2.67514    0.01391     3.68870
      N    6   -0.16863      0.99968     2.65581    0.01313     3.66863
      C    7    0.19070      0.99961     1.79333    0.01636     2.80930
      N    8   -0.22763      0.99957     2.71620    0.01186     3.72763
      C    9   -0.09084      0.99961     2.07861    0.01263     3.09084
      C   10   -0.09356      0.99963     2.08271    0.01122     3.09356
      N   11   -0.42569      0.99977     2.91509    0.01083     3.92569
      C   12   -0.31327      0.99962     2.30917    0.00448     3.31327
      H   13    0.09892      0.00000     0.39986    0.00123     0.40108
      H   14    0.09865      0.00000     0.40040    0.00095     0.40135
      H   15    0.10984      0.00000     0.38878    0.00138     0.39016
      H   16    0.10495      0.00000     0.39363    0.00142     0.39505
      H   17    0.11236      0.00000     0.38586    0.00178     0.38764
      H   18    0.10707      0.00000     0.39105    0.00188     0.39293
      H   19    0.10789      0.00000     0.39007    0.00204     0.39211
      H   20    0.10045      0.00000     0.39465    0.00490     0.39955
      H   21    0.08468      0.00000     0.41279    0.00253     0.41532
      H   22    0.18437      0.00000     0.31070    0.00494     0.31563
      H   23    0.17312      0.00000     0.32448    0.00240     0.32688
      H   24    0.12041      0.00000     0.37789    0.00170     0.37959
      H   25    0.11274      0.00000     0.38607    0.00119     0.38726
      H   26    0.10574      0.00000     0.39280    0.00146     0.39426
 =======================================================================
   * Total *    0.00000     15.99548    33.82329    0.18123    50.00000

 Normal termination of Gaussian 16 at Wed Dec  9 17:51:55 2020.
