 Gaussian 16, Revision A.03,

 -----------------------------------------------------------
 # opt freq B3LYP/6-31G(d) empiricaldispersion=gd3bj scf=xqc
 -----------------------------------------------------------

 -------------------------------
 CID_147459830_JID_5361_neutraal
 -------------------------------
 Symbolic Z-matrix:
 Charge =  0 Multiplicity = 1

 SCF Done:  E(RB3LYP) =  -586.133806269     A.U. after   13 cycles
 SCF Done:  E(RB3LYP) =  -586.137035219     A.U. after   11 cycles
 SCF Done:  E(RB3LYP) =  -586.134943069     A.U. after   12 cycles
 SCF Done:  E(RB3LYP) =  -586.136341267     A.U. after   11 cycles
 SCF Done:  E(RB3LYP) =  -586.137559191     A.U. after    9 cycles
 SCF Done:  E(RB3LYP) =  -586.137558874     A.U. after   11 cycles
 SCF Done:  E(RB3LYP) =  -586.137417027     A.U. after   10 cycles
 SCF Done:  E(RB3LYP) =  -586.137706239     A.U. after   11 cycles
 SCF Done:  E(RB3LYP) =  -586.137760144     A.U. after   10 cycles
 SCF Done:  E(RB3LYP) =  -586.137763240     A.U. after   10 cycles
 SCF Done:  E(RB3LYP) =  -586.137773860     A.U. after    8 cycles
 SCF Done:  E(RB3LYP) =  -586.137774697     A.U. after    7 cycles
 SCF Done:  E(RB3LYP) =  -586.137774975     A.U. after    7 cycles
 Optimization completed.
    -- Stationary point found.
 Normal termination of Gaussian 16 at Thu Dec 10 15:45:24 2020.

 --------------------------------------------------------------------
 #N Geom=AllCheck Guess=TCheck SCRF=Check GenChk RB3LYP/6-31G(d) Freq
 --------------------------------------------------------------------

 Structure from the checkpoint file:  "JID_5361.chk"
 -------------------------------
 CID_147459830_JID_5361_neutraal
 -------------------------------
 Charge =  0 Multiplicity = 1

 SCF Done:  E(RB3LYP) =  -586.137774975     A.U. after    1 cycles

  Exact polarizability: 199.217  -1.742 164.772  -3.351   2.092 106.763
 Approx polarizability: 264.774  -2.348 256.068  -8.383   7.625 160.237

                      1                      2                      3
                      A                      A                      A
 Frequencies --     45.4306                71.8531                85.2045
 Red. masses --      3.1039                 2.3583                 2.8280
 Frc consts  --      0.0038                 0.0072                 0.0121
 IR Inten    --      0.0236                 0.0572                 0.0920

                      4                      5                      6
                      A                      A                      A
 Frequencies --     92.5534               149.2714               177.9849
 Red. masses --      2.8802                 2.7646                 1.4688
 Frc consts  --      0.0145                 0.0363                 0.0274
 IR Inten    --      0.1367                 0.2342                 0.4341

                      7                      8                      9
                      A                      A                      A
 Frequencies --    186.1853               192.7076               214.7110
 Red. masses --      1.5849                 1.5132                 1.6171
 Frc consts  --      0.0324                 0.0331                 0.0439
 IR Inten    --      0.2015                 0.1646                 0.2766

                     10                     11                     12
                      A                      A                      A
 Frequencies --    220.5387               235.4273               245.8980
 Red. masses --      1.5298                 1.1095                 1.1667
 Frc consts  --      0.0438                 0.0362                 0.0416
 IR Inten    --      0.1291                 0.0757                 0.0601

                     13                     14                     15
                      A                      A                      A
 Frequencies --    264.9528               271.0150               276.8850
 Red. masses --      1.5089                 1.9472                 2.1456
 Frc consts  --      0.0624                 0.0843                 0.0969
 IR Inten    --      0.1126                 0.3258                 0.1040

                     16                     17                     18
                      A                      A                      A
 Frequencies --    289.8075               316.1649               335.2881
 Red. masses --      1.5036                 2.2015                 2.9036
 Frc consts  --      0.0744                 0.1297                 0.1923
 IR Inten    --      0.3399                 0.0750                 0.4250

                     19                     20                     21
                      A                      A                      A
 Frequencies --    366.3310               382.6943               404.7949
 Red. masses --      3.2013                 2.5541                 3.1649
 Frc consts  --      0.2531                 0.2204                 0.3055
 IR Inten    --      3.5077                 0.4827                 1.0364

                     22                     23                     24
                      A                      A                      A
 Frequencies --    432.9874               471.5962               500.6282
 Red. masses --      2.7173                 3.1287                 3.2978
 Frc consts  --      0.3002                 0.4100                 0.4870
 IR Inten    --      0.8592                 0.3671                 0.0492

                     25                     26                     27
                      A                      A                      A
 Frequencies --    542.1112               557.4684               580.1313
 Red. masses --      3.1719                 2.7731                 3.5027
 Frc consts  --      0.5492                 0.5078                 0.6946
 IR Inten    --      0.7695                 0.8403                 0.4385

                     28                     29                     30
                      A                      A                      A
 Frequencies --    638.6543               675.1770               712.8180
 Red. masses --      4.0551                 2.7614                 3.2376
 Frc consts  --      0.9745                 0.7417                 0.9692
 IR Inten    --      0.5214                 0.5966                 0.2839

                     31                     32                     33
                      A                      A                      A
 Frequencies --    774.0829               806.0590               812.4244
 Red. masses --      3.8167                 2.0663                 1.7023
 Frc consts  --      1.3474                 0.7910                 0.6620
 IR Inten    --      0.7343                 3.4211                 1.0485

                     34                     35                     36
                      A                      A                      A
 Frequencies --    833.1167               866.2572               910.4841
 Red. masses --      1.3494                 2.3793                 2.5595
 Frc consts  --      0.5518                 1.0519                 1.2501
 IR Inten    --     14.6800                 0.4663                 0.7088

                     37                     38                     39
                      A                      A                      A
 Frequencies --    942.0601               949.3826               958.2758
 Red. masses --      1.2060                 1.3382                 2.1245
 Frc consts  --      0.6306                 0.7106                 1.1494
 IR Inten    --      0.7216                 0.3123                 0.7500

                     40                     41                     42
                      A                      A                      A
 Frequencies --    970.5379               980.6620              1013.3672
 Red. masses --      2.1382                 1.4415                 1.5206
 Frc consts  --      1.1866                 0.8168                 0.9200
 IR Inten    --      1.7067                 0.1005                 1.4649

                     43                     44                     45
                      A                      A                      A
 Frequencies --   1034.6887              1045.9884              1054.3095
 Red. masses --      1.4512                 1.5488                 1.5667
 Frc consts  --      0.9154                 0.9984                 1.0261
 IR Inten    --     12.3323                14.9348                 6.4763

                     46                     47                     48
                      A                      A                      A
 Frequencies --   1063.5916              1072.0794              1110.6149
 Red. masses --      1.5245                 1.5009                 1.6404
 Frc consts  --      1.0160                 1.0164                 1.1921
 IR Inten    --      3.3711                 1.6553                 3.0644

                     49                     50                     51
                      A                      A                      A
 Frequencies --   1126.0170              1141.9564              1159.2916
 Red. masses --      1.9632                 2.6003                 2.1643
 Frc consts  --      1.4665                 1.9979                 1.7137
 IR Inten    --      2.5033                 2.6334                 0.0573

                     52                     53                     54
                      A                      A                      A
 Frequencies --   1168.2862              1188.2226              1224.3189
 Red. masses --      2.1191                 1.7965                 1.4241
 Frc consts  --      1.7041                 1.4944                 1.2577
 IR Inten    --      1.4062                 8.2319                 1.8784

                     55                     56                     57
                      A                      A                      A
 Frequencies --   1241.1647              1277.1990              1291.8352
 Red. masses --      2.9190                 3.2578                 1.9313
 Frc consts  --      2.6494                 3.1311                 1.8990
 IR Inten    --      4.8641                 0.5348                 0.1757

                     58                     59                     60
                      A                      A                      A
 Frequencies --   1308.4530              1322.9146              1355.7210
 Red. masses --      1.6845                 2.2873                 1.4325
 Frc consts  --      1.6992                 2.3585                 1.5513
 IR Inten    --      1.8194                 1.1631                 0.0625

                     61                     62                     63
                      A                      A                      A
 Frequencies --   1367.1520              1373.1360              1403.4639
 Red. masses --      1.3826                 1.4646                 1.3300
 Frc consts  --      1.5226                 1.6271                 1.5435
 IR Inten    --      9.1573                 4.8982                 9.5329

                     64                     65                     66
                      A                      A                      A
 Frequencies --   1419.9615              1426.7706              1436.7859
 Red. masses --      1.3658                 1.2552                 1.2473
 Frc consts  --      1.6225                 1.5055                 1.5171
 IR Inten    --      1.2039                 3.3820                 3.7472

                     67                     68                     69
                      A                      A                      A
 Frequencies --   1443.1449              1444.1710              1447.8282
 Red. masses --      1.3625                 1.2811                 1.2358
 Frc consts  --      1.6718                 1.5742                 1.5263
 IR Inten    --      2.7123                 0.4349                 3.8532

                     70                     71                     72
                      A                      A                      A
 Frequencies --   1453.4180              1459.7000              1505.1319
 Red. masses --      1.2792                 1.9323                 1.7532
 Frc consts  --      1.5921                 2.4258                 2.3401
 IR Inten    --      0.6484                 5.1060                 3.6044

                     73                     74                     75
                      A                      A                      A
 Frequencies --   1516.2840              1518.9266              1522.4542
 Red. masses --      1.0972                 1.0531                 1.0617
 Frc consts  --      1.4863                 1.4315                 1.4499
 IR Inten    --      8.8609                 1.8622                 5.8989

                     76                     77                     78
                      A                      A                      A
 Frequencies --   1524.0560              1524.7681              1528.2535
 Red. masses --      1.0653                 1.0604                 1.0688
 Frc consts  --      1.4579                 1.4526                 1.4707
 IR Inten    --      4.6071                 4.1623                 0.6106

                     79                     80                     81
                      A                      A                      A
 Frequencies --   1532.8571              1533.7418              1537.3545
 Red. masses --      1.0768                 1.0887                 1.0498
 Frc consts  --      1.4906                 1.5089                 1.4619
 IR Inten    --     10.2466                 1.6048                10.1666

                     82                     83                     84
                      A                      A                      A
 Frequencies --   1540.2397              1547.2216              1551.2917
 Red. masses --      1.1875                 1.0604                 1.0556
 Frc consts  --      1.6598                 1.4957                 1.4968
 IR Inten    --      9.1611                 3.5452                 1.4760

                     85                     86                     87
                      A                      A                      A
 Frequencies --   1555.0593              1632.8460              1656.1622
 Red. masses --      1.0772                 4.9394                 6.1983
 Frc consts  --      1.5348                 7.7592                10.0167
 IR Inten    --      8.5557                 2.8259                 1.3395

                     88                     89                     90
                      A                      A                      A
 Frequencies --   3025.3372              3040.4810              3044.9254
 Red. masses --      1.0778                 1.0390                 1.0680
 Frc consts  --      5.8119                 5.6593                 5.8339
 IR Inten    --     10.3827                36.1056                47.5059

                     91                     92                     93
                      A                      A                      A
 Frequencies --   3047.6255              3053.0502              3054.0413
 Red. masses --      1.0370                 1.0405                 1.0409
 Frc consts  --      5.6746                 5.7140                 5.7201
 IR Inten    --     33.3205                23.2970                29.5788

                     94                     95                     96
                      A                      A                      A
 Frequencies --   3058.3726              3063.3745              3074.6642
 Red. masses --      1.0381                 1.0521                 1.1000
 Frc consts  --      5.7210                 5.8173                 6.1269
 IR Inten    --     36.3499                31.0603                21.2640

                     97                     98                     99
                      A                      A                      A
 Frequencies --   3091.5903              3094.4541              3110.4515
 Red. masses --      1.0992                 1.0839                 1.1011
 Frc consts  --      6.1902                 6.1153                 6.2765
 IR Inten    --     21.2999                 2.3439                12.5336

                    100                    101                    102
                      A                      A                      A
 Frequencies --   3113.4823              3117.6352              3121.1335
 Red. masses --      1.1010                 1.1011                 1.0982
 Frc consts  --      6.2883                 6.3056                 6.3029
 IR Inten    --     55.7052                27.1798                38.9061

                    103                    104                    105
                      A                      A                      A
 Frequencies --   3121.4012              3128.3489              3130.0746
 Red. masses --      1.0998                 1.0984                 1.1017
 Frc consts  --      6.3134                 6.3337                 6.3597
 IR Inten    --     31.2175                28.5100                50.9225

                    106                    107                    108
                      A                      A                      A
 Frequencies --   3135.0784              3148.3428              3153.4605
 Red. masses --      1.0874                 1.0990                 1.0976
 Frc consts  --      6.2970                 6.4179                 6.4308
 IR Inten    --     37.6131                27.4754                32.1427

                    109                    110                    111
                      A                      A                      A
 Frequencies --   3175.6332              3177.2276              3239.8540
 Red. masses --      1.0956                 1.0894                 1.0899
 Frc consts  --      6.5099                 6.4797                 6.7403
 IR Inten    --     18.5092                23.7792                14.9377

 - Thermochemistry -
 -------------------
 Temperature   298.150 Kelvin.  Pressure   1.00000 Atm.
 Atom     1 has atomic number  6 and mass  12.00000

 Molecular mass:   204.18780 amu.
 Principal axes and moments of inertia in atomic units:
                           1         2         3
     Eigenvalues --  1812.350934797.063665961.15314
           X            0.99999   0.00336   0.00303
           Y           -0.00336   0.99999  -0.00140
           Z           -0.00304   0.00139   0.99999
 This molecule is an asymmetric top.
 Rotational symmetry number  1.
 Warning -- assumption of classical behavior for rotation
           may cause significant error
 Rotational temperatures (Kelvin)      0.04779     0.01806     0.01453
 Rotational constants (GHZ):           0.99580     0.37622     0.30275
 Zero-point vibrational energy     938248.2 (Joules/Mol)
                                  224.24671 (Kcal/Mol)
 Warning -- explicit consideration of  27 degrees of freedom as
           vibrations may cause significant error
 Vibrational temperatures:     65.36   103.38   122.59   133.16   214.77
          (Kelvin)            256.08   267.88   277.26   308.92   317.31
                              338.73   353.79   381.21   389.93   398.38
                              416.97   454.89   482.40   527.07   550.61
                              582.41   622.97   678.52   720.29   779.98
                              802.07   834.68   918.88   971.43  1025.59
                             1113.73  1159.74  1168.90  1198.67  1246.35
                             1309.98  1355.41  1365.95  1378.75  1396.39
                             1410.95  1458.01  1488.69  1504.94  1516.92
                             1530.27  1542.48  1597.93  1620.09  1643.02
                             1667.96  1680.90  1709.59  1761.52  1785.76
                             1837.60  1858.66  1882.57  1903.38  1950.58
                             1967.03  1975.64  2019.27  2043.01  2052.80
                             2067.21  2076.36  2077.84  2083.10  2091.14
                             2100.18  2165.55  2181.59  2185.40  2190.47
                             2192.78  2193.80  2198.82  2205.44  2206.71
                             2211.91  2216.06  2226.11  2231.96  2237.38
                             2349.30  2382.85  4352.79  4374.57  4380.97
                             4384.85  4392.66  4394.08  4400.32  4407.51
                             4423.76  4448.11  4452.23  4475.25  4479.61
                             4485.58  4490.61  4491.00  4501.00  4503.48
                             4510.68  4529.76  4537.13  4569.03  4571.32
                             4661.43

 Zero-point correction=                           0.357360 (Hartree/Particle)
 Thermal correction to Energy=                    0.374198
 Thermal correction to Enthalpy=                  0.375142
 Thermal correction to Gibbs Free Energy=         0.314623
 Sum of electronic and zero-point Energies=           -585.780415
 Sum of electronic and thermal Energies=              -585.763577
 Sum of electronic and thermal Enthalpies=            -585.762633
 Sum of electronic and thermal Free Energies=         -585.823152

                     E (Thermal)             CV                S
                      KCal/Mol        Cal/Mol-Kelvin    Cal/Mol-Kelvin
 Total                  234.813             65.390            127.373
 Electronic               0.000              0.000              0.000
 Translational            0.889              2.981             41.846
 Rotational               0.889              2.981             32.316
 Vibrational            233.035             59.428             53.211
 Vibration     1          0.595              1.979              5.007
 Vibration     2          0.598              1.967              4.102
 Vibration     3          0.601              1.959              3.767
 Vibration     4          0.602              1.954              3.605
 Vibration     5          0.618              1.903              2.681
 Vibration     6          0.628              1.869              2.349
 Vibration     7          0.632              1.859              2.265
 Vibration     8          0.635              1.850              2.202
 Vibration     9          0.645              1.819              2.003
 Vibration    10          0.647              1.810              1.955
 Vibration    11          0.655              1.787              1.837
 Vibration    12          0.660              1.770              1.760
 Vibration    13          0.671              1.737              1.629
 Vibration    14          0.675              1.727              1.590
 Vibration    15          0.678              1.716              1.553
 Vibration    16          0.686              1.693              1.475
 Vibration    17          0.703              1.643              1.330
 Vibration    18          0.716              1.605              1.234
 Vibration    19          0.739              1.542              1.095
 Vibration    20          0.752              1.507              1.028
 Vibration    21          0.770              1.460              0.945
 Vibration    22          0.794              1.398              0.849
 Vibration    23          0.829              1.313              0.733
 Vibration    24          0.856              1.249              0.657
 Vibration    25          0.897              1.157              0.561
 Vibration    26          0.913              1.123              0.529
 Vibration    27          0.937              1.074              0.485

                           ! Non-Optimized Parameters !
 Normal termination of Gaussian 16 at Thu Dec 10 15:59:11 2020.

 ----------------------------------------------------------------------
 # B3LYP/6-311++G(d,p) empiricaldispersion=gd3bj scf=xqc pop=npa geom=c
 heck
 ----------------------------------------------------------------------

 ---------------------------------------
 CID_147459830_JID_5361_Energie_neutraal
 ---------------------------------------
 Structure from the checkpoint file:  "JID_5361.chk"
 Charge =  0 Multiplicity = 1

 SCF Done:  E(RB3LYP) =  -586.290851428     A.U. after   14 cycles
 Normal termination of Gaussian 16 at Thu Dec 10 16:08:01 2020.

 ----------------------------------------------------------------------
 # B3LYP/6-311++G(d,p) empiricaldispersion=gd3bj scf=xqc pop=npa geom=c
 heck
 ----------------------------------------------------------------------

 -------------------------------------
 CID_147459830_JID_5361_Energie_kation
 -------------------------------------
 Structure from the checkpoint file:  "JID_5361.chk"
 Charge =  1 Multiplicity = 2

 SCF Done:  E(UB3LYP) =  -585.999964113     A.U. after   23 cycles
 Normal termination of Gaussian 16 at Thu Dec 10 16:28:40 2020.
 Gaussian 16:  ES64L-G16RevA.03 25-Dec-2016

 ----------------------------------------------------------------------
 # B3LYP/6-311++G(d,p) empiricaldispersion=gd3bj scf=xqc pop=npa geom=c
 heck
 ----------------------------------------------------------------------

 ------------------------------------
 CID_147459830_JID_5361_Energie_anion
 ------------------------------------
 Structure from the checkpoint file:  "JID_5361.chk"
 Charge = -1 Multiplicity = 2

                         Standard orientation:
 ---------------------------------------------------------------------
 Center     Atomic      Atomic             Coordinates (Angstroms)
 Number     Number       Type             X           Y           Z
 ---------------------------------------------------------------------
      1          6           0        4.361013    0.743635    0.298734
      2          6           0        3.565929    0.024761   -0.801149
      3          6           0        2.316449   -0.775565   -0.354882
      4          6           0        2.611544   -1.584885    0.923603
      5          6           0        1.032719    0.043524   -0.203351
      6          6           0       -0.241501   -0.580476   -0.165294
      7          6           0       -1.411624    0.189370    0.038385
      8          6           0       -1.311428    1.595858    0.148245
      9          6           0       -0.055572    2.194138    0.071817
     10          6           0        1.093713    1.433664   -0.092842
     11          6           0       -2.516461    2.494265    0.333539
     12          6           0       -2.817114   -0.417601    0.125815
     13          6           0       -3.405833   -0.736233   -1.262457
     14          6           0       -2.991122   -1.586661    1.114772
     15          6           0       -0.339369   -2.080712   -0.366903
     16          1           0        3.741307    1.412960    0.903106
     17          1           0        5.164445    1.342475   -0.144840
     18          1           0        4.826608    0.027881    0.983808
     19          1           0        3.271823    0.739561   -1.579130
     20          1           0        4.246921   -0.684322   -1.289754
     21          1           0        2.143489   -1.499380   -1.161436
     22          1           0        1.798460   -2.274146    1.162501
     23          1           0        3.528928   -2.174748    0.807380
     24          1           0        2.741229   -0.919078    1.782582
     25          1           0        0.024807    3.275960    0.145737
     26          1           0        2.046733    1.943594   -0.148904
     27          1           0       -3.264814    2.359489   -0.456326
     28          1           0       -3.023959    2.320327    1.290822
     29          1           0       -2.208550    3.544089    0.316038
     30          1           0       -3.453037    0.371344    0.533003
     31          1           0       -2.854192   -1.528143   -1.778367
     32          1           0       -4.448482   -1.063624   -1.169743
     33          1           0       -3.382841    0.150673   -1.904974
     34          1           0       -2.468913   -1.382943    2.056042
     35          1           0       -4.056351   -1.712814    1.341898
     36          1           0       -2.629845   -2.541689    0.728995
     37          1           0       -0.350623   -2.626001    0.583940
     38          1           0       -1.244188   -2.358238   -0.906222
     39          1           0        0.502992   -2.465719   -0.944341
 ---------------------------------------------------------------------

 SCF Done:  E(UB3LYP) =  -586.275751873     A.U. after   33 cycles
 SCF Done:  E(UB3LYP) =  -586.275751873     a.u. after    1 cycles

 The electronic state is 2-A.
 Alpha  occ. eigenvalues --  -10.08269 -10.08124 -10.08083 -10.07928 -10.07830
 Alpha  occ. eigenvalues --  -10.07711 -10.07138 -10.07113 -10.06720 -10.06610
 Alpha  occ. eigenvalues --  -10.06478 -10.06445 -10.06371 -10.06108 -10.06052
 Alpha  occ. eigenvalues --   -0.76800  -0.72121  -0.69790  -0.67701  -0.64596
 Alpha  occ. eigenvalues --   -0.62909  -0.59529  -0.58928  -0.58300  -0.54791
 Alpha  occ. eigenvalues --   -0.51645  -0.48874  -0.46605  -0.44158  -0.40265
 Alpha  occ. eigenvalues --   -0.38554  -0.36309  -0.35418  -0.34739  -0.33678
 Alpha  occ. eigenvalues --   -0.33442  -0.32510  -0.32010  -0.31446  -0.31172
 Alpha  occ. eigenvalues --   -0.30646  -0.29891  -0.28750  -0.28260  -0.28002
 Alpha  occ. eigenvalues --   -0.27398  -0.27314  -0.25773  -0.25222  -0.24265
 Alpha  occ. eigenvalues --   -0.23651  -0.23240  -0.22985  -0.21639  -0.20749
 Alpha  occ. eigenvalues --   -0.14039  -0.13437   0.04249
 Alpha virt. eigenvalues --    0.05767   0.06677   0.07417   0.07651   0.08116
 Alpha virt. eigenvalues --    0.08329   0.08729   0.09184   0.09518   0.09788
 Alpha virt. eigenvalues --    0.10307   0.10645   0.11299   0.11480   0.11551

  Beta  occ. eigenvalues --  -10.08265 -10.08118 -10.08076 -10.07921 -10.07830
  Beta  occ. eigenvalues --  -10.07708 -10.07114 -10.07098 -10.06714 -10.06603
  Beta  occ. eigenvalues --  -10.06457 -10.06421 -10.06343 -10.06083 -10.06025
  Beta  occ. eigenvalues --   -0.76786  -0.72098  -0.69767  -0.67675  -0.64569
  Beta  occ. eigenvalues --   -0.62874  -0.59493  -0.58877  -0.58261  -0.54742
  Beta  occ. eigenvalues --   -0.51607  -0.48829  -0.46570  -0.44127  -0.40238
  Beta  occ. eigenvalues --   -0.38529  -0.36273  -0.35395  -0.34706  -0.33647
  Beta  occ. eigenvalues --   -0.33409  -0.32481  -0.31983  -0.31420  -0.31143
  Beta  occ. eigenvalues --   -0.30614  -0.29861  -0.28722  -0.28231  -0.27971
  Beta  occ. eigenvalues --   -0.27375  -0.27284  -0.25744  -0.25193  -0.24237
  Beta  occ. eigenvalues --   -0.23623  -0.23207  -0.22956  -0.21617  -0.20727
  Beta  occ. eigenvalues --   -0.14022  -0.13404
  Beta virt. eigenvalues --    0.06156   0.06680   0.07150   0.07734   0.08166
  Beta virt. eigenvalues --    0.08513   0.08663   0.08856   0.09360   0.09885
  Beta virt. eigenvalues --    0.10089   0.10659   0.10990   0.11584   0.11714

 Mulliken charges and spin densities:
               1          2
     1  C    0.232593  -0.792726
     2  C   -0.437805   0.111515
     3  C   -1.728696   1.946680
     4  C    0.431838  -1.189791
     5  C    1.572536  -0.555007
     6  C   -0.222884   0.289787
     7  C    1.318362  -1.106271
     8  C   -0.855493   1.471814
     9  C   -0.413086  -0.612044
    10  C   -0.259418  -0.332587
    11  C    1.804414  -2.349558
    12  C   -2.174230   2.286760
    13  C    0.607187  -1.341870
    14  C    0.313652  -1.019537
    15  C    0.555769  -1.108364
    16  H   -0.060238   0.190316
    17  H   -0.204966   0.342516
    18  H   -0.021094   0.172797
    19  H   -0.075260   0.219415
    20  H   -0.373287   0.552492
    21  H    0.045363   0.103528
    22  H    0.026280   0.101328
    23  H   -0.307697   0.447257
    24  H    0.004203   0.147180
    25  H   -0.174368   0.310666
    26  H    0.295433  -0.202967
    27  H   -0.146082   0.317977
    28  H   -0.059992   0.229320
    29  H   -0.035327   0.172123
    30  H    0.020900   0.170200
    31  H    0.025041   0.103275
    32  H   -0.322898   0.468720
    33  H   -0.051102   0.186215
    34  H   -0.058828   0.206940
    35  H   -0.239947   0.389835
    36  H   -0.036751   0.180351
    37  H    0.016903   0.179065
    38  H    0.044316   0.082350
    39  H   -0.055341   0.230300
 Sum of Mulliken charges =  -1.00000   1.00000

 Dipole moment (field-independent basis, Debye):
    X=              0.2194    Y=              1.6098    Z=              0.1971  Tot=              1.6366
 Quadrupole moment (field-independent basis, Debye-Ang):
   XX=           -194.1129   YY=           -142.7911   ZZ=           -129.9805
   XY=              3.8659   XZ=              1.5664   YZ=              1.6610

 Summary of Natural Population Analysis:

                                       Natural Population
                Natural  -----------------------------------------------
    Atom  No    Charge         Core      Valence    Rydberg      Total
 -----------------------------------------------------------------------
      C    1   -0.29080      0.99966     2.28579    0.00535     3.29080
      C    2   -0.18974      0.99963     2.18084    0.00926     3.18974
      C    3   -0.11743      0.99957     2.10746    0.01040     3.11743
      C    4   -0.28332      0.99964     2.27761    0.00606     3.28332
      C    5   -0.00848      0.99947     1.99911    0.00990     3.00848
      C    6   -0.00790      0.99945     1.99953    0.00892     3.00790
      C    7   -0.00665      0.99943     1.99635    0.01087     3.00665
      C    8   -0.01513      0.99947     2.00572    0.00994     3.01513
      C    9   -0.09863      0.99951     2.09064    0.00848     3.09863
      C   10   -0.10198      0.99951     2.09481    0.00766     3.10198
      C   11   -0.29645      0.99964     2.29133    0.00548     3.29645
      C   12   -0.12471      0.99958     2.11467    0.01045     3.12471
      C   13   -0.27857      0.99964     2.27316    0.00577     3.27857
      C   14   -0.28182      0.99965     2.27640    0.00578     3.28182
      C   15   -0.29884      0.99963     2.29332    0.00589     3.29884
      H   16    0.09579      0.00000     0.40306    0.00115     0.40421
      H   17    0.09895      0.00000     0.40018    0.00087     0.40105
      H   18    0.09894      0.00000     0.40010    0.00095     0.40106
      H   19    0.09794      0.00000     0.40077    0.00129     0.40206
      H   20    0.09890      0.00000     0.39987    0.00122     0.40110
      H   21    0.10019      0.00000     0.39788    0.00193     0.39981
      H   22    0.10217      0.00000     0.39680    0.00102     0.39783
      H   23    0.09860      0.00000     0.40032    0.00107     0.40140
      H   24    0.09832      0.00000     0.40066    0.00102     0.40168
      H   25    0.09528      0.00000     0.40353    0.00118     0.40472
      H   26    0.09942      0.00000     0.39912    0.00146     0.40058
      H   27    0.10489      0.00000     0.39397    0.00114     0.39511
      H   28    0.10342      0.00000     0.39542    0.00116     0.39658
      H   29    0.10137      0.00000     0.39769    0.00094     0.39863
      H   30    0.10163      0.00000     0.39593    0.00244     0.39837
      H   31    0.09515      0.00000     0.40391    0.00093     0.40485
      H   32    0.09861      0.00000     0.40037    0.00103     0.40139
      H   33    0.10055      0.00000     0.39846    0.00099     0.39945
      H   34    0.10126      0.00000     0.39774    0.00100     0.39874
      H   35    0.09892      0.00000     0.40013    0.00095     0.40108
      H   36    0.09745      0.00000     0.40148    0.00107     0.40255
      H   37    0.10561      0.00000     0.39330    0.00109     0.39439
      H   38    0.10360      0.00000     0.39536    0.00105     0.39640
      H   39    0.10351      0.00000     0.39535    0.00114     0.39649
 =======================================================================
   * Total *    0.00000     14.99347    41.85817    0.14836    57.00000

 Normal termination of Gaussian 16 at Thu Dec 10 16:54:44 2020.
