 Gaussian 16, Revision A.03,

 -----------------------------------------------------------
 # opt freq B3LYP/6-31G(d) empiricaldispersion=gd3bj scf=xqc
 -----------------------------------------------------------

 ------------------------------
 CID_80394219_JID_5128_neutraal
 ------------------------------
 Symbolic Z-matrix:
 Charge =  0 Multiplicity = 1

 SCF Done:  E(RB3LYP) =  -642.879436099     A.U. after   13 cycles
 SCF Done:  E(RB3LYP) =  -642.879681374     A.U. after   11 cycles
 SCF Done:  E(RB3LYP) =  -642.882118655     A.U. after   11 cycles
 SCF Done:  E(RB3LYP) =  -642.882375362     A.U. after   11 cycles
 SCF Done:  E(RB3LYP) =  -642.882973417     A.U. after   11 cycles
 SCF Done:  E(RB3LYP) =  -642.883597574     A.U. after   10 cycles
 SCF Done:  E(RB3LYP) =  -642.883669021     A.U. after   10 cycles
 SCF Done:  E(RB3LYP) =  -642.884082791     A.U. after    9 cycles
 SCF Done:  E(RB3LYP) =  -642.884124667     A.U. after   10 cycles
 SCF Done:  E(RB3LYP) =  -642.884147282     A.U. after    9 cycles
 SCF Done:  E(RB3LYP) =  -642.884173290     A.U. after    9 cycles
 SCF Done:  E(RB3LYP) =  -642.884177972     A.U. after    9 cycles
 SCF Done:  E(RB3LYP) =  -642.884178804     A.U. after    8 cycles
 SCF Done:  E(RB3LYP) =  -642.884178995     A.U. after    7 cycles
 SCF Done:  E(RB3LYP) =  -642.884179044     A.U. after    6 cycles
 SCF Done:  E(RB3LYP) =  -642.884179058     A.U. after    6 cycles
 Optimization completed.
    -- Stationary point found.
 Normal termination of Gaussian 16 at Thu Dec 10 14:54:04 2020.

 --------------------------------------------------------------------
 #N Geom=AllCheck Guess=TCheck SCRF=Check GenChk RB3LYP/6-31G(d) Freq
 --------------------------------------------------------------------

 Structure from the checkpoint file:  "JID_5128.chk"
 ------------------------------
 CID_80394219_JID_5128_neutraal
 ------------------------------
 Charge =  0 Multiplicity = 1

 SCF Done:  E(RB3LYP) =  -642.884179058     A.U. after    1 cycles

  Exact polarizability: 171.237   1.419 145.875  -1.217   1.335 132.177
 Approx polarizability: 200.939   4.770 204.796   1.916   0.454 200.368

                      1                      2                      3
                      A                      A                      A
 Frequencies --     15.7966                33.0773                43.7926
 Red. masses --      3.3598                 3.1154                 3.0951
 Frc consts  --      0.0005                 0.0020                 0.0035
 IR Inten    --      0.1575                 0.1518                 0.0244

                      4                      5                      6
                      A                      A                      A
 Frequencies --     67.8810                92.8305               131.5168
 Red. masses --      3.2770                 2.8594                 2.8305
 Frc consts  --      0.0089                 0.0145                 0.0288
 IR Inten    --      0.0153                 0.3827                 1.6336

                      7                      8                      9
                      A                      A                      A
 Frequencies --    142.4279               154.9825               200.2455
 Red. masses --      2.8514                 2.9420                 1.2619
 Frc consts  --      0.0341                 0.0416                 0.0298
 IR Inten    --      3.1734                 1.9844                 1.0665

                     10                     11                     12
                      A                      A                      A
 Frequencies --    207.9618               215.6871               238.3784
 Red. masses --      2.1031                 2.2186                 1.0707
 Frc consts  --      0.0536                 0.0608                 0.0358
 IR Inten    --      1.9534                 0.1582                 0.4568

                     13                     14                     15
                      A                      A                      A
 Frequencies --    245.9794               252.5552               268.3630
 Red. masses --      1.0605                 2.4832                 1.5403
 Frc consts  --      0.0378                 0.0933                 0.0654
 IR Inten    --      0.3502                 1.0146                 0.2416

                     16                     17                     18
                      A                      A                      A
 Frequencies --    288.8104               300.7487               307.6766
 Red. masses --      1.4445                 1.1131                 1.5354
 Frc consts  --      0.0710                 0.0593                 0.0856
 IR Inten    --      2.0244                 0.9130                 1.2546

                     19                     20                     21
                      A                      A                      A
 Frequencies --    330.9590               339.7373               355.1690
 Red. masses --      1.8639                 2.0368                 1.9340
 Frc consts  --      0.1203                 0.1385                 0.1437
 IR Inten    --      0.1177                 0.1125                 1.1904

                     22                     23                     24
                      A                      A                      A
 Frequencies --    374.1382               386.5106               391.0135
 Red. masses --      2.1645                 2.3593                 2.3591
 Frc consts  --      0.1785                 0.2077                 0.2125
 IR Inten    --      3.0437                 0.9366                 0.3418

                     25                     26                     27
                      A                      A                      A
 Frequencies --    413.2914               421.3905               430.6607
 Red. masses --      2.2137                 2.0240                 2.4001
 Frc consts  --      0.2228                 0.2118                 0.2623
 IR Inten    --      1.1271                 0.2037                 1.5835

                     28                     29                     30
                      A                      A                      A
 Frequencies --    476.5392               514.2166               558.3093
 Red. masses --      2.8816                 2.3523                 2.2588
 Frc consts  --      0.3855                 0.3665                 0.4148
 IR Inten    --      3.1436                 5.0893                24.7459

                     31                     32                     33
                      A                      A                      A
 Frequencies --    563.1502               717.8452               760.6048
 Red. masses --      2.8722                 2.9450                 2.1632
 Frc consts  --      0.5367                 0.8941                 0.7373
 IR Inten    --      3.3508                 1.2957                31.2206

                     34                     35                     36
                      A                      A                      A
 Frequencies --    779.7551               832.5373               864.6162
 Red. masses --      1.9054                 1.9720                 2.2928
 Frc consts  --      0.6826                 0.8053                 1.0098
 IR Inten    --     26.5681                 9.0662                 0.2335

                     37                     38                     39
                      A                      A                      A
 Frequencies --    895.2843               908.9670               922.8556
 Red. masses --      2.1623                 1.8648                 1.9098
 Frc consts  --      1.0212                 0.9078                 0.9583
 IR Inten    --      7.9892                 6.4608                 6.1421

                     40                     41                     42
                      A                      A                      A
 Frequencies --    943.9274               947.3964               950.6703
 Red. masses --      1.6090                 1.3655                 1.7207
 Frc consts  --      0.8447                 0.7221                 0.9163
 IR Inten    --      4.4199                 4.3144                 0.7236

                     43                     44                     45
                      A                      A                      A
 Frequencies --    954.3946               973.4900               980.8377
 Red. masses --      1.6952                 1.2123                 1.4206
 Frc consts  --      0.9098                 0.6769                 0.8052
 IR Inten    --      8.8033                 0.2182                 1.8833

                     46                     47                     48
                      A                      A                      A
 Frequencies --   1003.6670              1006.9046              1015.4533
 Red. masses --      1.6120                 1.4158                 1.4510
 Frc consts  --      0.9568                 0.8458                 0.8815
 IR Inten    --      8.1395                 5.2999                 7.2948

                     49                     50                     51
                      A                      A                      A
 Frequencies --   1062.8537              1067.5019              1078.6801
 Red. masses --      2.0701                 1.7045                 1.9425
 Frc consts  --      1.3778                 1.1444                 1.3316
 IR Inten    --      5.5486                 5.3901                 3.9336

                     52                     53                     54
                      A                      A                      A
 Frequencies --   1095.9335              1119.7597              1147.1802
 Red. masses --      1.8303                 2.6875                 1.7930
 Frc consts  --      1.2952                 1.9854                 1.3903
 IR Inten    --      4.5474                61.9678                 4.3085

                     55                     56                     57
                      A                      A                      A
 Frequencies --   1155.9986              1172.1758              1183.3028
 Red. masses --      2.1935                 2.9465                 3.0652
 Frc consts  --      1.7271                 2.3853                 2.5287
 IR Inten    --     68.4027                29.1946                81.5440

                     58                     59                     60
                      A                      A                      A
 Frequencies --   1206.8488              1217.8337              1234.1389
 Red. masses --      1.8324                 1.9245                 1.9108
 Frc consts  --      1.5724                 1.6817                 1.7148
 IR Inten    --      6.7431                 3.2728                11.0633

                     61                     62                     63
                      A                      A                      A
 Frequencies --   1248.7829              1272.0372              1287.6058
 Red. masses --      2.1228                 1.3004                 2.1762
 Frc consts  --      1.9504                 1.2398                 2.1258
 IR Inten    --      4.2519                25.1884                 8.6223

                     64                     65                     66
                      A                      A                      A
 Frequencies --   1315.0972              1335.5738              1347.9397
 Red. masses --      1.5127                 1.3884                 1.3549
 Frc consts  --      1.5414                 1.4592                 1.4505
 IR Inten    --      2.0973                 4.5808                 4.6766

                     67                     68                     69
                      A                      A                      A
 Frequencies --   1365.3644              1371.8808              1396.4086
 Red. masses --      1.2530                 1.2040                 1.3243
 Frc consts  --      1.3762                 1.3351                 1.5214
 IR Inten    --      5.7051                 6.2444                 1.5681

                     70                     71                     72
                      A                      A                      A
 Frequencies --   1403.4883              1415.1049              1419.1691
 Red. masses --      1.3074                 1.3348                 1.2656
 Frc consts  --      1.5173                 1.5748                 1.5018
 IR Inten    --      2.1503                 2.2925                 8.0370

                     73                     74                     75
                      A                      A                      A
 Frequencies --   1423.0341              1425.5030              1428.1308
 Red. masses --      1.2584                 1.2778                 1.2958
 Frc consts  --      1.5014                 1.5299                 1.5571
 IR Inten    --     17.8616                 9.9699                16.5429

                     76                     77                     78
                      A                      A                      A
 Frequencies --   1430.7203              1440.4972              1442.6508
 Red. masses --      1.2636                 1.2680                 1.2557
 Frc consts  --      1.5240                 1.5502                 1.5398
 IR Inten    --      1.6560                 7.2478                 9.6745

                     79                     80                     81
                      A                      A                      A
 Frequencies --   1451.9518              1457.7575              1506.9399
 Red. masses --      1.2181                 1.2338                 1.1120
 Frc consts  --      1.5130                 1.5448                 1.4879
 IR Inten    --     12.9755                 8.6774                 1.4280

                     82                     83                     84
                      A                      A                      A
 Frequencies --   1508.3099              1512.2721              1516.0722
 Red. masses --      1.1022                 1.0547                 1.0612
 Frc consts  --      1.4774                 1.4212                 1.4371
 IR Inten    --      2.1936                 1.2251                 2.7284

                     85                     86                     87
                      A                      A                      A
 Frequencies --   1516.8300              1520.9450              1522.2352
 Red. masses --      1.0590                 1.0524                 1.0579
 Frc consts  --      1.4356                 1.4343                 1.4443
 IR Inten    --      2.0030                 0.8849                 0.1167

                     88                     89                     90
                      A                      A                      A
 Frequencies --   1524.0338              1528.1359              1531.5638
 Red. masses --      1.0499                 1.0696                 1.1378
 Frc consts  --      1.4368                 1.4716                 1.5725
 IR Inten    --      1.9240                 9.8471                 1.4936

                     91                     92                     93
                      A                      A                      A
 Frequencies --   1536.6422              1537.9351              1540.1573
 Red. masses --      1.0497                 1.0705                 1.0783
 Frc consts  --      1.4604                 1.4918                 1.5071
 IR Inten    --      3.5624                 6.2734                21.6516

                     94                     95                     96
                      A                      A                      A
 Frequencies --   1541.0507              1544.6213              1546.8621
 Red. masses --      1.0703                 1.0623                 1.0490
 Frc consts  --      1.4975                 1.4933                 1.4789
 IR Inten    --      2.2088                 7.3750                 4.2176

                     97                     98                     99
                      A                      A                      A
 Frequencies --   1558.3679              2919.3209              2924.0449
 Red. masses --      1.0604                 1.0751                 1.0736
 Frc consts  --      1.5172                 5.3985                 5.4083
 IR Inten    --      8.1701                65.2506               107.3124

                    100                    101                    102
                      A                      A                      A
 Frequencies --   3006.3277              3025.2250              3025.8358
 Red. masses --      1.0762                 1.0705                 1.0588
 Frc consts  --      5.7309                 5.7721                 5.7117
 IR Inten    --     20.7525                22.2572                35.5393

                    103                    104                    105
                      A                      A                      A
 Frequencies --   3031.4679              3033.2515              3037.4037
 Red. masses --      1.0830                 1.0361                 1.0384
 Frc consts  --      5.8638                 5.6167                 5.6447
 IR Inten    --     61.8230                33.4122                37.1063

                    106                    107                    108
                      A                      A                      A
 Frequencies --   3043.4067              3045.4924              3049.8703
 Red. masses --      1.0385                 1.0421                 1.0400
 Frc consts  --      5.6674                 5.6950                 5.6998
 IR Inten    --     21.4409                21.0032                51.2079

                    109                    110                    111
                      A                      A                      A
 Frequencies --   3057.0151              3063.0589              3075.9829
 Red. masses --      1.0990                 1.0359                 1.0961
 Frc consts  --      6.0513                 5.7263                 6.1103
 IR Inten    --      9.4297                20.8732                37.5331

                    112                    113                    114
                      A                      A                      A
 Frequencies --   3086.0242              3090.2990              3093.7388
 Red. masses --      1.0891                 1.0907                 1.0992
 Frc consts  --      6.1108                 6.1370                 6.1989
 IR Inten    --     35.1312                21.0464                20.0419

                    115                    116                    117
                      A                      A                      A
 Frequencies --   3098.2297              3101.2836              3103.2181
 Red. masses --      1.1015                 1.1015                 1.1013
 Frc consts  --      6.2296                 6.2418                 6.2486
 IR Inten    --      6.5329                68.0160                 1.3472

                    118                    119                    120
                      A                      A                      A
 Frequencies --   3106.5204              3109.9442              3121.5942
 Red. masses --      1.1012                 1.1005                 1.1007
 Frc consts  --      6.2613                 6.2714                 6.3196
 IR Inten    --     75.3024                73.7464                32.7077

                    121                    122                    123
                      A                      A                      A
 Frequencies --   3126.6069              3135.3805              3140.9987
 Red. masses --      1.1015                 1.1003                 1.0988
 Frc consts  --      6.3445                 6.3728                 6.3869
 IR Inten    --     47.8527                21.3133                30.8290

                    124                    125                    126
                      A                      A                      A
 Frequencies --   3150.2182              3180.1865              3473.4024
 Red. masses --      1.1029                 1.0939                 1.0739
 Frc consts  --      6.4487                 6.5181                 7.6332
 IR Inten    --      6.6607                 5.2517                 1.5872

 - Thermochemistry -
 -------------------
 Temperature   298.150 Kelvin.  Pressure   1.00000 Atm.
 Atom     1 has atomic number  6 and mass  12.00000

 Molecular mass:   215.22491 amu.
 Principal axes and moments of inertia in atomic units:
                           1         2         3
     Eigenvalues --  1715.691646962.220977411.24803
           X            0.99997   0.00174  -0.00729
           Y           -0.00164   0.99991   0.01347
           Z            0.00732  -0.01346   0.99988
 This molecule is an asymmetric top.
 Rotational symmetry number  1.
 Warning -- assumption of classical behavior for rotation
           may cause significant error
 Rotational temperatures (Kelvin)      0.05048     0.01244     0.01169
 Rotational constants (GHZ):           1.05190     0.25922     0.24351
 Zero-point vibrational energy    1083172.1 (Joules/Mol)
                                  258.88434 (Kcal/Mol)
 Warning -- explicit consideration of  31 degrees of freedom as
           vibrations may cause significant error
 Vibrational temperatures:     22.73    47.59    63.01    97.67   133.56
          (Kelvin)            189.22   204.92   222.99   288.11   299.21
                              310.33   342.97   353.91   363.37   386.11
                              415.53   432.71   442.68   476.18   488.81
                              511.01   538.30   556.10   562.58   594.63
                              606.29   619.62   685.63   739.84   803.28
                              810.25  1032.82  1094.34  1121.89  1197.84
                             1243.99  1288.11  1307.80  1327.78  1358.10
                             1363.09  1367.80  1373.16  1400.64  1411.21
                             1444.05  1448.71  1461.01  1529.21  1535.90
                             1551.98  1576.80  1611.08  1650.54  1663.22
                             1686.50  1702.51  1736.39  1752.19  1775.65
                             1796.72  1830.18  1852.58  1892.13  1921.59
                             1939.38  1964.45  1973.83  2009.12  2019.31
                             2036.02  2041.87  2047.43  2050.98  2054.76
                             2058.49  2072.55  2075.65  2089.03  2097.39
                             2168.15  2170.12  2175.82  2181.29  2182.38
                             2188.30  2190.16  2192.74  2198.65  2203.58
                             2210.89  2212.75  2215.94  2217.23  2222.37
                             2225.59  2242.14  4200.25  4207.05  4325.43
                             4352.62  4353.50  4361.61  4364.17  4370.15
                             4378.78  4381.78  4388.08  4398.36  4407.06
                             4425.65  4440.10  4446.25  4451.20  4457.66
                             4462.06  4464.84  4469.59  4474.52  4491.28
                             4498.49  4511.11  4519.20  4532.46  4575.58
                             4997.45

 Zero-point correction=                           0.412558 (Hartree/Particle)
 Thermal correction to Energy=                    0.431587
 Thermal correction to Enthalpy=                  0.432531
 Thermal correction to Gibbs Free Energy=         0.365292
 Sum of electronic and zero-point Energies=           -642.471621
 Sum of electronic and thermal Energies=              -642.452592
 Sum of electronic and thermal Enthalpies=            -642.451648
 Sum of electronic and thermal Free Energies=         -642.518887

                     E (Thermal)             CV                S
                      KCal/Mol        Cal/Mol-Kelvin    Cal/Mol-Kelvin
 Total                  270.825             72.292            141.517
 Electronic               0.000              0.000              0.000
 Translational            0.889              2.981             42.003
 Rotational               0.889              2.981             32.848
 Vibrational            269.047             66.331             66.666
 Vibration     1          0.593              1.986              7.103
 Vibration     2          0.594              1.983              5.636
 Vibration     3          0.595              1.980              5.080
 Vibration     4          0.598              1.970              4.214
 Vibration     5          0.602              1.954              3.600
 Vibration     6          0.612              1.922              2.924
 Vibration     7          0.616              1.911              2.771
 Vibration     8          0.620              1.897              2.610
 Vibration     9          0.638              1.840              2.131
 Vibration    10          0.641              1.828              2.061
 Vibration    11          0.645              1.817              1.995
 Vibration    12          0.656              1.782              1.815
 Vibration    13          0.660              1.769              1.759
 Vibration    14          0.664              1.758              1.713
 Vibration    15          0.673              1.731              1.607
 Vibration    16          0.685              1.695              1.481
 Vibration    17          0.693              1.672              1.413
 Vibration    18          0.698              1.659              1.375
 Vibration    19          0.713              1.614              1.255
 Vibration    20          0.720              1.596              1.213
 Vibration    21          0.731              1.565              1.143
 Vibration    22          0.745              1.525              1.063
 Vibration    23          0.755              1.499              1.014
 Vibration    24          0.759              1.489              0.996
 Vibration    25          0.777              1.441              0.915
 Vibration    26          0.784              1.424              0.887
 Vibration    27          0.792              1.403              0.856
 Vibration    28          0.833              1.302              0.719
 Vibration    29          0.869              1.218              0.624
 Vibration    30          0.914              1.122              0.527
 Vibration    31          0.919              1.111              0.518

 Optimization completed.
    -- Stationary point found.
 Normal termination of Gaussian 16 at Thu Dec 10 15:08:49 2020.

 ----------------------------------------------------------------------
 # B3LYP/6-311++G(d,p) empiricaldispersion=gd3bj scf=xqc pop=npa geom=c
 heck
 ----------------------------------------------------------------------

 --------------------------------------
 CID_80394219_JID_5128_Energie_neutraal
 --------------------------------------
 Structure from the checkpoint file:  "JID_5128.chk"
 Charge =  0 Multiplicity = 1

 SCF Done:  E(RB3LYP) =  -643.070345489     A.U. after   13 cycles
 Normal termination of Gaussian 16 at Thu Dec 10 15:16:05 2020.

 ----------------------------------------------------------------------
 # B3LYP/6-311++G(d,p) empiricaldispersion=gd3bj scf=xqc pop=npa geom=c
 heck
 ----------------------------------------------------------------------

 ------------------------------------
 CID_80394219_JID_5128_Energie_kation
 ------------------------------------
 Structure from the checkpoint file:  "JID_5128.chk"
 Charge =  1 Multiplicity = 2

 SCF Done:  E(UB3LYP) =  -642.766025579     A.U. after   22 cycles
 Normal termination of Gaussian 16 at Thu Dec 10 15:31:44 2020.
 Gaussian 16:  ES64L-G16RevA.03 25-Dec-2016

 ----------------------------------------------------------------------
 # B3LYP/6-311++G(d,p) empiricaldispersion=gd3bj scf=xqc pop=npa geom=c
 heck
 ----------------------------------------------------------------------

 -----------------------------------
 CID_80394219_JID_5128_Energie_anion
 -----------------------------------
 Structure from the checkpoint file:  "JID_5128.chk"
 Charge = -1 Multiplicity = 2

                         Standard orientation:
 ---------------------------------------------------------------------
 Center     Atomic      Atomic             Coordinates (Angstroms)
 Number     Number       Type             X           Y           Z
 ---------------------------------------------------------------------
      1          6           0        3.774039    1.807514   -0.926047
      2          6           0        3.288279    0.417527   -0.489089
      3          6           0        4.483805   -0.531871   -0.333336
      4          6           0        2.473535    0.498199    0.816686
      5          6           0        1.307367    1.484886    0.777008
      6          8           0        2.052786   -0.785210    1.315939
      7          6           0        1.480434   -1.765289    0.469451
      8          6           0       -0.034101   -1.711296    0.242016
      9          7           0       -0.452782   -0.757154   -0.785159
     10          6           0       -1.736263   -1.090024   -1.410044
     11          6           0       -2.967130   -0.964178   -0.503474
     12          6           0       -3.312551    0.424607    0.092869
     13          6           0       -3.145842    1.532842   -0.959192
     14          6           0       -4.780960    0.383393    0.553971
     15          6           0       -2.425178    0.737173    1.309287
     16          1           0        4.345492    2.292376   -0.124089
     17          1           0        2.946107    2.468475   -1.197584
     18          1           0        4.433802    1.723478   -1.796882
     19          1           0        2.634081    0.038879   -1.288176
     20          1           0        5.182478   -0.139350    0.416214
     21          1           0        4.180645   -1.529138   -0.004558
     22          1           0        5.029884   -0.630740   -1.278392
     23          1           0        3.169482    0.829881    1.599702
     24          1           0        0.611712    1.248421   -0.032325
     25          1           0        0.759445    1.423232    1.721983
     26          1           0        1.665032    2.512918    0.661199
     27          1           0        1.987206   -1.813094   -0.505771
     28          1           0        1.693535   -2.712888    0.977670
     29          1           0       -0.342818   -2.740855   -0.028042
     30          1           0       -0.524682   -1.470938    1.191610
     31          1           0        0.253236   -0.752430   -1.519984
     32          1           0       -1.856556   -0.427954   -2.274425
     33          1           0       -1.732149   -2.126538   -1.802267
     34          1           0       -3.817289   -1.295259   -1.116629
     35          1           0       -2.895624   -1.690675    0.317506
     36          1           0       -3.727664    1.316071   -1.864269
     37          1           0       -3.494870    2.493470   -0.562202
     38          1           0       -2.096004    1.651742   -1.245769
     39          1           0       -4.945666   -0.429467    1.272201
     40          1           0       -5.063826    1.323378    1.042756
     41          1           0       -5.460435    0.225934   -0.292800
     42          1           0       -1.372363    0.762564    1.026915
     43          1           0       -2.691612    1.709614    1.741867
     44          1           0       -2.555998   -0.020252    2.092511
 ---------------------------------------------------------------------

 SCF Done:  E(UB3LYP) =  -643.056302952     A.U. after   27 cycles

 The electronic state is 2-A.
 Alpha  occ. eigenvalues --  -19.02164 -14.19796 -10.12398 -10.12014 -10.09292
 Alpha  occ. eigenvalues --  -10.08983 -10.08522 -10.08099 -10.06757 -10.06542
 Alpha  occ. eigenvalues --  -10.06347 -10.06321 -10.05735 -10.05466 -10.05365
 Alpha  occ. eigenvalues --   -0.93123  -0.80801  -0.72639  -0.71648  -0.66093
 Alpha  occ. eigenvalues --   -0.63695  -0.60678  -0.59045  -0.58976  -0.58658
 Alpha  occ. eigenvalues --   -0.54457  -0.51911  -0.50146  -0.46115  -0.43132
 Alpha  occ. eigenvalues --   -0.41112  -0.38755  -0.37817  -0.37569  -0.35807
 Alpha  occ. eigenvalues --   -0.35593  -0.34747  -0.33997  -0.33246  -0.32689
 Alpha  occ. eigenvalues --   -0.31244  -0.30496  -0.30433  -0.29742  -0.29510
 Alpha  occ. eigenvalues --   -0.29203  -0.28137  -0.27341  -0.26795  -0.26027
 Alpha  occ. eigenvalues --   -0.25962  -0.25588  -0.24770  -0.24022  -0.23873
 Alpha  occ. eigenvalues --   -0.22401  -0.22008  -0.21810  -0.19553  -0.16041
 Alpha  occ. eigenvalues --   -0.13070   0.04323
 Alpha virt. eigenvalues --    0.06086   0.06769   0.07159   0.07974   0.08222
 Alpha virt. eigenvalues --    0.08542   0.09267   0.09617   0.09674   0.10271
 Alpha virt. eigenvalues --    0.10385   0.10988   0.11341   0.12088   0.12312

  Beta  occ. eigenvalues --  -19.02158 -14.19776 -10.12396 -10.11996 -10.09279
  Beta  occ. eigenvalues --  -10.08956 -10.08522 -10.08084 -10.06733 -10.06529
  Beta  occ. eigenvalues --  -10.06327 -10.06303 -10.05713 -10.05457 -10.05358
  Beta  occ. eigenvalues --   -0.93109  -0.80768  -0.72624  -0.71624  -0.66062
  Beta  occ. eigenvalues --   -0.63667  -0.60644  -0.59002  -0.58936  -0.58630
  Beta  occ. eigenvalues --   -0.54422  -0.51859  -0.50086  -0.46072  -0.43091
  Beta  occ. eigenvalues --   -0.41083  -0.38703  -0.37791  -0.37536  -0.35775
  Beta  occ. eigenvalues --   -0.35566  -0.34717  -0.33969  -0.33223  -0.32664
  Beta  occ. eigenvalues --   -0.31216  -0.30474  -0.30406  -0.29718  -0.29485
  Beta  occ. eigenvalues --   -0.29178  -0.28100  -0.27319  -0.26774  -0.26004
  Beta  occ. eigenvalues --   -0.25942  -0.25557  -0.24741  -0.23983  -0.23841
  Beta  occ. eigenvalues --   -0.22376  -0.21981  -0.21788  -0.19534  -0.16006
  Beta  occ. eigenvalues --   -0.13028
  Beta virt. eigenvalues --    0.06270   0.06680   0.07355   0.07708   0.08228
  Beta virt. eigenvalues --    0.08627   0.08830   0.09573   0.09841   0.10037
  Beta virt. eigenvalues --    0.10528   0.10575   0.11216   0.11578   0.12409

 Mulliken charges and spin densities:
               1          2
     1  C    0.407735  -1.103749
     2  C   -0.452070   0.788780
     3  C    0.244424  -0.755900
     4  C   -0.063774  -0.058305
     5  C   -0.500442  -0.191431
     6  O   -0.039068   0.023671
     7  C    0.607692  -1.134915
     8  C   -0.501625   0.259980
     9  N   -0.129625   0.139917
    10  C    0.813400  -1.237191
    11  C   -0.319849  -0.125887
    12  C   -0.102945   1.006056
    13  C    0.481319  -1.140530
    14  C   -0.129468  -0.374621
    15  C   -0.324990  -0.390041
    16  H    0.033835   0.099146
    17  H   -0.153845   0.303164
    18  H   -0.193337   0.339562
    19  H   -0.105769   0.237503
    20  H    0.040079   0.082666
    21  H    0.118863   0.023658
    22  H   -0.271888   0.416312
    23  H    0.078891   0.100569
    24  H    0.326168  -0.117558
    25  H    0.186446  -0.026243
    26  H    0.059696   0.066034
    27  H   -0.340321   0.506871
    28  H   -0.042974   0.209401
    29  H   -0.152393   0.258971
    30  H    0.250625  -0.066134
    31  H    0.093532   0.138619
    32  H   -0.285352   0.455043
    33  H   -0.440475   0.586198
    34  H   -0.089832   0.276451
    35  H    0.016895   0.136179
    36  H   -0.125396   0.274802
    37  H    0.061385   0.073822
    38  H   -0.104102   0.250699
    39  H   -0.030226   0.160607
    40  H    0.005206   0.119282
    41  H   -0.124361   0.260857
    42  H    0.077745  -0.032384
    43  H    0.123462   0.012869
    44  H   -0.003271   0.147202
 Sum of Mulliken charges =  -1.00000   1.00000

 Dipole moment (field-independent basis, Debye):
    X=              0.1862    Y=              1.6582    Z=              5.2986  Tot=              5.5552
 Quadrupole moment (field-independent basis, Debye-Ang):
   XX=           -186.0916   YY=           -141.7068   ZZ=           -145.3554
   XY=             -0.4648   XZ=              2.8954   YZ=             -1.5911

 Summary of Natural Population Analysis:

                                       Natural Population
                Natural  -----------------------------------------------
    Atom  No    Charge         Core      Valence    Rydberg      Total
 -----------------------------------------------------------------------
      C    1   -0.28312      0.99965     2.27704    0.00643     3.28312
      C    2   -0.12976      0.99959     2.12050    0.00967     3.12976
      C    3   -0.28497      0.99965     2.27826    0.00707     3.28497
      C    4    0.07532      0.99952     1.91159    0.01357     2.92468
      C    5   -0.30569      0.99963     2.30042    0.00564     3.30569
      O    6   -0.30801      0.99988     3.29898    0.00914     4.30801
      C    7   -0.01432      0.99955     2.00079    0.01398     3.01432
      C    8   -0.10116      0.99961     2.09055    0.01100     3.10116
      N    9   -0.34865      0.99973     2.83589    0.01302     3.84865
      C   10   -0.08295      0.99961     2.07070    0.01263     3.08295
      C   11   -0.19103      0.99958     2.18055    0.01089     3.19103
      C   12   -0.05010      0.99959     2.03959    0.01093     3.05010
      C   13   -0.28771      0.99962     2.28071    0.00737     3.28771
      C   14   -0.28026      0.99963     2.27480    0.00583     3.28026
      C   15   -0.28744      0.99962     2.28195    0.00588     3.28744
      H   16    0.09361      0.00000     0.40552    0.00087     0.40639
      H   17    0.10239      0.00000     0.39666    0.00095     0.39761
      H   18    0.10179      0.00000     0.39727    0.00094     0.39821
      H   19    0.09651      0.00000     0.40057    0.00292     0.40349
      H   20    0.09445      0.00000     0.40467    0.00088     0.40555
      H   21    0.10314      0.00000     0.39586    0.00100     0.39686
      H   22    0.09997      0.00000     0.39913    0.00090     0.40003
      H   23    0.08333      0.00000     0.41530    0.00137     0.41667
      H   24    0.11260      0.00000     0.38554    0.00186     0.38740
      H   25    0.10147      0.00000     0.39765    0.00088     0.39853
      H   26    0.09737      0.00000     0.40181    0.00082     0.40263
      H   27    0.08151      0.00000     0.41660    0.00189     0.41849
      H   28    0.08997      0.00000     0.40897    0.00107     0.41003
      H   29    0.08312      0.00000     0.41521    0.00167     0.41688
      H   30    0.09458      0.00000     0.40407    0.00135     0.40542
      H   31    0.17461      0.00000     0.32111    0.00429     0.32539
      H   32    0.09613      0.00000     0.40230    0.00157     0.40387
      H   33    0.08144      0.00000     0.41661    0.00194     0.41856
      H   34    0.10113      0.00000     0.39755    0.00132     0.39887
      H   35    0.09604      0.00000     0.40264    0.00133     0.40396
      H   36    0.09909      0.00000     0.39995    0.00095     0.40091
      H   37    0.09701      0.00000     0.40218    0.00080     0.40299
      H   38    0.10489      0.00000     0.39370    0.00140     0.39511
      H   39    0.09757      0.00000     0.40152    0.00091     0.40243
      H   40    0.09623      0.00000     0.40289    0.00088     0.40377
      H   41    0.09871      0.00000     0.40034    0.00095     0.40129
      H   42    0.11178      0.00000     0.38667    0.00155     0.38822
      H   43    0.09453      0.00000     0.40467    0.00080     0.40547
      H   44    0.09485      0.00000     0.40426    0.00089     0.40515
 =======================================================================
   * Total *    0.00000     14.99447    45.82351    0.18202    61.00000

 Normal termination of Gaussian 16 at Thu Dec 10 15:50:56 2020.
