 Gaussian 16, Revision A.03,

 -----------------------------------------------------------
 # opt freq B3LYP/6-31G(d) empiricaldispersion=gd3bj scf=xqc
 -----------------------------------------------------------

 ------------------------------
 CID_81575040_JID_7035_neutraal
 ------------------------------
 Symbolic Z-matrix:
 Charge =  0 Multiplicity = 1

 SCF Done:  E(RB3LYP) =  -781.052335974     A.U. after   14 cycles
 SCF Done:  E(RB3LYP) =  -781.058251050     A.U. after   12 cycles
 SCF Done:  E(RB3LYP) =  -781.059205849     A.U. after   12 cycles
 SCF Done:  E(RB3LYP) =  -781.059909860     A.U. after   12 cycles
 SCF Done:  E(RB3LYP) =  -781.061156780     A.U. after   14 cycles
 SCF Done:  E(RB3LYP) =  -781.063395431     A.U. after   15 cycles
 SCF Done:  E(RB3LYP) =  -781.066268739     A.U. after   11 cycles
 SCF Done:  E(RB3LYP) =  -781.068824514     A.U. after   12 cycles
 SCF Done:  E(RB3LYP) =  -781.069341219     A.U. after   12 cycles
 SCF Done:  E(RB3LYP) =  -781.069688257     A.U. after   12 cycles
 SCF Done:  E(RB3LYP) =  -781.071898288     A.U. after   10 cycles
 SCF Done:  E(RB3LYP) =  -781.071899774     A.U. after    8 cycles
 SCF Done:  E(RB3LYP) =  -781.071899974     A.U. after    8 cycles
 SCF Done:  E(RB3LYP) =  -781.071900076     A.U. after    7 cycles
 SCF Done:  E(RB3LYP) =  -781.071900158     A.U. after    7 cycles
 Optimization completed.
    -- Stationary point found.
 Normal termination of Gaussian 16 at Fri Dec 11 12:02:22 2020.

 --------------------------------------------------------------------
 #N Geom=AllCheck Guess=TCheck SCRF=Check GenChk RB3LYP/6-31G(d) Freq
 --------------------------------------------------------------------

 Structure from the checkpoint file:  "JID_7035.chk"
 ------------------------------
 CID_81575040_JID_7035_neutraal
 ------------------------------
 Charge =  0 Multiplicity = 1

 SCF Done:  E(RB3LYP) =  -781.071900158     A.U. after    1 cycles

  Exact polarizability: 214.316   0.614 144.282   0.344   4.439  94.638
 Approx polarizability: 306.009   5.182 239.122  -0.568   7.146 135.159

                      1                      2                      3
                      A                      A                      A
 Frequencies --     18.6863                51.6791                76.8370
 Red. masses --      4.1552                 3.4682                 3.1052
 Frc consts  --      0.0009                 0.0055                 0.0108
 IR Inten    --      2.5755                 0.8261                 2.9483

                      4                      5                      6
                      A                      A                      A
 Frequencies --    105.2597               109.5390               142.5628
 Red. masses --      3.4702                 2.6264                 2.7845
 Frc consts  --      0.0227                 0.0186                 0.0333
 IR Inten    --      7.4148                 4.0822                 0.6080

                      7                      8                      9
                      A                      A                      A
 Frequencies --    168.9282               189.0693               212.3688
 Red. masses --      1.9237                 2.6481                 2.2833
 Frc consts  --      0.0323                 0.0558                 0.0607
 IR Inten    --      4.1468                 3.6848                 0.5500

                     10                     11                     12
                      A                      A                      A
 Frequencies --    233.2869               238.6018               254.4186
 Red. masses --      1.6103                 5.0119                 1.9556
 Frc consts  --      0.0516                 0.1681                 0.0746
 IR Inten    --      3.3585                 0.3175                 4.0823

                     13                     14                     15
                      A                      A                      A
 Frequencies --    320.3863               368.6133               402.0333
 Red. masses --      2.9814                 5.3822                 5.3043
 Frc consts  --      0.1803                 0.4309                 0.5051
 IR Inten    --      1.9799                 7.0163                 2.4960

                     16                     17                     18
                      A                      A                      A
 Frequencies --    428.2628               436.9675               447.5390
 Red. masses --      4.4509                 1.9067                 2.9892
 Frc consts  --      0.4810                 0.2145                 0.3528
 IR Inten    --     10.7444                50.5812                13.4794

                     19                     20                     21
                      A                      A                      A
 Frequencies --    497.7843               509.5742               571.0279
 Red. masses --      2.8169                 3.3544                 3.9484
 Frc consts  --      0.4112                 0.5132                 0.7586
 IR Inten    --     22.4826                12.2710                 1.4743

                     22                     23                     24
                      A                      A                      A
 Frequencies --    594.7822               631.2641               683.8111
 Red. masses --      5.0191                 5.2446                 3.5088
 Frc consts  --      1.0461                 1.2314                 0.9667
 IR Inten    --      6.3647                 1.5459                 2.9839

                     25                     26                     27
                      A                      A                      A
 Frequencies --    699.3256               740.1929               777.8743
 Red. masses --      6.0525                 4.5432                 6.3299
 Frc consts  --      1.7440                 1.4666                 2.2567
 IR Inten    --      7.1802                 1.2978                 8.6586

                     28                     29                     30
                      A                      A                      A
 Frequencies --    782.8954               819.1034               820.8972
 Red. masses --     10.0358                 1.7714                 2.0033
 Frc consts  --      3.6242                 0.7002                 0.7954
 IR Inten    --      7.8898                23.1160                15.2260

                     31                     32                     33
                      A                      A                      A
 Frequencies --    843.9308               880.8103               891.9780
 Red. masses --      2.7998                 3.3959                 2.6804
 Frc consts  --      1.1749                 1.5523                 1.2565
 IR Inten    --      0.5203                20.7804                 4.6400

                     34                     35                     36
                      A                      A                      A
 Frequencies --    924.7936               947.3381               955.5735
 Red. masses --      3.3578                 1.2710                 2.5659
 Frc consts  --      1.6920                 0.6720                 1.3805
 IR Inten    --     18.6255                 0.6051                 5.0281

                     37                     38                     39
                      A                      A                      A
 Frequencies --    992.7334               995.6626              1011.6344
 Red. masses --      1.3585                 4.3201                 2.2668
 Frc consts  --      0.7888                 2.5233                 1.3668
 IR Inten    --      2.8218                 9.7582                11.2941

                     40                     41                     42
                      A                      A                      A
 Frequencies --   1026.2016              1070.2727              1079.2248
 Red. masses --      3.9992                 5.0456                 5.9348
 Frc consts  --      2.4813                 3.4053                 4.0727
 IR Inten    --     18.0689                62.4654               101.2804

                     43                     44                     45
                      A                      A                      A
 Frequencies --   1118.1102              1140.8127              1160.3470
 Red. masses --      2.4437                 1.3119                 2.0162
 Frc consts  --      1.8000                 1.0059                 1.5994
 IR Inten    --     32.2380                19.8031                 5.4784

                     46                     47                     48
                      A                      A                      A
 Frequencies --   1169.5137              1186.7018              1198.3206
 Red. masses --      1.9135                 1.2685                 1.6230
 Frc consts  --      1.5420                 1.0525                 1.3732
 IR Inten    --      2.7002                 0.6297                25.7198

                     49                     50                     51
                      A                      A                      A
 Frequencies --   1214.6282              1236.9179              1251.9574
 Red. masses --      1.5588                 1.5427                 2.5765
 Frc consts  --      1.3549                 1.3906                 2.3794
 IR Inten    --      2.9560                10.7270               117.4096

                     52                     53                     54
                      A                      A                      A
 Frequencies --   1255.6751              1300.5504              1312.2263
 Red. masses --      1.1301                 2.6872                 1.4910
 Frc consts  --      1.0499                 2.6780                 1.5127
 IR Inten    --      0.6432               115.6560                42.9404

                     55                     56                     57
                      A                      A                      A
 Frequencies --   1326.0162              1337.4111              1363.2632
 Red. masses --      1.3539                 1.7187                 2.3582
 Frc consts  --      1.4026                 1.8112                 2.5822
 IR Inten    --      3.5347                34.4857                51.6989

                     58                     59                     60
                      A                      A                      A
 Frequencies --   1376.4486              1391.9528              1406.7882
 Red. masses --      2.4349                 1.3842                 1.4637
 Frc consts  --      2.7180                 1.5801                 1.7067
 IR Inten    --     93.8255                17.9762                 2.2881

                     61                     62                     63
                      A                      A                      A
 Frequencies --   1416.3374              1437.0914              1444.9386
 Red. masses --      4.9073                 1.4243                 1.6892
 Frc consts  --      5.8000                 1.7331                 2.0779
 IR Inten    --     85.7698                32.8113               100.2787

                     64                     65                     66
                      A                      A                      A
 Frequencies --   1468.9218              1490.4009              1508.3043
 Red. masses --      2.1785                 2.0043                 1.0485
 Frc consts  --      2.7695                 2.6231                 1.4054
 IR Inten    --     59.5504                24.1492                 4.8021

                     67                     68                     69
                      A                      A                      A
 Frequencies --   1519.0252              1527.5407              1528.8950
 Red. masses --      1.0886                 1.0699                 1.0487
 Frc consts  --      1.4799                 1.4708                 1.4443
 IR Inten    --      5.5591                 9.0997                 7.3291

                     70                     71                     72
                      A                      A                      A
 Frequencies --   1538.1778              1540.1716              1551.8303
 Red. masses --      2.4740                 1.1149                 1.1235
 Frc consts  --      3.4488                 1.5582                 1.5941
 IR Inten    --     40.3857                 7.3207                 1.1277

                     73                     74                     75
                      A                      A                      A
 Frequencies --   1578.2690              1632.5560              1674.9380
 Red. masses --      5.0602                 6.5264                 7.3500
 Frc consts  --      7.4265                10.2485                12.1488
 IR Inten    --     19.2073               155.9088                66.1663

                     76                     77                     78
                      A                      A                      A
 Frequencies --   3039.3471              3049.0146              3057.4530
 Red. masses --      1.0828                 1.0417                 1.0602
 Frc consts  --      5.8932                 5.7057                 5.8391
 IR Inten    --     19.6833                27.1941                74.1590

                     79                     80                     81
                      A                      A                      A
 Frequencies --   3062.4673              3064.0777              3084.6720
 Red. masses --      1.0298                 1.0832                 1.0664
 Frc consts  --      5.6906                 5.9920                 5.9783
 IR Inten    --     51.5354                37.6593                22.6586

                     82                     83                     84
                      A                      A                      A
 Frequencies --   3100.4751              3107.4515              3131.1072
 Red. masses --      1.1054                 1.1003                 1.1067
 Frc consts  --      6.2606                 6.2599                 6.3928
 IR Inten    --     39.0396                35.6316                27.4613

                     85                     86                     87
                      A                      A                      A
 Frequencies --   3141.7604              3147.3916              3166.4681
 Red. masses --      1.1043                 1.1006                 1.1064
 Frc consts  --      6.4219                 6.4237                 6.5360
 IR Inten    --     13.9290                33.4763                32.4239

                     88                     89                     90
                      A                      A                      A
 Frequencies --   3202.0135              3235.3859              3648.5302
 Red. masses --      1.0906                 1.0938                 1.0803
 Frc consts  --      6.5880                 6.7459                 8.4727
 IR Inten    --     11.3966                 4.7094                48.6755

 - Thermochemistry -
 -------------------
 Temperature   298.150 Kelvin.  Pressure   1.00000 Atm.
 Atom     1 has atomic number  6 and mass  12.00000

 Molecular mass:   233.11643 amu.
 Principal axes and moments of inertia in atomic units:
                           1         2         3
     Eigenvalues --  1798.412397040.452597724.09656
           X            0.99997  -0.00205   0.00699
           Y            0.00199   0.99997   0.00790
           Z           -0.00700  -0.00788   0.99994
 This molecule is an asymmetric top.
 Rotational symmetry number  1.
 Warning -- assumption of classical behavior for rotation
           may cause significant error
 Rotational temperatures (Kelvin)      0.04816     0.01230     0.01121
 Rotational constants (GHZ):           1.00352     0.25634     0.23365
 Zero-point vibrational energy     698597.5 (Joules/Mol)
                                  166.96881 (Kcal/Mol)
 Warning -- explicit consideration of  22 degrees of freedom as
           vibrations may cause significant error
 Vibrational temperatures:     26.89    74.35   110.55   151.45   157.60
          (Kelvin)            205.12   243.05   272.03   305.55   335.65
                              343.29   366.05   460.96   530.35   578.44
                              616.17   628.70   643.91   716.20   733.16
                              821.58   855.76   908.25   983.85  1006.17
                             1064.97  1119.19  1126.41  1178.51  1181.09
                             1214.23  1267.29  1283.36  1330.57  1363.01
                             1374.86  1428.32  1432.54  1455.52  1476.48
                             1539.88  1552.76  1608.71  1641.38  1669.48
                             1682.67  1707.40  1724.12  1747.58  1779.65
                             1801.29  1806.64  1871.20  1888.00  1907.84
                             1924.24  1961.43  1980.40  2002.71  2024.05
                             2037.79  2067.65  2078.94  2113.45  2144.35
                             2170.11  2185.54  2197.79  2199.74  2213.09
                             2215.96  2232.74  2270.78  2348.88  2409.86
                             4372.94  4386.85  4398.99  4406.21  4408.52
                             4438.16  4460.89  4470.93  4504.96  4520.29
                             4528.39  4555.84  4606.98  4655.00  5249.42

 Zero-point correction=                           0.266082 (Hartree/Particle)
 Thermal correction to Energy=                    0.281022
 Thermal correction to Enthalpy=                  0.281966
 Thermal correction to Gibbs Free Energy=         0.222815
 Sum of electronic and zero-point Energies=           -780.805818
 Sum of electronic and thermal Energies=              -780.790879
 Sum of electronic and thermal Enthalpies=            -780.789934
 Sum of electronic and thermal Free Energies=         -780.849085

                     E (Thermal)             CV                S
                      KCal/Mol        Cal/Mol-Kelvin    Cal/Mol-Kelvin
 Total                  176.344             57.224            124.493
 Electronic               0.000              0.000              0.000
 Translational            0.889              2.981             42.241
 Rotational               0.889              2.981             32.947
 Vibrational            174.566             51.262             49.305
 Vibration     1          0.593              1.986              6.769
 Vibration     2          0.596              1.977              4.752
 Vibration     3          0.599              1.965              3.970
 Vibration     4          0.605              1.945              3.355
 Vibration     5          0.606              1.942              3.277
 Vibration     6          0.616              1.911              2.769
 Vibration     7          0.625              1.881              2.447
 Vibration     8          0.633              1.855              2.237
 Vibration     9          0.643              1.822              2.023
 Vibration    10          0.654              1.790              1.854
 Vibration    11          0.657              1.781              1.813
 Vibration    12          0.665              1.755              1.700
 Vibration    13          0.706              1.635              1.308
 Vibration    14          0.741              1.537              1.086
 Vibration    15          0.768              1.466              0.955
 Vibration    16          0.790              1.409              0.864
 Vibration    17          0.797              1.390              0.836
 Vibration    18          0.807              1.366              0.803
 Vibration    19          0.853              1.255              0.664
 Vibration    20          0.865              1.229              0.635
 Vibration    21          0.927              1.094              0.502
 Vibration    22          0.952              1.043              0.459

                           ! Non-Optimized Parameters !
 Normal termination of Gaussian 16 at Fri Dec 11 12:13:31 2020.

 ----------------------------------------------------------------------
 # B3LYP/6-311++G(d,p) empiricaldispersion=gd3bj scf=xqc pop=npa geom=c
 heck
 ----------------------------------------------------------------------

 --------------------------------------
 CID_81575040_JID_7035_Energie_neutraal
 --------------------------------------
 Structure from the checkpoint file:  "JID_7035.chk"
 Charge =  0 Multiplicity = 1

 SCF Done:  E(RB3LYP) =  -781.283343146     A.U. after   16 cycles
 Normal termination of Gaussian 16 at Fri Dec 11 12:18:07 2020.

 ----------------------------------------------------------------------
 # B3LYP/6-311++G(d,p) empiricaldispersion=gd3bj scf=xqc pop=npa geom=c
 heck
 ----------------------------------------------------------------------

 ------------------------------------
 CID_81575040_JID_7035_Energie_kation
 ------------------------------------
 Structure from the checkpoint file:  "JID_7035.chk"
 Charge =  1 Multiplicity = 2

 SCF Done:  E(UB3LYP) =  -780.997835759     A.U. after   25 cycles
 Normal termination of Gaussian 16 at Fri Dec 11 12:28:57 2020.
 Gaussian 16:  ES64L-G16RevA.03 25-Dec-2016

 ----------------------------------------------------------------------
 # B3LYP/6-311++G(d,p) empiricaldispersion=gd3bj scf=xqc pop=npa geom=c
 heck
 ----------------------------------------------------------------------

 -----------------------------------
 CID_81575040_JID_7035_Energie_anion
 -----------------------------------
 Structure from the checkpoint file:  "JID_7035.chk"
 Charge = -1 Multiplicity = 2

                         Standard orientation:
 ---------------------------------------------------------------------
 Center     Atomic      Atomic             Coordinates (Angstroms)
 Number     Number       Type             X           Y           Z
 ---------------------------------------------------------------------
      1          6           0        2.814321   -0.728560    2.152534
      2          6           0        3.346995   -0.381537    0.765287
      3          6           0        3.289258   -1.525906   -0.266826
      4          6           0        3.201553   -0.793219   -1.622885
      5          8           0        3.061980    0.613475   -1.338184
      6          6           0        2.618562    0.748775    0.011687
      7          6           0        1.115969    0.688190    0.074865
      8          7           0        0.378364   -0.404438    0.018025
      9          6           0       -0.930626    0.037457    0.010874
     10          6           0       -0.972567    1.450696    0.066451
     11          7           0        0.354851    1.836647    0.113969
     12          6           0       -2.198523    2.117881    0.075764
     13          6           0       -3.328375    1.318206    0.024601
     14          6           0       -3.181551   -0.093049   -0.028049
     15          7           0       -2.025659   -0.738641   -0.033811
     16          8           0       -4.338354   -0.796717   -0.074138
     17          6           0       -4.215570   -2.218588   -0.129329
     18          1           0        2.833419    0.144352    2.816761
     19          1           0        3.431248   -1.507453    2.614086
     20          1           0        1.786040   -1.094322    2.092620
     21          1           0        4.387983   -0.044375    0.852579
     22          1           0        4.166109   -2.177098   -0.199837
     23          1           0        2.392653   -2.127113   -0.100598
     24          1           0        2.340004   -1.137117   -2.206551
     25          1           0        4.104381   -0.899614   -2.232578
     26          1           0        2.943694    1.739504    0.351493
     27          1           0        0.714231    2.779869    0.100736
     28          1           0       -2.276496    3.200278    0.118513
     29          1           0       -4.326233    1.740273    0.024480
     30          1           0       -3.663232   -2.530772   -1.020930
     31          1           0       -3.693096   -2.602263    0.752355
     32          1           0       -5.239282   -2.595268   -0.161677
 ---------------------------------------------------------------------

 SCF Done:  E(UB3LYP) =  -781.276520673     A.U. after   33 cycles
 SCF Done:  E(UB3LYP) =  -781.276520673     a.u. after    1 cycles

 The electronic state is 2-A.
 Alpha  occ. eigenvalues --  -19.05060 -19.01870 -14.25092 -14.18557 -14.18051
 Alpha  occ. eigenvalues --  -10.14676 -10.12440 -10.12277 -10.12052 -10.11159
 Alpha  occ. eigenvalues --  -10.10603 -10.09498 -10.07612 -10.07230 -10.06406
 Alpha  occ. eigenvalues --  -10.06005 -10.05467  -0.97345  -0.93749  -0.90535
 Alpha  occ. eigenvalues --   -0.81970  -0.76337  -0.70051  -0.68899  -0.66169
 Alpha  occ. eigenvalues --   -0.63945  -0.60345  -0.57644  -0.52820  -0.51969
 Alpha  occ. eigenvalues --   -0.50776  -0.48408  -0.46397  -0.43614  -0.42150
 Alpha  occ. eigenvalues --   -0.41255  -0.38623  -0.37308  -0.36743  -0.36083
 Alpha  occ. eigenvalues --   -0.35603  -0.33368  -0.33075  -0.32086  -0.31633
 Alpha  occ. eigenvalues --   -0.30244  -0.29837  -0.29439  -0.27584  -0.27130
 Alpha  occ. eigenvalues --   -0.25186  -0.24505  -0.24045  -0.22569  -0.21565
 Alpha  occ. eigenvalues --   -0.21217  -0.20238  -0.18272  -0.16147  -0.14845
 Alpha  occ. eigenvalues --   -0.14067  -0.10726   0.04396
 Alpha virt. eigenvalues --    0.06424   0.06860   0.07219   0.08322   0.08603
 Alpha virt. eigenvalues --    0.09295   0.10070   0.10633   0.11080   0.11334
 Alpha virt. eigenvalues --    0.11607   0.12328   0.12639   0.12666   0.13393

  Beta  occ. eigenvalues --  -19.05052 -19.01838 -14.25019 -14.18415 -14.18066
  Beta  occ. eigenvalues --  -10.14680 -10.12440 -10.12262 -10.11920 -10.11156
  Beta  occ. eigenvalues --  -10.10561 -10.09536 -10.07602 -10.07053 -10.06397
  Beta  occ. eigenvalues --  -10.05932 -10.05444  -0.97323  -0.93671  -0.90424
  Beta  occ. eigenvalues --   -0.81779  -0.76244  -0.70007  -0.68639  -0.66065
  Beta  occ. eigenvalues --   -0.63890  -0.60262  -0.57585  -0.52622  -0.51885
  Beta  occ. eigenvalues --   -0.50632  -0.48349  -0.46312  -0.43512  -0.42070
  Beta  occ. eigenvalues --   -0.41180  -0.38562  -0.37236  -0.36695  -0.35979
  Beta  occ. eigenvalues --   -0.35521  -0.33266  -0.32959  -0.31967  -0.31590
  Beta  occ. eigenvalues --   -0.30163  -0.29750  -0.29358  -0.27360  -0.27077
  Beta  occ. eigenvalues --   -0.25166  -0.24474  -0.24010  -0.22529  -0.21450
  Beta  occ. eigenvalues --   -0.20927  -0.19816  -0.18196  -0.16061  -0.14761
  Beta  occ. eigenvalues --   -0.13520  -0.10305
  Beta virt. eigenvalues --    0.06857   0.07152   0.07925   0.08039   0.08544
  Beta virt. eigenvalues --    0.09118   0.09501   0.10336   0.10921   0.11136
  Beta virt. eigenvalues --    0.11408   0.11882   0.12476   0.12694   0.12776

 Mulliken charges and spin densities:
               1          2
     1  C   -0.005421  -0.700587
     2  C    0.355507  -0.154299
     3  C   -0.080032  -0.350704
     4  C   -0.096664  -0.168553
     5  O   -0.073965   0.011771
     6  C   -2.094189   1.385926
     7  C    1.305526  -1.069539
     8  N    0.019246  -0.066328
     9  C   -0.208044  -0.028365
    10  C    2.134637  -1.578018
    11  N   -0.289080   0.125216
    12  C   -0.516937   0.218809
    13  C    0.204682  -0.146666
    14  C   -0.253185   0.049000
    15  N   -0.149839   0.061705
    16  O   -0.165241   0.000373
    17  C   -0.271214  -0.025176
    18  H   -0.117352   0.250368
    19  H   -0.070340   0.203495
    20  H    0.123272   0.042692
    21  H   -0.260187   0.473455
    22  H   -0.025602   0.162808
    23  H    0.181032   0.007561
    24  H    0.130639   0.021878
    25  H    0.079090   0.073387
    26  H   -0.731746   0.970060
    27  H   -0.224936   0.544119
    28  H   -0.540746   0.696963
    29  H    0.192230  -0.027688
    30  H    0.161763   0.005895
    31  H    0.163125   0.003990
    32  H    0.123972   0.006450
 Sum of Mulliken charges =  -1.00000   1.00000

 Dipole moment (field-independent basis, Debye):
    X=             -3.5690    Y=             -5.3821    Z=             -2.0594  Tot=              6.7784
 Quadrupole moment (field-independent basis, Debye-Ang):
   XX=           -161.2017   YY=           -140.9572   ZZ=           -125.3143
   XY=             -2.8438   XZ=             -5.9729   YZ=             -3.0897

 Summary of Natural Population Analysis:

                                       Natural Population
                Natural  -----------------------------------------------
    Atom  No    Charge         Core      Valence    Rydberg      Total
 -----------------------------------------------------------------------
      C    1   -0.28886      0.99964     2.28287    0.00635     3.28886
      C    2   -0.11367      0.99960     2.10208    0.01199     3.11367
      C    3   -0.20826      0.99962     2.20052    0.00811     3.20826
      C    4   -0.01160      0.99960     2.00185    0.01015     3.01160
      O    5   -0.29532      0.99990     3.28789    0.00753     4.29532
      C    6    0.04497      0.99949     1.93692    0.01863     2.95503
      C    7    0.22390      0.99960     1.75729    0.01921     2.77610
      N    8   -0.27562      0.99967     2.76746    0.00849     3.77562
      C    9    0.17541      0.99947     1.80673    0.01839     2.82459
      C   10    0.02714      0.99945     1.96135    0.01206     2.97286
      N   11   -0.26699      0.99963     2.75701    0.01036     3.76699
      C   12   -0.06244      0.99953     2.05357    0.00933     3.06244
      C   13   -0.13419      0.99954     2.12463    0.01002     3.13419
      C   14    0.25998      0.99949     1.72450    0.01604     2.74002
      N   15   -0.24979      0.99962     2.74119    0.00898     3.74979
      O   16   -0.27890      0.99986     3.27084    0.00821     4.27890
      C   17   -0.10228      0.99961     2.09444    0.00823     3.10228
      H   18    0.10124      0.00000     0.39783    0.00093     0.39876
      H   19    0.09694      0.00000     0.40227    0.00079     0.40306
      H   20    0.10942      0.00000     0.38933    0.00125     0.39058
      H   21    0.09923      0.00000     0.39913    0.00164     0.40077
      H   22    0.09786      0.00000     0.40126    0.00088     0.40214
      H   23    0.11019      0.00000     0.38827    0.00155     0.38981
      H   24    0.08542      0.00000     0.41323    0.00135     0.41458
      H   25    0.08275      0.00000     0.41590    0.00135     0.41725
      H   26    0.10075      0.00000     0.39682    0.00243     0.39925
      H   27    0.20767      0.00000     0.28155    0.01078     0.29233
      H   28    0.10204      0.00000     0.39680    0.00116     0.39796
      H   29    0.10218      0.00000     0.39665    0.00117     0.39782
      H   30    0.08907      0.00000     0.40960    0.00132     0.41093
      H   31    0.08919      0.00000     0.40964    0.00117     0.41081
      H   32    0.08256      0.00000     0.41667    0.00076     0.41744
 =======================================================================
   * Total *    0.00000     16.99330    44.78610    0.22060    62.00000

 Normal termination of Gaussian 16 at Fri Dec 11 12:46:04 2020.
