 Gaussian 16, Revision A.03,

 -----------------------------------------------------------
 # opt freq B3LYP/6-31G(d) empiricaldispersion=gd3bj scf=xqc
 -----------------------------------------------------------

 -------------------------------
 CID_149574407_JID_3531_neutraal
 -------------------------------
 Symbolic Z-matrix:
 Charge =  0 Multiplicity = 1

 SCF Done:  E(RB3LYP) =  -539.556577917     A.U. after   13 cycles
 SCF Done:  E(RB3LYP) =  -539.560303871     A.U. after   11 cycles
 SCF Done:  E(RB3LYP) =  -539.560718536     A.U. after   11 cycles
 SCF Done:  E(RB3LYP) =  -539.561391506     A.U. after   11 cycles
 SCF Done:  E(RB3LYP) =  -539.561865471     A.U. after   12 cycles
 SCF Done:  E(RB3LYP) =  -539.562338865     A.U. after   10 cycles
 SCF Done:  E(RB3LYP) =  -539.562880988     A.U. after   11 cycles
 SCF Done:  E(RB3LYP) =  -539.562923708     A.U. after   10 cycles
 SCF Done:  E(RB3LYP) =  -539.562939121     A.U. after    9 cycles
 SCF Done:  E(RB3LYP) =  -539.562942554     A.U. after    8 cycles
 SCF Done:  E(RB3LYP) =  -539.562942982     A.U. after    7 cycles
 SCF Done:  E(RB3LYP) =  -539.562943560     A.U. after    8 cycles
 SCF Done:  E(RB3LYP) =  -539.562943899     A.U. after    8 cycles
 SCF Done:  E(RB3LYP) =  -539.562943936     A.U. after    7 cycles
 Optimization completed.
    -- Stationary point found.
 Normal termination of Gaussian 16 at Wed Dec  9 23:37:35 2020.

 --------------------------------------------------------------------
 #N Geom=AllCheck Guess=TCheck SCRF=Check GenChk RB3LYP/6-31G(d) Freq
 --------------------------------------------------------------------

 Structure from the checkpoint file:  "JID_3531.chk"
 -------------------------------
 CID_149574407_JID_3531_neutraal
 -------------------------------
 Charge =  0 Multiplicity = 1

 SCF Done:  E(RB3LYP) =  -539.562943936     A.U. after    1 cycles

  Exact polarizability: 151.277   2.285 146.400  -6.379   3.694  88.044
 Approx polarizability: 215.235   3.788 215.871 -15.113   8.597 126.874

                      1                      2                      3
                      A                      A                      A
 Frequencies --     28.0939                41.5026                48.9587
 Red. masses --      3.1671                 3.1040                 2.7133
 Frc consts  --      0.0015                 0.0032                 0.0038
 IR Inten    --      0.0343                 1.6181                 1.0352

                      4                      5                      6
                      A                      A                      A
 Frequencies --     80.4185               114.2378               151.8994
 Red. masses --      2.8255                 2.0448                 3.1007
 Frc consts  --      0.0108                 0.0157                 0.0422
 IR Inten    --      2.6319                 2.6283                 3.2474

                      7                      8                      9
                      A                      A                      A
 Frequencies --    170.5297               215.1713               220.3808
 Red. masses --      2.2098                 2.0825                 2.1086
 Frc consts  --      0.0379                 0.0568                 0.0603
 IR Inten    --      5.6882                15.5136                 7.3117

                     10                     11                     12
                      A                      A                      A
 Frequencies --    250.5665               285.8922               292.2298
 Red. masses --      1.5930                 2.0511                 1.5356
 Frc consts  --      0.0589                 0.0988                 0.0773
 IR Inten    --      0.7101                10.8477                33.4097

                     13                     14                     15
                      A                      A                      A
 Frequencies --    295.3635               345.1639               388.1677
 Red. masses --      1.3230                 2.7018                 2.5279
 Frc consts  --      0.0680                 0.1897                 0.2244
 IR Inten    --     41.1870                11.0686                13.3982

                     16                     17                     18
                      A                      A                      A
 Frequencies --    412.6170               479.3118               510.9713
 Red. masses --      2.8404                 3.1153                 3.8382
 Frc consts  --      0.2849                 0.4217                 0.5904
 IR Inten    --     11.8010                 0.3295                 5.9451

                     19                     20                     21
                      A                      A                      A
 Frequencies --    518.9406               608.8572               617.8009
 Red. masses --      3.9867                 2.8538                 4.0731
 Frc consts  --      0.6326                 0.6233                 0.9160
 IR Inten    --      1.9535                 1.2841                 9.4364

                     22                     23                     24
                      A                      A                      A
 Frequencies --    647.8038               724.9806               797.7205
 Red. masses --      3.7357                 2.2766                 1.3028
 Frc consts  --      0.9237                 0.7050                 0.4884
 IR Inten    --      4.5017                 5.7635                 8.4868

                     25                     26                     27
                      A                      A                      A
 Frequencies --    857.6755               871.4754               874.7018
 Red. masses --      1.6462                 1.6575                 1.2555
 Frc consts  --      0.7135                 0.7417                 0.5660
 IR Inten    --     31.2246                26.3949               147.6422

                     28                     29                     30
                      A                      A                      A
 Frequencies --    899.0517               910.6664               922.6052
 Red. masses --      1.5358                 1.5092                 1.3770
 Frc consts  --      0.7314                 0.7374                 0.6906
 IR Inten    --      5.2986                20.3660                19.0018

                     31                     32                     33
                      A                      A                      A
 Frequencies --    938.5838               944.5941               952.9207
 Red. masses --      1.4104                 2.4576                 2.5360
 Frc consts  --      0.7321                 1.2920                 1.3568
 IR Inten    --      3.0357                 1.5222                 5.8022

                     34                     35                     36
                      A                      A                      A
 Frequencies --   1020.7799              1022.3452              1027.0304
 Red. masses --      3.7960                 1.9893                 2.1375
 Frc consts  --      2.3305                 1.2250                 1.3284
 IR Inten    --      2.4349                24.1833                 8.1174

                     37                     38                     39
                      A                      A                      A
 Frequencies --   1060.3040              1082.0927              1084.8462
 Red. masses --      2.1383                 2.4085                 2.1275
 Frc consts  --      1.4164                 1.6616                 1.4752
 IR Inten    --      0.0553                 6.8631                 4.9656

                     40                     41                     42
                      A                      A                      A
 Frequencies --   1105.6151              1122.6263              1179.0016
 Red. masses --      1.8530                 1.6517                 1.4181
 Frc consts  --      1.3345                 1.2265                 1.1614
 IR Inten    --      1.6052                 1.6445                15.9129

                     43                     44                     45
                      A                      A                      A
 Frequencies --   1185.3957              1194.7899              1201.6313
 Red. masses --      1.2729                 1.2644                 1.3079
 Frc consts  --      1.0538                 1.0635                 1.1127
 IR Inten    --      4.4569                 0.9139                 0.6826

                     46                     47                     48
                      A                      A                      A
 Frequencies --   1252.1922              1296.5240              1306.1998
 Red. masses --      1.4098                 1.4299                 1.2519
 Frc consts  --      1.3024                 1.4162                 1.2585
 IR Inten    --      1.9684                 5.0204                 1.9440

                     49                     50                     51
                      A                      A                      A
 Frequencies --   1319.6341              1322.5411              1343.7946
 Red. masses --      2.5484                 1.3016                 1.2840
 Frc consts  --      2.6147                 1.3414                 1.3661
 IR Inten    --      1.1043                 3.1035                 1.8809

                     52                     53                     54
                      A                      A                      A
 Frequencies --   1371.8953              1386.3817              1393.2297
 Red. masses --      2.4825                 1.6516                 1.4043
 Frc consts  --      2.7529                 1.8703                 1.6061
 IR Inten    --      0.4779                 2.0435                12.9821

                     55                     56                     57
                      A                      A                      A
 Frequencies --   1433.4131              1441.6668              1448.2464
 Red. masses --      1.4698                 1.2774                 1.5979
 Frc consts  --      1.7793                 1.5643                 1.9746
 IR Inten    --     46.4090                 7.1821                15.3984

                     58                     59                     60
                      A                      A                      A
 Frequencies --   1503.7645              1506.4757              1516.0629
 Red. masses --      2.6755                 2.5721                 1.1357
 Frc consts  --      3.5647                 3.4392                 1.5380
 IR Inten    --      8.1663                14.0162                 6.4156

                     61                     62                     63
                      A                      A                      A
 Frequencies --   1520.1524              1530.9484              1535.9782
 Red. masses --      1.1080                 1.0512                 1.0871
 Frc consts  --      1.5086                 1.4516                 1.5111
 IR Inten    --      0.4288                 4.7327                 0.4253

                     64                     65                     66
                      A                      A                      A
 Frequencies --   1537.0973              1538.6194              1659.9995
 Red. masses --      1.1052                 1.0707                 4.9442
 Frc consts  --      1.5385                 1.4934                 8.0272
 IR Inten    --      0.7457                 3.9561                 8.4090

                     67                     68                     69
                      A                      A                      A
 Frequencies --   1663.8537              1691.4314              1691.9013
 Red. masses --      5.4029                 1.1055                 1.1274
 Frc consts  --      8.8127                 1.8634                 1.9015
 IR Inten    --      9.7949                43.1574                24.3664

                     70                     71                     72
                      A                      A                      A
 Frequencies --   2962.3090              2967.7725              3034.5607
 Red. masses --      1.0730                 1.0724                 1.0603
 Frc consts  --      5.5474                 5.5651                 5.7528
 IR Inten    --     70.8833                76.0400                19.0193

                     73                     74                     75
                      A                      A                      A
 Frequencies --   3037.6544              3038.0332              3039.2777
 Red. masses --      1.0881                 1.0878                 1.0614
 Frc consts  --      5.9155                 5.9154                 5.7763
 IR Inten    --     19.5424                49.2936                48.2334

                     76                     77                     78
                      A                      A                      A
 Frequencies --   3044.0873              3069.2190              3080.1388
 Red. masses --      1.0390                 1.1005                 1.1032
 Frc consts  --      5.6727                 6.1080                 6.1667
 IR Inten    --     20.5670                32.1269                32.2275

                     79                     80                     81
                      A                      A                      A
 Frequencies --   3107.9908              3123.4710              3164.9413
 Red. masses --      1.1011                 1.1020                 1.0894
 Frc consts  --      6.2664                 6.3345                 6.4292
 IR Inten    --     45.8919                49.3919                20.5215

                     82                     83                     84
                      A                      A                      A
 Frequencies --   3198.3897              3199.8784              3464.4880
 Red. masses --      1.0898                 1.0896                 1.0496
 Frc consts  --      6.5682                 6.5735                 7.4224
 IR Inten    --      3.4506                 4.4690                 3.2704

                     85                     86                     87
                      A                      A                      A
 Frequencies --   3464.8750              3553.0309              3553.5835
 Red. masses --      1.0495                 1.0928                 1.0929
 Frc consts  --      7.4238                 8.1283                 8.1313
 IR Inten    --      3.3217                 1.3176                 1.2005

 - Thermochemistry -
 -------------------
 Temperature   298.150 Kelvin.  Pressure   1.00000 Atm.
 Atom     1 has atomic number  6 and mass  12.00000

 Molecular mass:   178.14700 amu.
 Principal axes and moments of inertia in atomic units:
                           1         2         3
     Eigenvalues --  2398.293132969.313374713.03896
           X            0.99952  -0.03068   0.00333
           Y            0.03069   0.99953  -0.00143
           Z           -0.00329   0.00153   0.99999
 This molecule is an asymmetric top.
 Rotational symmetry number  1.
 Warning -- assumption of classical behavior for rotation
           may cause significant error
 Rotational temperatures (Kelvin)      0.03611     0.02917     0.01838
 Rotational constants (GHZ):           0.75251     0.60780     0.38293
 Zero-point vibrational energy     729853.7 (Joules/Mol)
                                  174.43923 (Kcal/Mol)
 Warning -- explicit consideration of  21 degrees of freedom as
           vibrations may cause significant error
 Vibrational temperatures:     40.42    59.71    70.44   115.70   164.36
          (Kelvin)            218.55   245.35   309.58   317.08   360.51
                              411.34   420.45   424.96   496.61   558.49
                              593.66   689.62   735.17   746.64   876.01
                              888.88   932.05  1043.09  1147.74  1234.00
                             1253.86  1258.50  1293.53  1310.25  1327.42
                             1350.41  1359.06  1371.04  1468.67  1470.93
                             1477.67  1525.54  1556.89  1560.85  1590.73
                             1615.21  1696.32  1705.52  1719.04  1728.88
                             1801.63  1865.41  1879.33  1898.66  1902.84
                             1933.42  1973.85  1994.69  2004.55  2062.36
                             2074.24  2083.70  2163.58  2167.48  2181.28
                             2187.16  2202.69  2209.93  2211.54  2213.73
                             2388.37  2393.91  2433.59  2434.27  4262.10
                             4269.96  4366.06  4370.51  4371.05  4372.84
                             4379.76  4415.92  4431.63  4471.71  4493.98
                             4553.64  4601.77  4603.91  4984.63  4985.18
                             5112.02  5112.81

 Zero-point correction=                           0.277987 (Hartree/Particle)
 Thermal correction to Energy=                    0.292169
 Thermal correction to Enthalpy=                  0.293113
 Thermal correction to Gibbs Free Energy=         0.235764
 Sum of electronic and zero-point Energies=           -539.284957
 Sum of electronic and thermal Energies=              -539.270775
 Sum of electronic and thermal Enthalpies=            -539.269830
 Sum of electronic and thermal Free Energies=         -539.327180

                     E (Thermal)             CV                S
                      KCal/Mol        Cal/Mol-Kelvin    Cal/Mol-Kelvin
 Total                  183.339             52.630            120.701
 Electronic               0.000              0.000              0.000
 Translational            0.889              2.981             41.439
 Rotational               0.889              2.981             31.885
 Vibrational            181.562             46.669             47.378
 Vibration     1          0.593              1.984              5.960
 Vibration     2          0.594              1.981              5.186
 Vibration     3          0.595              1.978              4.859
 Vibration     4          0.600              1.962              3.881
 Vibration     5          0.607              1.938              3.196
 Vibration     6          0.619              1.901              2.648
 Vibration     7          0.626              1.879              2.430
 Vibration     8          0.645              1.818              1.999
 Vibration     9          0.647              1.810              1.956
 Vibration    10          0.663              1.762              1.727
 Vibration    11          0.684              1.700              1.498
 Vibration    12          0.688              1.688              1.461
 Vibration    13          0.690              1.682              1.443
 Vibration    14          0.724              1.585              1.188
 Vibration    15          0.756              1.495              1.007
 Vibration    16          0.776              1.443              0.917
 Vibration    17          0.836              1.296              0.712
 Vibration    18          0.866              1.226              0.631
 Vibration    19          0.874              1.208              0.612
 Vibration    20          0.968              1.013              0.435
 Vibration    21          0.978              0.994              0.420

 Optimization completed.
    -- Stationary point found.
 Normal termination of Gaussian 16 at Wed Dec  9 23:46:08 2020.

 ----------------------------------------------------------------------
 # B3LYP/6-311++G(d,p) empiricaldispersion=gd3bj scf=xqc pop=npa geom=c
 heck
 ----------------------------------------------------------------------

 ---------------------------------------
 CID_149574407_JID_3531_Energie_neutraal
 ---------------------------------------
 Structure from the checkpoint file:  "JID_3531.chk"
 Charge =  0 Multiplicity = 1

 SCF Done:  E(RB3LYP) =  -539.723415304     A.U. after   14 cycles
 Normal termination of Gaussian 16 at Wed Dec  9 23:50:08 2020.

 ----------------------------------------------------------------------
 # B3LYP/6-311++G(d,p) empiricaldispersion=gd3bj scf=xqc pop=npa geom=c
 heck
 ----------------------------------------------------------------------

 -------------------------------------
 CID_149574407_JID_3531_Energie_kation
 -------------------------------------
 Structure from the checkpoint file:  "JID_3531.chk"
 Charge =  1 Multiplicity = 2

 SCF Done:  E(UB3LYP) =  -539.428155006     A.U. after   25 cycles
 Normal termination of Gaussian 16 at Thu Dec 10 00:00:10 2020.
 Gaussian 16:  ES64L-G16RevA.03 25-Dec-2016

 ----------------------------------------------------------------------
 # B3LYP/6-311++G(d,p) empiricaldispersion=gd3bj scf=xqc pop=npa geom=c
 heck
 ----------------------------------------------------------------------

 ------------------------------------
 CID_149574407_JID_3531_Energie_anion
 ------------------------------------
 Structure from the checkpoint file:  "JID_3531.chk"
 Charge = -1 Multiplicity = 2

                         Standard orientation:
 ---------------------------------------------------------------------
 Center     Atomic      Atomic             Coordinates (Angstroms)
 Number     Number       Type             X           Y           Z
 ---------------------------------------------------------------------
      1          6           0        2.947213   -1.480494    1.345893
      2          6           0        3.331001   -0.463035    0.269871
      3          6           0        2.457964   -0.556027   -0.998048
      4          6           0        1.000738   -0.249981   -0.734917
      5          6           0        0.583682    1.069815   -0.536558
      6          6           0       -0.749707    1.367862   -0.238791
      7          6           0       -1.675502    0.326356   -0.138334
      8          6           0       -1.285577   -1.000728   -0.342310
      9          6           0        0.053199   -1.274552   -0.633730
     10          6           0       -2.299080   -2.123509   -0.263798
     11          7           0       -3.279974   -1.887378    0.802378
     12          6           0       -1.194235    2.804102   -0.052157
     13          7           0       -0.165292    3.601629    0.626458
     14          1           0        1.910661   -1.338980    1.669531
     15          1           0        3.593428   -1.389786    2.226099
     16          1           0        3.038905   -2.506438    0.967407
     17          1           0        3.252741    0.552601    0.679298
     18          1           0        4.381741   -0.604939   -0.015542
     19          1           0        2.849694    0.143149   -1.747744
     20          1           0        2.552497   -1.562917   -1.425196
     21          1           0        1.298608    1.885529   -0.597305
     22          1           0       -2.711935    0.533234    0.112486
     23          1           0        0.368611   -2.306488   -0.777269
     24          1           0       -2.859460   -2.174839   -1.208011
     25          1           0       -1.757037   -3.081620   -0.176097
     26          1           0       -3.960595   -2.644861    0.816085
     27          1           0       -2.806184   -1.904577    1.704490
     28          1           0       -1.357868    3.264347   -1.036864
     29          1           0       -2.175153    2.804746    0.454186
     30          1           0       -0.482739    4.565160    0.716152
     31          1           0       -0.037226    3.248072    1.573712
 ---------------------------------------------------------------------

 SCF Done:  E(UB3LYP) =  -539.709259888     A.U. after   33 cycles
 SCF Done:  E(UB3LYP) =  -539.709259889     a.u. after    1 cycles

 The electronic state is 2-A.
 Alpha  occ. eigenvalues --  -14.19346 -14.19116 -10.09606 -10.09469 -10.07787
 Alpha  occ. eigenvalues --  -10.07675 -10.07585 -10.07577 -10.07563 -10.06609
 Alpha  occ. eigenvalues --  -10.06249 -10.06185 -10.06079  -0.78975  -0.78387
 Alpha  occ. eigenvalues --   -0.75142  -0.70190  -0.65899  -0.64852  -0.58567
 Alpha  occ. eigenvalues --   -0.56303  -0.56113  -0.50744  -0.47059  -0.45960
 Alpha  occ. eigenvalues --   -0.40677  -0.38964  -0.38604  -0.38213  -0.36282
 Alpha  occ. eigenvalues --   -0.34927  -0.33838  -0.32726  -0.31394  -0.30739
 Alpha  occ. eigenvalues --   -0.30620  -0.29180  -0.28833  -0.28679  -0.26267
 Alpha  occ. eigenvalues --   -0.25790  -0.24507  -0.23554  -0.22960  -0.22537
 Alpha  occ. eigenvalues --   -0.15293  -0.14866  -0.13800  -0.13403   0.04335
 Alpha virt. eigenvalues --    0.05881   0.06274   0.07855   0.08199   0.08570
 Alpha virt. eigenvalues --    0.08782   0.09180   0.09623   0.09655   0.10411
 Alpha virt. eigenvalues --    0.10776   0.11649   0.11721   0.12107   0.12770

  Beta  occ. eigenvalues --  -14.19302 -14.19074 -10.09587 -10.09445 -10.07787
  Beta  occ. eigenvalues --  -10.07669 -10.07580 -10.07576 -10.07564 -10.06603
  Beta  occ. eigenvalues --  -10.06228 -10.06177 -10.06061  -0.78916  -0.78316
  Beta  occ. eigenvalues --   -0.75114  -0.70169  -0.65865  -0.64826  -0.58535
  Beta  occ. eigenvalues --   -0.56232  -0.56054  -0.50707  -0.47024  -0.45929
  Beta  occ. eigenvalues --   -0.40643  -0.38929  -0.38554  -0.38175  -0.36261
  Beta  occ. eigenvalues --   -0.34899  -0.33756  -0.32681  -0.31363  -0.30710
  Beta  occ. eigenvalues --   -0.30586  -0.29152  -0.28803  -0.28650  -0.26245
  Beta  occ. eigenvalues --   -0.25770  -0.24482  -0.23530  -0.22939  -0.22521
  Beta  occ. eigenvalues --   -0.15261  -0.14826  -0.13765  -0.13374
  Beta virt. eigenvalues --    0.06314   0.06925   0.07033   0.08034   0.08514
  Beta virt. eigenvalues --    0.08872   0.09040   0.09469   0.09784   0.10059
  Beta virt. eigenvalues --    0.10696   0.11248   0.11900   0.11965   0.12212

 Mulliken charges and spin densities:
               1          2
     1  C    0.309773  -0.930255
     2  C   -0.591941   0.381324
     3  C   -0.380578   0.022643
     4  C    1.057184  -0.231639
     5  C   -0.921059   0.556785
     6  C   -0.059476   0.545637
     7  C   -0.423703   0.089202
     8  C   -0.312308   0.406981
     9  C   -0.384949  -0.467248
    10  C    2.271322  -2.868646
    11  N   -0.465101   0.125707
    12  C    0.367827  -0.841336
    13  N   -0.382789   0.048285
    14  H    0.049624   0.104572
    15  H   -0.059775   0.188121
    16  H   -0.114758   0.246365
    17  H   -0.002940   0.136350
    18  H   -0.054341   0.182409
    19  H    0.110108   0.035086
    20  H   -0.090389   0.239718
    21  H    0.270443  -0.060142
    22  H    0.300378  -0.108861
    23  H    0.106534   0.034824
    24  H   -0.033243   0.185112
    25  H   -0.673719   0.855408
    26  H   -0.172464   0.415161
    27  H   -0.039475   0.244304
    28  H   -0.048741   0.201062
    29  H   -0.399944   0.579077
    30  H   -0.237969   0.487917
    31  H    0.006467   0.196078
 Sum of Mulliken charges =  -1.00000   1.00000

 Dipole moment (field-independent basis, Debye):
    X=              3.7253    Y=              0.2191    Z=             -3.0650  Tot=              4.8291
 Quadrupole moment (field-independent basis, Debye-Ang):
   XX=           -137.9292   YY=           -154.7770   ZZ=           -109.5022
   XY=             -5.9301   XZ=              2.3250   YZ=              0.1963

 Summary of Natural Population Analysis:

                                       Natural Population
                Natural  -----------------------------------------------
    Atom  No    Charge         Core      Valence    Rydberg      Total
 -----------------------------------------------------------------------
      C    1   -0.28756      0.99967     2.28358    0.00431     3.28756
      C    2   -0.18454      0.99964     2.17834    0.00656     3.18454
      C    3   -0.19427      0.99960     2.18654    0.00813     3.19427
      C    4   -0.01230      0.99951     2.00301    0.00978     3.01230
      C    5   -0.10476      0.99946     2.09673    0.00857     3.10476
      C    6   -0.01589      0.99951     2.00561    0.01077     3.01589
      C    7   -0.10147      0.99946     2.09254    0.00946     3.10147
      C    8   -0.01639      0.99951     2.00631    0.01057     3.01639
      C    9   -0.10659      0.99946     2.09667    0.01046     3.10659
      C   10   -0.09267      0.99960     2.08076    0.01232     3.09267
      N   11   -0.42063      0.99978     2.91041    0.01045     3.92063
      C   12   -0.09351      0.99960     2.08171    0.01221     3.09351
      N   13   -0.42131      0.99978     2.91100    0.01054     3.92131
      H   14    0.10378      0.00000     0.39493    0.00129     0.39622
      H   15    0.09672      0.00000     0.40224    0.00104     0.40328
      H   16    0.09419      0.00000     0.40439    0.00143     0.40581
      H   17    0.09569      0.00000     0.40284    0.00147     0.40431
      H   18    0.09101      0.00000     0.40771    0.00128     0.40899
      H   19    0.10033      0.00000     0.39859    0.00108     0.39967
      H   20    0.09698      0.00000     0.40176    0.00127     0.40302
      H   21    0.10778      0.00000     0.39064    0.00158     0.39222
      H   22    0.10907      0.00000     0.38921    0.00172     0.39093
      H   23    0.09848      0.00000     0.40007    0.00145     0.40152
      H   24    0.09364      0.00000     0.40520    0.00116     0.40636
      H   25    0.08378      0.00000     0.41376    0.00246     0.41622
      H   26    0.17726      0.00000     0.31948    0.00326     0.32274
      H   27    0.17441      0.00000     0.32316    0.00243     0.32559
      H   28    0.09386      0.00000     0.40497    0.00117     0.40614
      H   29    0.08372      0.00000     0.41438    0.00190     0.41628
      H   30    0.17711      0.00000     0.31943    0.00346     0.32289
      H   31    0.17408      0.00000     0.32370    0.00222     0.32592
 =======================================================================
   * Total *    0.00000     12.99456    35.84963    0.15581    49.00000

 Normal termination of Gaussian 16 at Thu Dec 10 00:13:22 2020.
