 Gaussian 16, Revision A.03,

 -----------------------------------------------------------
 # opt freq B3LYP/6-31G(d) empiricaldispersion=gd3bj scf=xqc
 -----------------------------------------------------------

 ------------------------------
 CID_129783224_JID_154_neutraal
 ------------------------------
 Symbolic Z-matrix:
 Charge =  0 Multiplicity = 1

 SCF Done:  E(RB3LYP) =  -1197.52072320     A.U. after   15 cycles
 SCF Done:  E(RB3LYP) =  -1197.52584368     A.U. after   13 cycles
 SCF Done:  E(RB3LYP) =  -1197.52667024     A.U. after   12 cycles
 SCF Done:  E(RB3LYP) =  -1197.52690967     A.U. after   12 cycles
 SCF Done:  E(RB3LYP) =  -1197.52709128     A.U. after   12 cycles
 SCF Done:  E(RB3LYP) =  -1197.52716481     A.U. after   12 cycles
 SCF Done:  E(RB3LYP) =  -1197.52719298     A.U. after   11 cycles
 SCF Done:  E(RB3LYP) =  -1197.52720148     A.U. after    9 cycles
 SCF Done:  E(RB3LYP) =  -1197.52721665     A.U. after   11 cycles
 SCF Done:  E(RB3LYP) =  -1197.52723938     A.U. after   11 cycles
 SCF Done:  E(RB3LYP) =  -1197.52725047     A.U. after   12 cycles
 SCF Done:  E(RB3LYP) =  -1197.52725264     A.U. after    9 cycles
 SCF Done:  E(RB3LYP) =  -1197.52725287     A.U. after    8 cycles
 SCF Done:  E(RB3LYP) =  -1197.52725294     A.U. after    8 cycles
 Optimization completed.
    -- Stationary point found.
 Normal termination of Gaussian 16 at Tue Dec  8 10:19:23 2020.

 --------------------------------------------------------------------
 #N Geom=AllCheck Guess=TCheck SCRF=Check GenChk RB3LYP/6-31G(d) Freq
 --------------------------------------------------------------------

 Structure from the checkpoint file:  "JID_154.chk"
 ------------------------------
 CID_129783224_JID_154_neutraal
 ------------------------------
 Charge =  0 Multiplicity = 1

 SCF Done:  E(RB3LYP) =  -1197.52725294     A.U. after    1 cycles

  Exact polarizability: 103.955  -0.933 111.304  -0.431  -2.120  72.686
 Approx polarizability: 153.987   6.125 176.608  -7.548  -1.140 124.204

                      1                      2                      3
                      A                      A                      A
 Frequencies --     35.0952                48.0806                94.0370
 Red. masses --      2.9582                 5.5226                 5.2321
 Frc consts  --      0.0021                 0.0075                 0.0273
 IR Inten    --      0.1099                 1.4107                 8.6791

                      4                      5                      6
                      A                      A                      A
 Frequencies --    132.2288               210.1832               222.9729
 Red. masses --      3.6792                 3.3633                 1.7320
 Frc consts  --      0.0379                 0.0875                 0.0507
 IR Inten    --      2.9859                 4.6348                 2.5485

                      7                      8                      9
                      A                      A                      A
 Frequencies --    258.9532               289.5728               346.0183
 Red. masses --      3.0190                 3.2442                 3.5058
 Frc consts  --      0.1193                 0.1603                 0.2473
 IR Inten    --      6.1822                 1.1778                16.2197

                     10                     11                     12
                      A                      A                      A
 Frequencies --    351.4894               377.5465               403.9461
 Red. masses --      1.1576                 3.8652                 7.5280
 Frc consts  --      0.0843                 0.3246                 0.7237
 IR Inten    --     23.9235                 8.2657                 5.4929

                     13                     14                     15
                      A                      A                      A
 Frequencies --    458.2530               516.6577               555.0962
 Red. masses --      4.2580                10.4784                 3.3044
 Frc consts  --      0.5268                 1.6480                 0.5999
 IR Inten    --      3.8638                18.6385                 4.1743

                     16                     17                     18
                      A                      A                      A
 Frequencies --    617.3148               647.7292               725.2489
 Red. masses --      4.2372                 3.7801                 3.8780
 Frc consts  --      0.9514                 0.9344                 1.2018
 IR Inten    --     21.5623                 8.5387                 3.5649

                     19                     20                     21
                      A                      A                      A
 Frequencies --    750.1261               796.3541               825.3055
 Red. masses --      3.8890                 1.4685                 2.6288
 Frc consts  --      1.2893                 0.5487                 1.0549
 IR Inten    --      9.4674                 1.0412                17.1934

                     22                     23                     24
                      A                      A                      A
 Frequencies --    899.9136               956.4251               961.1043
 Red. masses --      2.0697                 2.2121                 1.3708
 Frc consts  --      0.9875                 1.1922                 0.7460
 IR Inten    --      3.4898                 3.0717                 7.8268

                     25                     26                     27
                      A                      A                      A
 Frequencies --   1054.5373              1075.6808              1105.3487
 Red. masses --      2.7615                 7.6485                 2.1409
 Frc consts  --      1.8093                 5.2143                 1.5411
 IR Inten    --     17.8404               106.1646                11.9075

                     28                     29                     30
                      A                      A                      A
 Frequencies --   1150.3322              1158.1447              1185.4225
 Red. masses --      1.3637                 1.9018                 1.2797
 Frc consts  --      1.0632                 1.5030                 1.0595
 IR Inten    --     16.8977                14.4662                 4.5452

                     31                     32                     33
                      A                      A                      A
 Frequencies --   1238.5567              1252.3890              1315.6924
 Red. masses --      1.4397                 2.9790                 1.6038
 Frc consts  --      1.3013                 2.7529                 1.6358
 IR Inten    --      3.3558                51.7469               127.7846

                     34                     35                     36
                      A                      A                      A
 Frequencies --   1338.7738              1410.4129              1433.0211
 Red. masses --      1.2261                 1.2839                 2.0966
 Frc consts  --      1.2947                 1.5048                 2.5367
 IR Inten    --     35.4099                 3.6955               110.3946

                     37                     38                     39
                      A                      A                      A
 Frequencies --   1441.0522              1452.7985              1514.3101
 Red. masses --      1.2797                 1.1666                 1.0791
 Frc consts  --      1.5657                 1.4507                 1.4579
 IR Inten    --     18.7826                 3.8883                18.8152

                     40                     41                     42
                      A                      A                      A
 Frequencies --   1524.5441              1531.4478              1805.3152
 Red. masses --      1.0422                 1.0531                11.5672
 Frc consts  --      1.4272                 1.4552                22.2119
 IR Inten    --      8.7685                 3.9981               354.6098

                     43                     44                     45
                      A                      A                      A
 Frequencies --   2583.8878              3054.7017              3076.7526
 Red. masses --      1.0375                 1.0365                 1.0840
 Frc consts  --      4.0814                 5.6983                 6.0462
 IR Inten    --     22.9078                13.4749                14.0954

                     46                     47                     48
                      A                      A                      A
 Frequencies --   3088.0846              3093.9755              3118.7332
 Red. masses --      1.0638                 1.0644                 1.1019
 Frc consts  --      5.9770                 6.0031                 6.3148
 IR Inten    --      1.3700                 9.3296                20.9495

                     49                     50                     51
                      A                      A                      A
 Frequencies --   3133.2448              3158.0166              3167.8835
 Red. masses --      1.1009                 1.1032                 1.1011
 Frc consts  --      6.3680                 6.4825                 6.5102
 IR Inten    --     25.8368                 5.1787                 0.7767

 - Thermochemistry -
 -------------------
 Temperature   298.150 Kelvin.  Pressure   1.00000 Atm.
 Atom     1 has atomic number  6 and mass  12.00000

 Molecular mass:   179.00747 amu.
 Principal axes and moments of inertia in atomic units:
                           1         2         3
     Eigenvalues --  1474.876131870.604082943.74876
           X            0.99420  -0.10684  -0.01220
           Y            0.10678   0.99427  -0.00554
           Z            0.01272   0.00421   0.99991
 This molecule is an asymmetric top.
 Rotational symmetry number  1.
 Warning -- assumption of classical behavior for rotation
           may cause significant error
 Rotational temperatures (Kelvin)      0.05873     0.04630     0.02942
 Rotational constants (GHZ):           1.22366     0.96479     0.61308
 Zero-point vibrational energy     376481.0 (Joules/Mol)
                                   89.98112 (Kcal/Mol)
 Warning -- explicit consideration of  16 degrees of freedom as
           vibrations may cause significant error
 Vibrational temperatures:     50.49    69.18   135.30   190.25   302.41
          (Kelvin)            320.81   372.58   416.63   497.84   505.71
                              543.21   581.19   659.32   743.36   798.66
                              888.18   931.94  1043.47  1079.26  1145.78
                             1187.43  1294.77  1376.08  1382.81  1517.24
                             1547.66  1590.35  1655.07  1666.31  1705.56
                             1782.01  1801.91  1892.99  1926.20  2029.27
                             2061.80  2073.35  2090.25  2178.75  2193.48
                             2203.41  2597.45  3717.64  4395.03  4426.76
                             4443.06  4451.54  4487.16  4508.04  4543.68
                             4557.88

 Zero-point correction=                           0.143394 (Hartree/Particle)
 Thermal correction to Energy=                    0.154352
 Thermal correction to Enthalpy=                  0.155296
 Thermal correction to Gibbs Free Energy=         0.105473
 Sum of electronic and zero-point Energies=          -1197.383859
 Sum of electronic and thermal Energies=             -1197.372901
 Sum of electronic and thermal Enthalpies=           -1197.371957
 Sum of electronic and thermal Free Energies=        -1197.421780

                     E (Thermal)             CV                S
                      KCal/Mol        Cal/Mol-Kelvin    Cal/Mol-Kelvin
 Total                   96.857             39.572            104.862
 Electronic               0.000              0.000              0.000
 Translational            0.889              2.981             41.454
 Rotational               0.889              2.981             30.475
 Vibrational             95.080             33.611             32.934
 Vibration     1          0.594              1.982              5.518
 Vibration     2          0.595              1.978              4.895
 Vibration     3          0.603              1.953              3.574
 Vibration     4          0.612              1.921              2.913
 Vibration     5          0.642              1.825              2.042
 Vibration     6          0.649              1.806              1.935
 Vibration     7          0.668              1.748              1.669
 Vibration     8          0.686              1.693              1.476
 Vibration     9          0.724              1.583              1.184
 Vibration    10          0.728              1.572              1.160
 Vibration    11          0.748              1.518              1.049
 Vibration    12          0.769              1.462              0.948
 Vibration    13          0.816              1.343              0.771
 Vibration    14          0.872              1.213              0.618
 Vibration    15          0.911              1.129              0.534
 Vibration    16          0.977              0.995              0.421

                           ! Non-Optimized Parameters !
 Normal termination of Gaussian 16 at Tue Dec  8 10:22:44 2020.

 ----------------------------------------------------------------------
 # B3LYP/6-311++G(d,p) empiricaldispersion=gd3bj scf=xqc pop=npa geom=c
 heck
 ----------------------------------------------------------------------

 --------------------------------------
 CID_129783224_JID_154_Energie_neutraal
 --------------------------------------
 Structure from the checkpoint file:  "JID_154.chk"
 Charge =  0 Multiplicity = 1

 SCF Done:  E(RB3LYP) =  -1197.70571084     A.U. after   14 cycles
 Normal termination of Gaussian 16 at Tue Dec  8 10:23:53 2020.

 ----------------------------------------------------------------------
 # B3LYP/6-311++G(d,p) empiricaldispersion=gd3bj scf=xqc pop=npa geom=c
 heck
 ----------------------------------------------------------------------

 ------------------------------------
 CID_129783224_JID_154_Energie_kation
 ------------------------------------
 Structure from the checkpoint file:  "JID_154.chk"
 Charge =  1 Multiplicity = 2

 SCF Done:  E(UB3LYP) =  -1197.37543551     A.U. after   26 cycles
 Normal termination of Gaussian 16 at Tue Dec  8 10:27:17 2020.
 Gaussian 16:  ES64L-G16RevA.03 25-Dec-2016

 ----------------------------------------------------------------------
 # B3LYP/6-311++G(d,p) empiricaldispersion=gd3bj scf=xqc pop=npa geom=c
 heck
 ----------------------------------------------------------------------

 -----------------------------------
 CID_129783224_JID_154_Energie_anion
 -----------------------------------
 Structure from the checkpoint file:  "JID_154.chk"
 Charge = -1 Multiplicity = 2

                         Standard orientation:
 ---------------------------------------------------------------------
 Center     Atomic      Atomic             Coordinates (Angstroms)
 Number     Number       Type             X           Y           Z
 ---------------------------------------------------------------------
      1          6           0       -3.000724    0.725561    0.689943
      2          6           0       -2.139338    0.331856   -0.509109
      3          7           0       -0.830907   -0.192481   -0.112962
      4          6           0        0.142604    0.652618    0.534992
      5         16           0        1.777984   -0.345313    0.584979
      6          8           0        2.482171   -0.074306   -0.725654
      7          6           0        0.793171   -1.877562    0.374319
      8          6           0       -0.567222   -1.534389   -0.219531
      9          8           0       -1.323641   -2.367203   -0.687017
     10         16           0        0.486543    2.235199   -0.291522
     11          1           0       -3.158976   -0.131076    1.353418
     12          1           0       -3.978731    1.077872    0.346101
     13          1           0       -2.543304    1.535451    1.269394
     14          1           0       -2.611456   -0.468031   -1.082141
     15          1           0       -1.977688    1.188527   -1.169335
     16          1           0       -0.121344    0.884275    1.572675
     17          1           0        0.662187   -2.345476    1.356571
     18          1           0        1.349572   -2.556096   -0.274990
     19          1           0        1.324477    1.667309   -1.198601
 ---------------------------------------------------------------------

 SCF Done:  E(UB3LYP) =  -1197.69615686     A.U. after   31 cycles

 The electronic state is 2-A.
 Alpha  occ. eigenvalues --  -88.86238 -88.75455 -19.00332 -19.00092 -14.25871
 Alpha  occ. eigenvalues --  -10.18596 -10.16907 -10.11337 -10.10642 -10.05752
 Alpha  occ. eigenvalues --   -7.93966  -7.84173  -5.90225  -5.90076  -5.89571
 Alpha  occ. eigenvalues --   -5.80535  -5.80191  -5.79574  -0.95560  -0.93307
 Alpha  occ. eigenvalues --   -0.86270  -0.71379  -0.69023  -0.64833  -0.58837
 Alpha  occ. eigenvalues --   -0.54745  -0.52710  -0.45182  -0.42664  -0.38653
 Alpha  occ. eigenvalues --   -0.38155  -0.36320  -0.35050  -0.33946  -0.32718
 Alpha  occ. eigenvalues --   -0.32350  -0.30544  -0.28578  -0.27744  -0.26643
 Alpha  occ. eigenvalues --   -0.25309  -0.25000  -0.20210  -0.17722  -0.16713
 Alpha  occ. eigenvalues --   -0.16027  -0.14705   0.04735
 Alpha virt. eigenvalues --    0.07403   0.07702   0.08795   0.08854   0.09819
 Alpha virt. eigenvalues --    0.10597   0.10796   0.11378   0.11797   0.12697
 Alpha virt. eigenvalues --    0.13028   0.13331   0.14450   0.14950   0.15788

  Beta  occ. eigenvalues --  -88.86226 -88.75446 -19.00302 -19.00078 -14.25872
  Beta  occ. eigenvalues --  -10.18561 -10.16823 -10.11303 -10.10635 -10.05681
  Beta  occ. eigenvalues --   -7.93955  -7.84165  -5.90217  -5.90052  -5.89554
  Beta  occ. eigenvalues --   -5.80508  -5.80184  -5.79569  -0.95521  -0.93256
  Beta  occ. eigenvalues --   -0.86249  -0.71310  -0.68930  -0.64770  -0.58743
  Beta  occ. eigenvalues --   -0.54641  -0.52640  -0.45050  -0.42568  -0.38562
  Beta  occ. eigenvalues --   -0.38088  -0.36239  -0.34966  -0.33880  -0.32672
  Beta  occ. eigenvalues --   -0.32296  -0.30471  -0.28510  -0.27670  -0.26557
  Beta  occ. eigenvalues --   -0.25237  -0.24902  -0.20154  -0.17629  -0.16674
  Beta  occ. eigenvalues --   -0.15978  -0.14641
  Beta virt. eigenvalues --    0.07607   0.07947   0.08360   0.09315   0.09814
  Beta virt. eigenvalues --    0.10045   0.10861   0.11254   0.11600   0.11973
  Beta virt. eigenvalues --    0.13214   0.13395   0.13578   0.14965   0.15210

 Mulliken charges and spin densities:
               1          2
     1  C    1.843156  -2.266503
     2  C   -1.281399   1.098020
     3  N    0.331611   0.053396
     4  C   -0.051407  -0.591087
     5  S    1.109150  -0.636642
     6  O   -0.465276   0.019866
     7  C   -0.052299  -0.484299
     8  C    0.554855  -0.454050
     9  O   -0.377185   0.037758
    10  S    0.044805  -0.112318
    11  H   -0.353291   0.520880
    12  H   -0.507639   0.648967
    13  H   -0.453909   0.619504
    14  H    0.013613   0.159552
    15  H    0.139530  -0.033652
    16  H   -0.979023   1.303697
    17  H   -0.769918   1.023760
    18  H    0.172250   0.077614
    19  H    0.082377   0.015536
 Sum of Mulliken charges =  -1.00000   1.00000

 Dipole moment (field-independent basis, Debye):
    X=              3.9966    Y=              1.1185    Z=             -5.7710  Tot=              7.1084
 Quadrupole moment (field-independent basis, Debye-Ang):
   XX=           -124.3238   YY=           -112.2125   ZZ=           -114.6397
   XY=             -0.0876   XZ=              8.7624   YZ=             -1.8025

 Summary of Natural Population Analysis:

                                       Natural Population
                Natural  -----------------------------------------------
    Atom  No    Charge         Core      Valence    Rydberg      Total
 -----------------------------------------------------------------------
      C    1   -0.29135      0.99966     2.28669    0.00500     3.29135
      C    2   -0.08945      0.99961     2.07899    0.01085     3.08945
      N    3   -0.27139      0.99960     2.75482    0.01697     3.77139
      C    4   -0.15070      0.99959     2.12926    0.02184     3.15070
      S    5    0.59423      4.99945     2.35625    0.05007     7.40577
      O    6   -0.47682      0.99993     3.47007    0.00681     4.47682
      C    7   -0.31568      0.99956     2.30497    0.01115     3.31568
      C    8    0.34994      0.99962     1.62732    0.02312     2.65006
      O    9   -0.31180      0.99987     3.30633    0.00559     4.31180
      S   10   -0.00731      4.99960     2.99211    0.01560     8.00731
      H   11    0.10521      0.00000     0.39263    0.00216     0.39479
      H   12    0.10262      0.00000     0.39580    0.00158     0.39738
      H   13    0.10201      0.00000     0.39568    0.00231     0.39799
      H   14    0.11152      0.00000     0.38718    0.00131     0.38848
      H   15    0.09998      0.00000     0.39865    0.00137     0.40002
      H   16    0.11515      0.00000     0.37669    0.00815     0.38485
      H   17    0.13004      0.00000     0.36213    0.00784     0.36996
      H   18    0.12258      0.00000     0.37643    0.00099     0.37742
      H   19    0.08122      0.00000     0.41578    0.00300     0.41878
 =======================================================================
   * Total *   -0.00000     17.99650    28.80778    0.19572    47.00000

 Normal termination of Gaussian 16 at Tue Dec  8 10:31:21 2020.
