 Gaussian 16, Revision A.03,

 -----------------------------------------------------------
 # opt freq B3LYP/6-31G(d) empiricaldispersion=gd3bj scf=xqc
 -----------------------------------------------------------

 ------------------------------
 CID_80552659_JID_8168_neutraal
 ------------------------------
 Symbolic Z-matrix:
 Charge =  0 Multiplicity = 1

 SCF Done:  E(RB3LYP) =  -1107.42173194     A.U. after   15 cycles
 SCF Done:  E(RB3LYP) =  -1107.42675352     A.U. after   12 cycles
 SCF Done:  E(RB3LYP) =  -1107.42749011     A.U. after   12 cycles
 SCF Done:  E(RB3LYP) =  -1107.42764627     A.U. after   12 cycles
 SCF Done:  E(RB3LYP) =  -1107.42780680     A.U. after   11 cycles
 SCF Done:  E(RB3LYP) =  -1107.42786907     A.U. after   11 cycles
 SCF Done:  E(RB3LYP) =  -1107.42790402     A.U. after   11 cycles
 SCF Done:  E(RB3LYP) =  -1107.42791590     A.U. after   10 cycles
 SCF Done:  E(RB3LYP) =  -1107.42792739     A.U. after   11 cycles
 SCF Done:  E(RB3LYP) =  -1107.42793530     A.U. after   10 cycles
 SCF Done:  E(RB3LYP) =  -1107.42793888     A.U. after   10 cycles
 SCF Done:  E(RB3LYP) =  -1107.42794041     A.U. after   10 cycles
 SCF Done:  E(RB3LYP) =  -1107.42794190     A.U. after   10 cycles
 SCF Done:  E(RB3LYP) =  -1107.42794216     A.U. after    8 cycles
 SCF Done:  E(RB3LYP) =  -1107.42794219     A.U. after    7 cycles
 Optimization completed.
    -- Stationary point found.
 Normal termination of Gaussian 16 at Fri Dec 11 19:17:38 2020.

 --------------------------------------------------------------------
 #N Geom=AllCheck Guess=TCheck SCRF=Check GenChk RB3LYP/6-31G(d) Freq
 --------------------------------------------------------------------

 Structure from the checkpoint file:  "JID_8168.chk"
 ------------------------------
 CID_80552659_JID_8168_neutraal
 ------------------------------
 Charge =  0 Multiplicity = 1

 SCF Done:  E(RB3LYP) =  -1107.42794219     A.U. after    1 cycles

  Exact polarizability: 227.552  11.499 157.061   7.149  17.162 140.096
 Approx polarizability: 290.247  17.471 285.430  12.748  39.158 236.491

                      1                      2                      3
                      A                      A                      A
 Frequencies --     14.7868                16.4022                29.9676
 Red. masses --      7.2083                 5.2861                 4.6700
 Frc consts  --      0.0009                 0.0008                 0.0025
 IR Inten    --      0.3029                 0.2642                 0.0987

                      4                      5                      6
                      A                      A                      A
 Frequencies --     38.0646                48.5547                69.3524
 Red. masses --      3.5298                 4.5088                 5.2163
 Frc consts  --      0.0030                 0.0063                 0.0148
 IR Inten    --      0.0271                 0.3220                 0.0888

                      7                      8                      9
                      A                      A                      A
 Frequencies --     96.7219               173.0607               194.1336
 Red. masses --      4.0579                 3.1171                 4.0376
 Frc consts  --      0.0224                 0.0550                 0.0897
 IR Inten    --      0.2155                 0.6785                 1.8587

                     10                     11                     12
                      A                      A                      A
 Frequencies --    207.6846               231.4455               234.9975
 Red. masses --      3.8071                 1.8789                 3.9687
 Frc consts  --      0.0968                 0.0593                 0.1291
 IR Inten    --      0.7942                 5.7726                 1.7855

                     13                     14                     15
                      A                      A                      A
 Frequencies --    258.9198               268.0514               328.4394
 Red. masses --      1.1181                 1.4981                 2.8937
 Frc consts  --      0.0442                 0.0634                 0.1839
 IR Inten    --     20.3119                 7.7260                 9.6495

                     16                     17                     18
                      A                      A                      A
 Frequencies --    334.5059               353.5308               385.4429
 Red. masses --      3.1266                 2.0616                 3.2125
 Frc consts  --      0.2061                 0.1518                 0.2812
 IR Inten    --      2.6416                 6.4491                 2.3382

                     19                     20                     21
                      A                      A                      A
 Frequencies --    415.5772               425.2093               498.3314
 Red. masses --      2.9905                 3.2735                 3.4020
 Frc consts  --      0.3043                 0.3487                 0.4978
 IR Inten    --      0.3282                 4.3514                 7.3362

                     22                     23                     24
                      A                      A                      A
 Frequencies --    522.5848               552.8134               573.7894
 Red. masses --      4.4593                 3.6531                 3.5636
 Frc consts  --      0.7175                 0.6578                 0.6913
 IR Inten    --      5.1332                 5.2885                 9.6659

                     25                     26                     27
                      A                      A                      A
 Frequencies --    597.2460               610.6854               636.9842
 Red. masses --      4.2176                 5.9314                 6.3694
 Frc consts  --      0.8864                 1.3033                 1.5227
 IR Inten    --     17.1936                 6.8153                 0.0088

                     28                     29                     30
                      A                      A                      A
 Frequencies --    659.0584               682.5412               716.3860
 Red. masses --      4.1245                 3.0034                 1.7285
 Frc consts  --      1.0555                 0.8244                 0.5227
 IR Inten    --     11.7002                 3.9075                30.9375

                     31                     32                     33
                      A                      A                      A
 Frequencies --    736.0350               765.0807               775.4205
 Red. masses --      1.3287                 4.6875                 2.1080
 Frc consts  --      0.4241                 1.6166                 0.7468
 IR Inten    --     37.2500                23.3234                 9.2790

                     34                     35                     36
                      A                      A                      A
 Frequencies --    797.3886               811.7635               849.8855
 Red. masses --      2.5084                 1.9229                 2.0841
 Frc consts  --      0.9397                 0.7466                 0.8869
 IR Inten    --     70.2387                70.5145                19.0116

                     37                     38                     39
                      A                      A                      A
 Frequencies --    858.6647               887.7839               894.5008
 Red. masses --      1.2723                 4.7166                 1.3201
 Frc consts  --      0.5527                 2.1903                 0.6223
 IR Inten    --      0.0902                 1.1924                 1.0239

                     40                     41                     42
                      A                      A                      A
 Frequencies --    907.0586               922.3890               932.4202
 Red. masses --      1.7735                 1.4440                 1.9387
 Frc consts  --      0.8597                 0.7238                 0.9931
 IR Inten    --     39.8093                 1.9246                69.7113

                     43                     44                     45
                      A                      A                      A
 Frequencies --    959.0967               965.1036               975.0053
 Red. masses --      2.0782                 1.5207                 1.7767
 Frc consts  --      1.1263                 0.8346                 0.9951
 IR Inten    --     67.9766                28.7339                14.3529

                     46                     47                     48
                      A                      A                      A
 Frequencies --    992.0857              1020.6882              1021.6403
 Red. masses --      1.2403                 1.7676                 5.0188
 Frc consts  --      0.7193                 1.0850                 3.0863
 IR Inten    --      0.9203                19.5482                 0.8711

                     49                     50                     51
                      A                      A                      A
 Frequencies --   1053.6654              1062.4020              1089.6013
 Red. masses --      1.6470                 2.1128                 1.9060
 Frc consts  --      1.0774                 1.4050                 1.3332
 IR Inten    --      4.2753                 0.9949                21.8004

                     52                     53                     54
                      A                      A                      A
 Frequencies --   1094.4260              1110.1564              1115.3300
 Red. masses --      1.7080                 1.8151                 1.7152
 Frc consts  --      1.2053                 1.3180                 1.2571
 IR Inten    --      4.7582                39.6093                11.9486

                     55                     56                     57
                      A                      A                      A
 Frequencies --   1124.4644              1164.4838              1192.4718
 Red. masses --      2.2815                 3.1327                 2.1474
 Frc consts  --      1.6997                 2.5029                 1.7991
 IR Inten    --     45.4383                26.1633                10.1264

                     58                     59                     60
                      A                      A                      A
 Frequencies --   1193.1692              1215.2082              1215.3440
 Red. masses --      1.1018                 1.1618                 2.2506
 Frc consts  --      0.9241                 1.0109                 1.9586
 IR Inten    --      0.1792                 0.3630                15.0971

                     61                     62                     63
                      A                      A                      A
 Frequencies --   1222.0956              1251.6300              1275.5845
 Red. masses --      2.3081                 1.6525                 1.2130
 Frc consts  --      2.0310                 1.5252                 1.1628
 IR Inten    --      3.2209                 8.3161                 3.4642

                     64                     65                     66
                      A                      A                      A
 Frequencies --   1284.5620              1341.6953              1355.3300
 Red. masses --      1.7484                 1.3469                 1.8618
 Frc consts  --      1.6998                 1.4285                 2.0150
 IR Inten    --      7.6301                15.7439                 0.4314

                     67                     68                     69
                      A                      A                      A
 Frequencies --   1359.8252              1368.3469              1373.2800
 Red. masses --      1.5478                 2.4806                 1.5201
 Frc consts  --      1.6863                 2.7366                 1.6890
 IR Inten    --      7.4246                 0.2436                 6.0700

                     70                     71                     72
                      A                      A                      A
 Frequencies --   1380.0001              1403.4012              1413.8084
 Red. masses --      1.3063                 1.4134                 1.2789
 Frc consts  --      1.4657                 1.6401                 1.5061
 IR Inten    --     16.6891                 5.5780                 5.6377

                     73                     74                     75
                      A                      A                      A
 Frequencies --   1431.1874              1445.4306              1491.4514
 Red. masses --      1.2781                 1.2627                 1.1770
 Frc consts  --      1.5424                 1.5543                 1.5425
 IR Inten    --      2.2141                 9.9737                 2.6371

                     76                     77                     78
                      A                      A                      A
 Frequencies --   1499.5621              1503.7572              1507.9624
 Red. masses --      3.5550                 2.1418                 1.2190
 Frc consts  --      4.7100                 2.8536                 1.6331
 IR Inten    --      5.2478                 6.9945                 5.2006

                     79                     80                     81
                      A                      A                      A
 Frequencies --   1528.8183              1538.5505              1544.0433
 Red. masses --      1.0551                 1.1084                 1.1380
 Frc consts  --      1.4529                 1.5459                 1.5985
 IR Inten    --     13.2468                36.4811                 1.1310

                     82                     83                     84
                      A                      A                      A
 Frequencies --   1546.4187              1573.4101              1646.0855
 Red. masses --      1.9179                 6.3427                 5.4422
 Frc consts  --      2.7023                 9.2514                 8.6882
 IR Inten    --      8.5868                29.7808                 1.3435

                     85                     86                     87
                      A                      A                      A
 Frequencies --   1665.8478              1695.3975              2974.8099
 Red. masses --      5.5245                 1.0910                 1.0735
 Frc consts  --      9.0327                 1.8477                 5.5970
 IR Inten    --      4.9786                26.2948                49.9117

                     88                     89                     90
                      A                      A                      A
 Frequencies --   3007.0456              3046.1494              3063.7361
 Red. masses --      1.0827                 1.0384                 1.0618
 Frc consts  --      5.7681                 5.6768                 5.8722
 IR Inten    --     33.4057                21.9940                29.7989

                     91                     92                     93
                      A                      A                      A
 Frequencies --   3078.3650              3105.7023              3121.7363
 Red. masses --      1.0850                 1.1019                 1.1032
 Frc consts  --      6.0581                 6.2619                 6.3345
 IR Inten    --     12.1975                31.0210                 6.3076

                     94                     95                     96
                      A                      A                      A
 Frequencies --   3127.7566              3136.7181              3167.6174
 Red. masses --      1.0888                 1.0988                 1.0864
 Frc consts  --      6.2756                 6.3697                 6.4223
 IR Inten    --      7.4582                31.9552                12.8267

                     97                     98                     99
                      A                      A                      A
 Frequencies --   3174.7741              3186.5848              3195.2869
 Red. masses --      1.0866                 1.0892                 1.0936
 Frc consts  --      6.4527                 6.5162                 6.5783
 IR Inten    --      5.8938                 4.3614                41.8670

                    100                    101                    102
                      A                      A                      A
 Frequencies --   3208.5790              3232.9858              3281.3426
 Red. masses --      1.0977                 1.0913                 1.0979
 Frc consts  --      6.6585                 6.7202                 6.9649
 IR Inten    --     28.0817                10.4267                 1.7790

                    103                    104                    105
                      A                      A                      A
 Frequencies --   3453.5716              3493.4792              3539.9078
 Red. masses --      1.0500                 1.0736                 1.0914
 Frc consts  --      7.3785                 7.7196                 8.0576
 IR Inten    --      2.1642                 0.5962                 0.1807

 - Thermochemistry -
 -------------------
 Temperature   298.150 Kelvin.  Pressure   1.00000 Atm.
 Atom     1 has atomic number  6 and mass  12.00000

 Molecular mass:   261.12997 amu.
 Principal axes and moments of inertia in atomic units:
                           1         2         3
     Eigenvalues --  1526.03041********************
           X            0.99999   0.00330   0.00037
           Y           -0.00331   0.99960   0.02792
           Z           -0.00028  -0.02792   0.99961
 This molecule is an asymmetric top.
 Rotational symmetry number  1.
 Warning -- assumption of classical behavior for rotation
           may cause significant error
 Rotational temperatures (Kelvin)      0.05676     0.00646     0.00634
 Rotational constants (GHZ):           1.18264     0.13458     0.13201
 Zero-point vibrational energy     826150.8 (Joules/Mol)
                                  197.45479 (Kcal/Mol)
 Warning -- explicit consideration of  26 degrees of freedom as
           vibrations may cause significant error
 Vibrational temperatures:     21.27    23.60    43.12    54.77    69.86
          (Kelvin)             99.78   139.16   249.00   279.31   298.81
                              333.00   338.11   372.53   385.67   472.55
                              481.28   508.65   554.57   597.92   611.78
                              716.99   751.88   795.38   825.55   859.30
                              878.64   916.48   948.24   982.02  1030.72
                             1058.99  1100.78  1115.66  1147.26  1167.95
                             1222.80  1235.43  1277.32  1286.99  1305.06
                             1327.11  1341.54  1379.93  1388.57  1402.82
                             1427.39  1468.54  1469.91  1515.99  1528.56
                             1567.69  1574.63  1597.27  1604.71  1617.85
                             1675.43  1715.70  1716.70  1748.41  1748.61
                             1758.32  1800.82  1835.28  1848.20  1930.40
                             1950.02  1956.49  1968.75  1975.84  1985.51
                             2019.18  2034.15  2059.16  2079.65  2145.87
                             2157.54  2163.57  2169.62  2199.63  2213.63
                             2221.53  2224.95  2263.79  2368.35  2396.78
                             2439.30  4280.09  4326.47  4382.73  4408.03
                             4429.08  4468.41  4491.48  4500.14  4513.04
                             4557.49  4567.79  4584.78  4597.31  4616.43
                             4651.55  4721.12  4968.92  5026.34  5093.14

 Zero-point correction=                           0.314664 (Hartree/Particle)
 Thermal correction to Energy=                    0.332236
 Thermal correction to Enthalpy=                  0.333180
 Thermal correction to Gibbs Free Energy=         0.265202
 Sum of electronic and zero-point Energies=          -1107.113278
 Sum of electronic and thermal Energies=             -1107.095707
 Sum of electronic and thermal Enthalpies=           -1107.094762
 Sum of electronic and thermal Free Energies=        -1107.162740

                     E (Thermal)             CV                S
                      KCal/Mol        Cal/Mol-Kelvin    Cal/Mol-Kelvin
 Total                  208.481             66.751            143.071
 Electronic               0.000              0.000              0.000
 Translational            0.889              2.981             42.579
 Rotational               0.889              2.981             33.991
 Vibrational            206.704             60.789             66.500
 Vibration     1          0.593              1.986              7.234
 Vibration     2          0.593              1.986              7.028
 Vibration     3          0.594              1.984              5.832
 Vibration     4          0.594              1.982              5.357
 Vibration     5          0.595              1.978              4.875
 Vibration     6          0.598              1.969              4.172
 Vibration     7          0.603              1.952              3.519
 Vibration     8          0.627              1.876              2.402
 Vibration     9          0.635              1.848              2.188
 Vibration    10          0.641              1.829              2.064
 Vibration    11          0.653              1.793              1.868
 Vibration    12          0.655              1.787              1.840
 Vibration    13          0.668              1.748              1.669
 Vibration    14          0.673              1.732              1.609
 Vibration    15          0.712              1.619              1.268
 Vibration    16          0.716              1.607              1.238
 Vibration    17          0.730              1.568              1.150
 Vibration    18          0.754              1.501              1.018
 Vibration    19          0.779              1.436              0.907
 Vibration    20          0.787              1.415              0.874
 Vibration    21          0.854              1.254              0.662
 Vibration    22          0.878              1.200              0.604
 Vibration    23          0.908              1.134              0.538
 Vibration    24          0.930              1.088              0.497
 Vibration    25          0.955              1.038              0.454
 Vibration    26          0.970              1.009              0.432

 Optimization completed.
    -- Stationary point found.
 Normal termination of Gaussian 16 at Fri Dec 11 19:32:57 2020.

 ----------------------------------------------------------------------
 # B3LYP/6-311++G(d,p) empiricaldispersion=gd3bj scf=xqc pop=npa geom=c
 heck
 ----------------------------------------------------------------------

 --------------------------------------
 CID_80552659_JID_8168_Energie_neutraal
 --------------------------------------
 Structure from the checkpoint file:  "JID_8168.chk"
 Charge =  0 Multiplicity = 1

 SCF Done:  E(RB3LYP) =  -1107.65406850     A.U. after   15 cycles
 Normal termination of Gaussian 16 at Fri Dec 11 19:40:21 2020.

 ----------------------------------------------------------------------
 # B3LYP/6-311++G(d,p) empiricaldispersion=gd3bj scf=xqc pop=npa geom=c
 heck
 ----------------------------------------------------------------------

 ------------------------------------
 CID_80552659_JID_8168_Energie_kation
 ------------------------------------
 Structure from the checkpoint file:  "JID_8168.chk"
 Charge =  1 Multiplicity = 2

 SCF Done:  E(UB3LYP) =  -1107.36889259     A.U. after   28 cycles
 Normal termination of Gaussian 16 at Fri Dec 11 19:59:59 2020.
 Gaussian 16:  ES64L-G16RevA.03 25-Dec-2016

 ----------------------------------------------------------------------
 # B3LYP/6-311++G(d,p) empiricaldispersion=gd3bj scf=xqc pop=npa geom=c
 heck
 ----------------------------------------------------------------------

 -----------------------------------
 CID_80552659_JID_8168_Energie_anion
 -----------------------------------
 Structure from the checkpoint file:  "JID_8168.chk"
 Charge = -1 Multiplicity = 2

                         Standard orientation:
 ---------------------------------------------------------------------
 Center     Atomic      Atomic             Coordinates (Angstroms)
 Number     Number       Type             X           Y           Z
 ---------------------------------------------------------------------
      1          6           0       -0.932953   -1.204002    1.157632
      2          6           0       -0.757516    0.232753    0.648534
      3          6           0        0.694101    0.512074    0.230088
      4          7           0        1.120514   -0.390202   -0.843761
      5          6           0        2.356908    0.017998   -1.506977
      6          6           0        3.553765    0.142961   -0.595173
      7          7           0        4.000449    1.262538   -0.102906
      8          6           0        5.034535    1.047336    0.782075
      9          6           0        5.385524   -0.254790    0.987858
     10         16           0        4.385408   -1.291729    0.020332
     11          6           0       -1.730404    0.562280   -0.507299
     12          6           0       -3.166306    0.165844   -0.196162
     13          6           0       -3.811918   -0.822796   -0.944960
     14          6           0       -5.132538   -1.185531   -0.672533
     15          6           0       -5.829131   -0.561290    0.361317
     16          6           0       -5.195895    0.427247    1.119107
     17          6           0       -3.879006    0.785831    0.840074
     18          7           0       -1.577568    1.982246   -0.875430
     19          1           0       -0.832833   -1.927312    0.339455
     20          1           0       -1.919758   -1.354401    1.603031
     21          1           0       -0.177165   -1.439955    1.916538
     22          1           0       -0.980277    0.916789    1.482416
     23          1           0        0.760223    1.531923   -0.155851
     24          1           0        1.345023    0.453462    1.119245
     25          1           0        1.234941   -1.332371   -0.474678
     26          1           0        2.567894   -0.699427   -2.308246
     27          1           0        2.198323    0.999820   -1.963301
     28          1           0        5.505969    1.899030    1.258905
     29          1           0        6.161836   -0.652027    1.626482
     30          1           0       -1.392488   -0.018476   -1.372483
     31          1           0       -3.270657   -1.313866   -1.750448
     32          1           0       -5.615694   -1.955052   -1.268715
     33          1           0       -6.856677   -0.840458    0.576709
     34          1           0       -5.730001    0.917486    1.928734
     35          1           0       -3.397308    1.555620    1.439491
     36          1           0       -2.178519    2.183015   -1.673693
     37          1           0       -1.928119    2.566295   -0.115702
 ---------------------------------------------------------------------

 SCF Done:  E(UB3LYP) =  -1107.64480528     A.U. after   33 cycles
 SCF Done:  E(UB3LYP) =  -1107.64480528     a.u. after    1 cycles

 The electronic state is 2-A.
 Alpha  occ. eigenvalues --  -88.76729 -14.20393 -14.20143 -14.19998 -10.11207
 Alpha  occ. eigenvalues --  -10.10503 -10.10302 -10.09477 -10.08926 -10.08711
 Alpha  occ. eigenvalues --  -10.08527 -10.08427 -10.08392 -10.08277 -10.08176
 Alpha  occ. eigenvalues --  -10.08151 -10.08150 -10.06722  -7.85390  -5.81657
 Alpha  occ. eigenvalues --   -5.81321  -5.81018  -0.85352  -0.81365  -0.79978
 Alpha  occ. eigenvalues --   -0.76109  -0.69668  -0.68781  -0.66204  -0.65627
 Alpha  occ. eigenvalues --   -0.64422  -0.59123  -0.57357  -0.55023  -0.51803
 Alpha  occ. eigenvalues --   -0.49995  -0.48242  -0.46369  -0.44193  -0.42838
 Alpha  occ. eigenvalues --   -0.40386  -0.39681  -0.38228  -0.37851  -0.36842
 Alpha  occ. eigenvalues --   -0.36060  -0.34564  -0.34134  -0.33133  -0.32569
 Alpha  occ. eigenvalues --   -0.32026  -0.31770  -0.29400  -0.28963  -0.28637
 Alpha  occ. eigenvalues --   -0.27608  -0.26939  -0.26485  -0.25964  -0.25400
 Alpha  occ. eigenvalues --   -0.24117  -0.24003  -0.23043  -0.18034  -0.17220
 Alpha  occ. eigenvalues --   -0.17135  -0.16574  -0.14895  -0.14495  -0.12819
 Alpha  occ. eigenvalues --    0.04163
 Alpha virt. eigenvalues --    0.05312   0.06603   0.06926   0.07233   0.07321
 Alpha virt. eigenvalues --    0.07706   0.07829   0.08409   0.08960   0.09102
 Alpha virt. eigenvalues --    0.09632   0.10483   0.10989   0.11405   0.11498

  Beta  occ. eigenvalues --  -88.76697 -14.20383 -14.20108 -14.19957 -10.10928
  Beta  occ. eigenvalues --  -10.10497 -10.10316 -10.09472 -10.08739 -10.08711
  Beta  occ. eigenvalues --  -10.08526 -10.08412 -10.08378 -10.08261 -10.08169
  Beta  occ. eigenvalues --  -10.08147 -10.08132 -10.06716  -7.85361  -5.81646
  Beta  occ. eigenvalues --   -5.81310  -5.80905  -0.85127  -0.81317  -0.79936
  Beta  occ. eigenvalues --   -0.76082  -0.69631  -0.68549  -0.66142  -0.65594
  Beta  occ. eigenvalues --   -0.64179  -0.59071  -0.57322  -0.54953  -0.51762
  Beta  occ. eigenvalues --   -0.49948  -0.48009  -0.46324  -0.43957  -0.42787
  Beta  occ. eigenvalues --   -0.40323  -0.39579  -0.38196  -0.37783  -0.36780
  Beta  occ. eigenvalues --   -0.36024  -0.34526  -0.34083  -0.33094  -0.32378
  Beta  occ. eigenvalues --   -0.31824  -0.31700  -0.29364  -0.28877  -0.28254
  Beta  occ. eigenvalues --   -0.27583  -0.26893  -0.26450  -0.25763  -0.25362
  Beta  occ. eigenvalues --   -0.24101  -0.23981  -0.23018  -0.17383  -0.17148
  Beta  occ. eigenvalues --   -0.17078  -0.16556  -0.14637  -0.13980  -0.12492
  Beta virt. eigenvalues --    0.06239   0.06929   0.07090   0.07282   0.07464
  Beta virt. eigenvalues --    0.07707   0.07967   0.08051   0.08806   0.08982
  Beta virt. eigenvalues --    0.09530   0.09759   0.10431   0.11119   0.11443

 Mulliken charges and spin densities:
               1          2
     1  C   -0.538288  -0.298533
     2  C    0.577486  -0.730994
     3  C   -1.024239   0.643298
     4  N    0.085533   0.002025
     5  C   -0.387843  -0.309289
     6  C    0.156642   0.272270
     7  N   -0.004300   0.013709
     8  C   -0.240958   0.024950
     9  C   -0.265086   0.114316
    10  S   -0.086746   0.084458
    11  C    0.532175  -1.029105
    12  C    0.610409   0.213022
    13  C   -1.343814   1.239523
    14  C    0.189497  -0.587540
    15  C    1.529047  -1.867526
    16  C   -0.010401  -0.458953
    17  C   -0.727440   0.483413
    18  N   -0.192926  -0.070881
    19  H    0.024278   0.116316
    20  H    0.234839  -0.087374
    21  H    0.139471  -0.001279
    22  H    0.029454   0.149392
    23  H    0.197460   0.004127
    24  H    0.193333  -0.045926
    25  H    0.201921   0.013702
    26  H   -0.030169   0.225542
    27  H    0.165192   0.012273
    28  H    0.122307   0.009366
    29  H    0.195363  -0.008173
    30  H    0.227348   0.084976
    31  H   -0.097114   0.234125
    32  H   -0.486755   0.670477
    33  H   -0.505369   0.664810
    34  H   -0.741635   0.930100
    35  H   -0.038972   0.161273
    36  H    0.146084   0.073475
    37  H    0.164220   0.054634
 Sum of Mulliken charges =  -1.00000   1.00000

 Dipole moment (field-independent basis, Debye):
    X=              6.7610    Y=             -0.0642    Z=              0.5548  Tot=              6.7840
 Quadrupole moment (field-independent basis, Debye-Ang):
   XX=           -257.7868   YY=           -144.6407   ZZ=           -142.6374
   XY=             -9.7834   XZ=             13.7366   YZ=             -2.9491

 Summary of Natural Population Analysis:

                                       Natural Population
                Natural  -----------------------------------------------
    Atom  No    Charge         Core      Valence    Rydberg      Total
 -----------------------------------------------------------------------
      C    1   -0.29097      0.99965     2.28649    0.00483     3.29097
      C    2   -0.10978      0.99958     2.09938    0.01081     3.10978
      C    3   -0.08960      0.99960     2.07991    0.01010     3.08960
      N    4   -0.33433      0.99975     2.82329    0.01129     3.83433
      C    5   -0.11228      0.99956     2.09889    0.01383     3.11228
      C    6    0.07503      0.99961     1.90641    0.01895     2.92497
      N    7   -0.24644      0.99964     2.73516    0.01164     3.74644
      C    8   -0.02690      0.99954     2.01359    0.01377     3.02690
      C    9   -0.18479      0.99955     2.17614    0.00910     3.18479
      S   10    0.16987      4.99943     2.80998    0.02072     7.83013
      C   11   -0.02345      0.99953     2.01022    0.01370     3.02345
      C   12   -0.02073      0.99949     2.00862    0.01262     3.02073
      C   13   -0.10216      0.99950     2.09280    0.00985     3.10216
      C   14   -0.09800      0.99956     2.08761    0.01083     3.09800
      C   15   -0.10409      0.99956     2.09415    0.01038     3.10409
      C   16   -0.09762      0.99956     2.08698    0.01108     3.09762
      C   17   -0.10482      0.99950     2.09525    0.01006     3.10482
      N   18   -0.41551      0.99978     2.90645    0.00929     3.91551
      H   19    0.09852      0.00000     0.40046    0.00102     0.40148
      H   20    0.10635      0.00000     0.39287    0.00079     0.39365
      H   21    0.09784      0.00000     0.40134    0.00083     0.40216
      H   22    0.09369      0.00000     0.40477    0.00155     0.40631
      H   23    0.10819      0.00000     0.39038    0.00143     0.39181
      H   24    0.08343      0.00000     0.41464    0.00193     0.41657
      H   25    0.17040      0.00000     0.32703    0.00257     0.32960
      H   26    0.10019      0.00000     0.39877    0.00104     0.39981
      H   27    0.10532      0.00000     0.39321    0.00147     0.39468
      H   28    0.09350      0.00000     0.40545    0.00104     0.40650
      H   29    0.10393      0.00000     0.39517    0.00090     0.39607
      H   30    0.10378      0.00000     0.39369    0.00253     0.39622
      H   31    0.10104      0.00000     0.39772    0.00124     0.39896
      H   32    0.10181      0.00000     0.39691    0.00128     0.39819
      H   33    0.10342      0.00000     0.39454    0.00204     0.39658
      H   34    0.10247      0.00000     0.39577    0.00176     0.39753
      H   35    0.09773      0.00000     0.40045    0.00182     0.40227
      H   36    0.17511      0.00000     0.32355    0.00134     0.32489
      H   37    0.16987      0.00000     0.32852    0.00161     0.33013
 =======================================================================
   * Total *    0.00000     21.99241    47.76656    0.24103    70.00000

 Normal termination of Gaussian 16 at Fri Dec 11 20:23:40 2020.
