 Gaussian 16, Revision A.03,

 -----------------------------------------------------------
 # opt freq B3LYP/6-31G(d) empiricaldispersion=gd3bj scf=xqc
 -----------------------------------------------------------

 -------------------------------
 CID_63485019_JID_10254_neutraal
 -------------------------------
 Symbolic Z-matrix:
 Charge =  0 Multiplicity = 1

 SCF Done:  E(RB3LYP) =  -881.808219004     A.U. after   15 cycles
 SCF Done:  E(RB3LYP) =  -881.818169867     A.U. after   13 cycles
 SCF Done:  E(RB3LYP) =  -881.819795747     A.U. after   13 cycles
 SCF Done:  E(RB3LYP) =  -881.821990919     A.U. after   13 cycles
 SCF Done:  E(RB3LYP) =  -881.822541326     A.U. after   12 cycles
 SCF Done:  E(RB3LYP) =  -881.823356709     A.U. after   12 cycles
 SCF Done:  E(RB3LYP) =  -881.823728472     A.U. after   12 cycles
 SCF Done:  E(RB3LYP) =  -881.823460779     A.U. after   12 cycles
 SCF Done:  E(RB3LYP) =  -881.824203688     A.U. after   11 cycles
 SCF Done:  E(RB3LYP) =  -881.824824255     A.U. after   12 cycles
 SCF Done:  E(RB3LYP) =  -881.825544976     A.U. after   10 cycles
 SCF Done:  E(RB3LYP) =  -881.825547647     A.U. after    9 cycles
 SCF Done:  E(RB3LYP) =  -881.825548120     A.U. after    8 cycles
 SCF Done:  E(RB3LYP) =  -881.825548881     A.U. after    7 cycles
 SCF Done:  E(RB3LYP) =  -881.825549202     A.U. after    7 cycles
 SCF Done:  E(RB3LYP) =  -881.825549248     A.U. after    6 cycles
 Optimization completed.
    -- Stationary point found.
 Normal termination of Gaussian 16 at Sun Dec 13 20:40:56 2020.

 --------------------------------------------------------------------
 #N Geom=AllCheck Guess=TCheck SCRF=Check GenChk RB3LYP/6-31G(d) Freq
 --------------------------------------------------------------------

 Structure from the checkpoint file:  "JID_10254.chk"
 -------------------------------
 CID_63485019_JID_10254_neutraal
 -------------------------------
 Charge =  0 Multiplicity = 1

 SCF Done:  E(RB3LYP) =  -881.825549248     A.U. after    1 cycles

  Exact polarizability: 295.306  -1.194 216.390   4.174  -1.671 100.195
 Approx polarizability: 413.977  -1.878 357.555  11.877  -7.632 152.627

                      1                      2                      3
                      A                      A                      A
 Frequencies --     35.1887                39.4715                52.0876
 Red. masses --      3.9912                 3.4484                 3.2026
 Frc consts  --      0.0029                 0.0032                 0.0051
 IR Inten    --      1.6866                 0.4219                 0.8433

                      4                      5                      6
                      A                      A                      A
 Frequencies --     78.0509                92.8907                95.1549
 Red. masses --      4.0527                 3.4756                 3.3977
 Frc consts  --      0.0145                 0.0177                 0.0181
 IR Inten    --      0.1593                 2.2315                 0.8855

                      7                      8                      9
                      A                      A                      A
 Frequencies --    112.2670               119.3554               131.1635
 Red. masses --      1.0621                 4.3853                 3.3752
 Frc consts  --      0.0079                 0.0368                 0.0342
 IR Inten    --      0.0252                 1.0397                 1.0183

                     10                     11                     12
                      A                      A                      A
 Frequencies --    141.2366               161.5865               212.2827
 Red. masses --      2.6057                 1.0876                 1.4326
 Frc consts  --      0.0306                 0.0167                 0.0380
 IR Inten    --      0.6289                 0.6808                 0.8877

                     13                     14                     15
                      A                      A                      A
 Frequencies --    223.0538               247.5466               248.9119
 Red. masses --      1.4227                 2.2213                 2.9754
 Frc consts  --      0.0417                 0.0802                 0.1086
 IR Inten    --      0.8522                 3.0018                 2.5236

                     16                     17                     18
                      A                      A                      A
 Frequencies --    269.2619               276.5996               298.0616
 Red. masses --      2.9673                 4.6346                 2.9724
 Frc consts  --      0.1268                 0.2089                 0.1556
 IR Inten    --      3.4833                 1.0774                 0.3786

                     19                     20                     21
                      A                      A                      A
 Frequencies --    318.0292               326.0179               335.1639
 Red. masses --      4.2581                 2.7158                 3.7700
 Frc consts  --      0.2537                 0.1701                 0.2495
 IR Inten    --     10.5052                 0.3825                 0.1238

                     22                     23                     24
                      A                      A                      A
 Frequencies --    372.5617               429.3490               451.4617
 Red. masses --      3.6080                 3.3351                 3.2339
 Frc consts  --      0.2951                 0.3622                 0.3883
 IR Inten    --     18.5828                 2.4023                 3.9206

                     25                     26                     27
                      A                      A                      A
 Frequencies --    475.5484               492.5781               503.2158
 Red. masses --      4.3621                 3.6540                 4.9060
 Frc consts  --      0.5812                 0.5224                 0.7320
 IR Inten    --      8.3854                 3.5487                 1.2032

                     28                     29                     30
                      A                      A                      A
 Frequencies --    514.9726               549.9070               603.9339
 Red. masses --      4.8187                 4.0150                 4.7081
 Frc consts  --      0.7529                 0.7153                 1.0118
 IR Inten    --      4.2386                 3.2204                 3.9295

                     31                     32                     33
                      A                      A                      A
 Frequencies --    614.4940               642.0628               658.9532
 Red. masses --      5.4836                 4.5782                 5.1938
 Frc consts  --      1.2200                 1.1120                 1.3287
 IR Inten    --      3.0735                 4.9829                 7.9833

                     34                     35                     36
                      A                      A                      A
 Frequencies --    694.9584               740.5923               762.7896
 Red. masses --      5.1323                 4.1157                 5.5277
 Frc consts  --      1.4604                 1.3300                 1.8950
 IR Inten    --      2.7230                 2.8119                 1.4242

                     37                     38                     39
                      A                      A                      A
 Frequencies --    789.6424               799.0988               809.2480
 Red. masses --      1.8482                 1.4886                 1.8770
 Frc consts  --      0.6790                 0.5601                 0.7242
 IR Inten    --     12.7970                29.4410                 4.9607

                     40                     41                     42
                      A                      A                      A
 Frequencies --    826.3552               839.6568               852.2344
 Red. masses --      1.5304                 1.9966                 2.0315
 Frc consts  --      0.6157                 0.8294                 0.8693
 IR Inten    --     71.2219                11.9013                13.6453

                     43                     44                     45
                      A                      A                      A
 Frequencies --    888.8411               897.3024               925.4206
 Red. masses --      2.8485                 2.7178                 2.1265
 Frc consts  --      1.3259                 1.2893                 1.0730
 IR Inten    --      0.5349                 5.9863                 6.1305

                     46                     47                     48
                      A                      A                      A
 Frequencies --    954.1450               966.4705               967.6387
 Red. masses --      1.3481                 2.0587                 1.7317
 Frc consts  --      0.7231                 1.1330                 0.9553
 IR Inten    --      2.3298                 8.5135                13.2934

                     49                     50                     51
                      A                      A                      A
 Frequencies --    993.1410              1029.4343              1054.8025
 Red. masses --      2.4406                 1.5462                 1.4275
 Frc consts  --      1.4183                 0.9654                 0.9358
 IR Inten    --      3.7903                41.1004                 2.7996

                     52                     53                     54
                      A                      A                      A
 Frequencies --   1065.8688              1085.5112              1094.8669
 Red. masses --      4.1134                 1.5858                 2.8048
 Frc consts  --      2.7533                 1.1009                 1.9810
 IR Inten    --     41.0067                 0.3969                26.4314

                     55                     56                     57
                      A                      A                      A
 Frequencies --   1113.8071              1128.9938              1133.0002
 Red. masses --      1.9815                 2.0312                 1.9796
 Frc consts  --      1.4483                 1.5254                 1.4972
 IR Inten    --     29.8641                 6.8760                33.0284

                     58                     59                     60
                      A                      A                      A
 Frequencies --   1171.0007              1204.7281              1217.0779
 Red. masses --      2.4592                 1.9477                 1.7902
 Frc consts  --      1.9868                 1.6655                 1.5624
 IR Inten    --    218.9306                25.3532               109.1993

                     61                     62                     63
                      A                      A                      A
 Frequencies --   1225.1549              1254.1643              1267.2053
 Red. masses --      1.9819                 3.6940                 3.7380
 Frc consts  --      1.7527                 3.4234                 3.5366
 IR Inten    --     41.7925                36.0383               246.0621

                     64                     65                     66
                      A                      A                      A
 Frequencies --   1301.8058              1311.7358              1333.6146
 Red. masses --      2.4500                 2.2130                 1.3616
 Frc consts  --      2.4463                 2.2435                 1.4268
 IR Inten    --     50.7369               363.9580                91.8173

                     67                     68                     69
                      A                      A                      A
 Frequencies --   1344.5215              1365.7713              1391.9701
 Red. masses --      1.1219                 4.4786                 1.9895
 Frc consts  --      1.1949                 4.9221                 2.2712
 IR Inten    --      7.9187                 1.9843               136.0899

                     70                     71                     72
                      A                      A                      A
 Frequencies --   1401.8554              1423.5787              1426.7281
 Red. masses --      1.6783                 1.4525                 1.3340
 Frc consts  --      1.9432                 1.7343                 1.5999
 IR Inten    --     33.4527                36.0451                11.4968

                     73                     74                     75
                      A                      A                      A
 Frequencies --   1438.2967              1444.0758              1445.9087
 Red. masses --      1.8140                 1.2841                 1.3172
 Frc consts  --      2.2110                 1.5778                 1.6225
 IR Inten    --     28.3303                22.0072                 5.1271

                     76                     77                     78
                      A                      A                      A
 Frequencies --   1448.5858              1474.5763              1493.1239
 Red. masses --      1.6582                 2.5778                 2.4275
 Frc consts  --      2.0502                 3.3024                 3.1886
 IR Inten    --      9.6132                50.0680                40.8731

                     79                     80                     81
                      A                      A                      A
 Frequencies --   1507.5969              1510.8015              1513.8091
 Red. masses --      2.4485                 1.0542                 1.2011
 Frc consts  --      3.2788                 1.4177                 1.6217
 IR Inten    --     68.5926                 2.3586                39.6680

                     82                     83                     84
                      A                      A                      A
 Frequencies --   1515.7194              1518.3319              1518.9278
 Red. masses --      1.0626                 1.0867                 1.0864
 Frc consts  --      1.4383                 1.4760                 1.4768
 IR Inten    --      9.8846                12.9280                12.0459

                     85                     86                     87
                      A                      A                      A
 Frequencies --   1525.4440              1528.4877              1536.1679
 Red. masses --      1.1976                 1.0818                 1.0474
 Frc consts  --      1.6420                 1.4891                 1.4562
 IR Inten    --      6.1893                 0.9755                12.4839

                     88                     89                     90
                      A                      A                      A
 Frequencies --   1538.4238              1545.3399              1587.3225
 Red. masses --      1.0591                 1.1262                 3.3065
 Frc consts  --      1.4768                 1.5846                 4.9085
 IR Inten    --      9.9705                16.5572               131.9681

                     91                     92                     93
                      A                      A                      A
 Frequencies --   1634.4643              1657.9045              1671.8098
 Red. masses --      5.9336                 5.4698                 2.4220
 Frc consts  --      9.3394                 8.8581                 3.9884
 IR Inten    --    173.6912                36.7228               245.2593

                     94                     95                     96
                      A                      A                      A
 Frequencies --   1736.1919              3031.4745              3038.2888
 Red. masses --      6.2679                 1.0742                 1.0427
 Frc consts  --     11.1318                 5.8161                 5.6713
 IR Inten    --    247.4134                45.5108                39.9195

                     97                     98                     99
                      A                      A                      A
 Frequencies --   3041.9766              3053.7241              3061.8221
 Red. masses --      1.0379                 1.0353                 1.0364
 Frc consts  --      5.6587                 5.6881                 5.7243
 IR Inten    --     35.4306                23.2206                20.9468

                    100                    101                    102
                      A                      A                      A
 Frequencies --   3080.7813              3091.1618              3095.7412
 Red. masses --      1.0998                 1.1000                 1.0590
 Frc consts  --      6.1499                 6.1929                 5.9797
 IR Inten    --     28.4733                11.4497                33.9365

                    103                    104                    105
                      A                      A                      A
 Frequencies --   3119.5319              3126.6642              3128.0745
 Red. masses --      1.1004                 1.1022                 1.1016
 Frc consts  --      6.3093                 6.3483                 6.3507
 IR Inten    --      9.2038                45.2098                30.6260

                    106                    107                    108
                      A                      A                      A
 Frequencies --   3128.8964              3141.0946              3147.0333
 Red. masses --      1.1007                 1.1040                 1.0939
 Frc consts  --      6.3487                 6.4180                 6.3832
 IR Inten    --     19.6722                 8.0812                25.7908

                    109                    110                    111
                      A                      A                      A
 Frequencies --   3160.6075              3182.3857              3185.3637
 Red. masses --      1.1074                 1.0950                 1.0896
 Frc consts  --      6.5178                 6.5337                 6.5139
 IR Inten    --     28.7947                 2.1981                20.5275

                    112                    113                    114
                      A                      A                      A
 Frequencies --   3201.4598              3254.1729              3447.5548
 Red. masses --      1.0898                 1.0901                 1.0770
 Frc consts  --      6.5809                 6.8012                 7.5419
 IR Inten    --     10.8757                 6.1007               198.0169

 - Thermochemistry -
 -------------------
 Temperature   298.150 Kelvin.  Pressure   1.00000 Atm.
 Atom     1 has atomic number  6 and mass  12.00000

 Molecular mass:   272.15248 amu.
 Principal axes and moments of inertia in atomic units:
                           1         2         3
     Eigenvalues --  3314.765148673.69975**********
           X            0.99999  -0.00130  -0.00355
           Y            0.00129   1.00000  -0.00152
           Z            0.00355   0.00152   0.99999
 This molecule is an asymmetric top.
 Rotational symmetry number  1.
 Warning -- assumption of classical behavior for rotation
           may cause significant error
 Rotational temperatures (Kelvin)      0.02613     0.00999     0.00742
 Rotational constants (GHZ):           0.54446     0.20807     0.15467
 Zero-point vibrational energy     889341.4 (Joules/Mol)
                                  212.55770 (Kcal/Mol)
 Warning -- explicit consideration of  31 degrees of freedom as
           vibrations may cause significant error
 Vibrational temperatures:     50.63    56.79    74.94   112.30   133.65
          (Kelvin)            136.91   161.53   171.73   188.72   203.21
                              232.49   305.43   320.92   356.16   358.13
                              387.41   397.97   428.84   457.57   469.07
                              482.23   536.03   617.74   649.55   684.21
                              708.71   724.02   740.93   791.19   868.93
                              884.12   923.79   948.09   999.89  1065.55
                             1097.48  1136.12  1149.72  1164.33  1188.94
                             1208.08  1226.18  1278.84  1291.02  1331.47
                             1372.80  1390.54  1392.22  1428.91  1481.13
                             1517.63  1533.55  1561.81  1575.27  1602.52
                             1624.37  1630.13  1684.81  1733.34  1751.10
                             1762.72  1804.46  1823.23  1873.01  1887.30
                             1918.77  1934.47  1965.04  2002.73  2016.96
                             2048.21  2052.74  2069.39  2077.70  2080.34
                             2084.19  2121.59  2148.27  2169.10  2173.71
                             2178.03  2180.78  2184.54  2185.40  2194.77
                             2199.15  2210.20  2213.45  2223.40  2283.80
                             2351.63  2385.35  2405.36  2497.99  4361.62
                             4371.42  4376.73  4393.63  4405.28  4432.56
                             4447.49  4454.08  4488.31  4498.57  4500.60
                             4501.78  4519.33  4527.88  4547.41  4578.74
                             4583.03  4606.19  4682.03  4960.26

 Zero-point correction=                           0.338732 (Hartree/Particle)
 Thermal correction to Energy=                    0.358402
 Thermal correction to Enthalpy=                  0.359346
 Thermal correction to Gibbs Free Energy=         0.290225
 Sum of electronic and zero-point Energies=           -881.486817
 Sum of electronic and thermal Energies=              -881.467148
 Sum of electronic and thermal Enthalpies=            -881.466203
 Sum of electronic and thermal Free Energies=         -881.535324

                     E (Thermal)             CV                S
                      KCal/Mol        Cal/Mol-Kelvin    Cal/Mol-Kelvin
 Total                  224.900             74.074            145.478
 Electronic               0.000              0.000              0.000
 Translational            0.889              2.981             42.702
 Rotational               0.889              2.981             34.172
 Vibrational            223.123             68.112             68.603
 Vibration     1          0.594              1.982              5.513
 Vibration     2          0.594              1.981              5.285
 Vibration     3          0.596              1.977              4.737
 Vibration     4          0.599              1.964              3.939
 Vibration     5          0.602              1.954              3.598
 Vibration     6          0.603              1.953              3.551
 Vibration     7          0.607              1.939              3.229
 Vibration     8          0.609              1.933              3.111
 Vibration     9          0.612              1.922              2.929
 Vibration    10          0.615              1.912              2.787
 Vibration    11          0.622              1.890              2.531
 Vibration    12          0.643              1.822              2.024
 Vibration    13          0.649              1.806              1.934
 Vibration    14          0.661              1.767              1.748
 Vibration    15          0.662              1.765              1.738
 Vibration    16          0.674              1.730              1.601
 Vibration    17          0.678              1.717              1.555
 Vibration    18          0.691              1.677              1.428
 Vibration    19          0.704              1.639              1.320
 Vibration    20          0.710              1.623              1.280
 Vibration    21          0.716              1.605              1.235
 Vibration    22          0.744              1.528              1.069
 Vibration    23          0.791              1.406              0.861
 Vibration    24          0.810              1.358              0.791
 Vibration    25          0.832              1.304              0.722
 Vibration    26          0.848              1.266              0.677
 Vibration    27          0.859              1.243              0.650
 Vibration    28          0.870              1.217              0.622
 Vibration    29          0.905              1.140              0.544
 Vibration    30          0.962              1.023              0.443
 Vibration    31          0.974              1.001              0.425

 Optimization completed.
    -- Stationary point found.
 Normal termination of Gaussian 16 at Sun Dec 13 21:03:20 2020.

 ----------------------------------------------------------------------
 # B3LYP/6-311++G(d,p) empiricaldispersion=gd3bj scf=xqc pop=npa geom=c
 heck
 ----------------------------------------------------------------------

 ---------------------------------------
 CID_63485019_JID_10254_Energie_neutraal
 ---------------------------------------
 Structure from the checkpoint file:  "JID_10254.chk"
 Charge =  0 Multiplicity = 1

 SCF Done:  E(RB3LYP) =  -882.060200967     A.U. after   16 cycles
 Normal termination of Gaussian 16 at Sun Dec 13 21:14:36 2020.

 ----------------------------------------------------------------------
 # B3LYP/6-311++G(d,p) empiricaldispersion=gd3bj scf=xqc pop=npa geom=c
 heck
 ----------------------------------------------------------------------

 -------------------------------------
 CID_63485019_JID_10254_Energie_kation
 -------------------------------------
 Structure from the checkpoint file:  "JID_10254.chk"
 Charge =  1 Multiplicity = 2

 SCF Done:  E(UB3LYP) =  -881.790528709     A.U. after   22 cycles
 Normal termination of Gaussian 16 at Sun Dec 13 21:36:12 2020.
 Gaussian 16:  ES64L-G16RevA.03 25-Dec-2016

 ----------------------------------------------------------------------
 # B3LYP/6-311++G(d,p) empiricaldispersion=gd3bj scf=xqc pop=npa geom=c
 heck
 ----------------------------------------------------------------------

 ------------------------------------
 CID_63485019_JID_10254_Energie_anion
 ------------------------------------
 Structure from the checkpoint file:  "JID_10254.chk"
 Charge = -1 Multiplicity = 2

                         Standard orientation:
 ---------------------------------------------------------------------
 Center     Atomic      Atomic             Coordinates (Angstroms)
 Number     Number       Type             X           Y           Z
 ---------------------------------------------------------------------
      1          6           0       -0.034103    4.319692   -0.073060
      2          6           0       -0.271655    3.044823    0.734703
      3          7           0       -0.781848    1.946216   -0.089510
      4          6           0       -0.304562    0.668781   -0.119292
      5          6           0        1.109027    0.367417   -0.096875
      6          6           0        2.109711    1.354662   -0.250787
      7          6           0        3.443108    1.016072   -0.197885
      8          6           0        3.856824   -0.317103    0.010906
      9          6           0        2.901898   -1.326692    0.104994
     10          6           0        1.515402   -0.999148    0.015772
     11          7           0        0.617276   -2.037143    0.005936
     12          6           0       -0.648483   -1.742363   -0.148447
     13          6           0       -1.190609   -0.430900   -0.221705
     14          6           0       -2.643458   -0.243840   -0.309685
     15          8           0       -3.223628    0.841495   -0.355512
     16          8           0       -3.323183   -1.411331   -0.343681
     17          6           0       -4.763149   -1.321228   -0.414001
     18          6           0       -5.370252   -1.107780    0.963466
     19          6           0        3.321965   -2.763902    0.274307
     20          6           0        5.327975   -0.638374    0.091552
     21          1           0        0.725000    4.166657   -0.847288
     22          1           0        0.296040    5.133286    0.582571
     23          1           0       -0.956003    4.636947   -0.572407
     24          1           0        0.638285    2.724524    1.243803
     25          1           0       -1.013547    3.246880    1.519804
     26          1           0       -1.793972    1.962389   -0.211252
     27          1           0        1.834017    2.378284   -0.464403
     28          1           0        4.197592    1.786712   -0.332695
     29          1           0       -1.338920   -2.579896   -0.193002
     30          1           0       -5.034336   -0.512813   -1.096700
     31          1           0       -5.068264   -2.278230   -0.843447
     32          1           0       -5.064927   -0.139832    1.369143
     33          1           0       -6.463926   -1.125395    0.895605
     34          1           0       -5.053989   -1.897970    1.651913
     35          1           0        3.928405   -2.892531    1.180042
     36          1           0        2.446580   -3.408723    0.339484
     37          1           0        3.940238   -3.098181   -0.569083
     38          1           0        5.584688   -1.104278    1.051212
     39          1           0        5.628767   -1.346974   -0.690244
     40          1           0        5.936928    0.263631   -0.018280
 ---------------------------------------------------------------------

 SCF Done:  E(UB3LYP) =  -882.070579911     A.U. after   27 cycles

 The electronic state is 2-A.
 Alpha  occ. eigenvalues --  -19.03199 -18.96360 -14.18115 -14.15115 -10.14953
 Alpha  occ. eigenvalues --  -10.12172 -10.08842 -10.06921 -10.06905 -10.06581
 Alpha  occ. eigenvalues --  -10.06200 -10.05972 -10.05606 -10.03956 -10.03874
 Alpha  occ. eigenvalues --  -10.03778 -10.03761 -10.03705 -10.02960 -10.02869
 Alpha  occ. eigenvalues --   -0.97243  -0.87944  -0.80912  -0.78945  -0.71720
 Alpha  occ. eigenvalues --   -0.67682  -0.66522  -0.64664  -0.63198  -0.61327
 Alpha  occ. eigenvalues --   -0.58191  -0.55564  -0.54384  -0.51894  -0.49398
 Alpha  occ. eigenvalues --   -0.48152  -0.44941  -0.43781  -0.40666  -0.39666
 Alpha  occ. eigenvalues --   -0.38319  -0.36621  -0.35336  -0.34892  -0.34444
 Alpha  occ. eigenvalues --   -0.33212  -0.32561  -0.32122  -0.31862  -0.30469
 Alpha  occ. eigenvalues --   -0.29844  -0.29002  -0.28709  -0.28295  -0.27893
 Alpha  occ. eigenvalues --   -0.27540  -0.26792  -0.26759  -0.26389  -0.25513
 Alpha  occ. eigenvalues --   -0.25108  -0.24227  -0.22810  -0.21842  -0.20860
 Alpha  occ. eigenvalues --   -0.19777  -0.19490  -0.18023  -0.14757  -0.11791
 Alpha  occ. eigenvalues --   -0.11264  -0.10990  -0.07588   0.03924
 Alpha virt. eigenvalues --    0.06949   0.07526   0.07873   0.09170   0.09390
 Alpha virt. eigenvalues --    0.09769   0.10000   0.10076   0.10693   0.10888
 Alpha virt. eigenvalues --    0.11345   0.12326   0.12440   0.13191   0.13273

  Beta  occ. eigenvalues --  -19.03129 -18.96148 -14.18000 -14.15082 -10.14745
  Beta  occ. eigenvalues --  -10.12174 -10.08820 -10.06892 -10.06594 -10.06470
  Beta  occ. eigenvalues --  -10.06104 -10.05959 -10.05626 -10.03926 -10.03856
  Beta  occ. eigenvalues --  -10.03780 -10.03725 -10.03667 -10.02837 -10.02714
  Beta  occ. eigenvalues --   -0.97008  -0.87612  -0.80584  -0.78773  -0.71475
  Beta  occ. eigenvalues --   -0.67465  -0.66318  -0.64493  -0.63035  -0.61137
  Beta  occ. eigenvalues --   -0.58015  -0.55381  -0.54243  -0.51808  -0.49189
  Beta  occ. eigenvalues --   -0.47820  -0.44769  -0.43613  -0.40488  -0.39537
  Beta  occ. eigenvalues --   -0.38167  -0.36419  -0.35196  -0.34724  -0.34195
  Beta  occ. eigenvalues --   -0.33136  -0.32450  -0.31971  -0.31611  -0.30140
  Beta  occ. eigenvalues --   -0.29683  -0.28841  -0.28563  -0.28167  -0.27621
  Beta  occ. eigenvalues --   -0.27297  -0.26731  -0.26611  -0.26287  -0.25256
  Beta  occ. eigenvalues --   -0.24799  -0.24138  -0.22718  -0.21754  -0.20651
  Beta  occ. eigenvalues --   -0.19273  -0.18547  -0.17082  -0.14508  -0.11310
  Beta  occ. eigenvalues --   -0.11076  -0.10086  -0.06609
  Beta virt. eigenvalues --    0.06816   0.07370   0.07819   0.09118   0.09340
  Beta virt. eigenvalues --    0.09438   0.09877   0.09995   0.10224   0.10632
  Beta virt. eigenvalues --    0.10813   0.11390   0.12255   0.12392   0.13155

 Mulliken charges and spin densities:
               1          2
     1  C   -0.176923  -0.215559
     2  C   -0.292151  -0.005530
     3  N   -0.094335   0.067355
     4  C   -0.276237   0.254306
     5  C    0.371675  -0.021872
     6  C   -0.414056   0.206786
     7  C   -0.726515  -0.092601
     8  C    0.706073   0.121715
     9  C    0.004142   0.040821
    10  C   -0.474834   0.069357
    11  N    0.025119   0.014490
    12  C   -0.231930   0.034075
    13  C    0.397421  -0.017575
    14  C   -0.359665   0.088894
    15  O   -0.356789   0.070589
    16  O   -0.027208   0.013719
    17  C   -0.244547   0.037720
    18  C   -0.199977  -0.119827
    19  C   -0.515607   0.006498
    20  C   -0.509209  -0.028731
    21  H    0.075352   0.067625
    22  H    0.022485   0.070775
    23  H    0.091313   0.042815
    24  H    0.165209  -0.000132
    25  H    0.035796   0.116146
    26  H    0.376501  -0.014554
    27  H   -0.004718  -0.002914
    28  H    0.087114   0.019622
    29  H    0.205297   0.005494
    30  H    0.156912   0.007334
    31  H    0.108988   0.023877
    32  H    0.136259   0.034923
    33  H    0.046535   0.062326
    34  H    0.116140   0.014355
    35  H    0.112358   0.002158
    36  H    0.169070   0.000288
    37  H    0.118437   0.000537
    38  H    0.127490   0.008074
    39  H    0.121270   0.014930
    40  H    0.127745   0.001691
 Sum of Mulliken charges =  -1.00000   1.00000

 Dipole moment (field-independent basis, Debye):
    X=             -0.6201    Y=              0.5351    Z=              0.7230  Tot=              1.0924
 Quadrupole moment (field-independent basis, Debye-Ang):
   XX=           -162.1940   YY=           -147.0670   ZZ=           -131.7559
   XY=              7.4977   XZ=              0.1108   YZ=              1.4847

 Summary of Natural Population Analysis:

                                       Natural Population
                Natural  -----------------------------------------------
    Atom  No    Charge         Core      Valence    Rydberg      Total
 -----------------------------------------------------------------------
      C    1   -0.28715      0.99966     2.28289    0.00460     3.28715
      C    2   -0.08649      0.99963     2.07722    0.00964     3.08649
      N    3   -0.30000      0.99964     2.78999    0.01036     3.80000
      C    4    0.22338      0.99948     1.76688    0.01026     2.77662
      C    5   -0.07113      0.99947     2.06177    0.00989     3.07113
      C    6   -0.04729      0.99954     2.03865    0.00910     3.04729
      C    7   -0.13018      0.99953     2.12171    0.00894     3.13018
      C    8    0.02176      0.99948     1.97079    0.00797     2.97824
      C    9   -0.02444      0.99946     2.01524    0.00974     3.02444
      C   10    0.10944      0.99945     1.87604    0.01507     2.89056
      N   11   -0.26838      0.99968     2.75721    0.01149     3.76838
      C   12    0.05958      0.99959     1.92767    0.01316     2.94042
      C   13   -0.13553      0.99944     2.12758    0.00850     3.13553
      C   14    0.42537      0.99962     1.55181    0.02320     2.57463
      O   15   -0.33123      0.99987     3.32579    0.00556     4.33123
      O   16   -0.28353      0.99986     3.27510    0.00857     4.28353
      C   17   -0.01612      0.99959     2.00500    0.01153     3.01612
      C   18   -0.29902      0.99966     2.29500    0.00436     3.29902
      C   19   -0.28616      0.99960     2.28271    0.00386     3.28616
      C   20   -0.28940      0.99960     2.28476    0.00505     3.28940
      H   21    0.09773      0.00000     0.40080    0.00147     0.40227
      H   22    0.09129      0.00000     0.40749    0.00122     0.40871
      H   23    0.09579      0.00000     0.40262    0.00159     0.40421
      H   24    0.10037      0.00000     0.39809    0.00154     0.39963
      H   25    0.08496      0.00000     0.41330    0.00174     0.41504
      H   26    0.20752      0.00000     0.29018    0.00230     0.29248
      H   27    0.09189      0.00000     0.40592    0.00219     0.40811
      H   28    0.08861      0.00000     0.40979    0.00160     0.41139
      H   29    0.08976      0.00000     0.40915    0.00109     0.41024
      H   30    0.09364      0.00000     0.40459    0.00176     0.40636
      H   31    0.08267      0.00000     0.41586    0.00146     0.41733
      H   32    0.10844      0.00000     0.39006    0.00149     0.39156
      H   33    0.09319      0.00000     0.40544    0.00137     0.40681
      H   34    0.09715      0.00000     0.40152    0.00133     0.40285
      H   35    0.09320      0.00000     0.40596    0.00084     0.40680
      H   36    0.11559      0.00000     0.38248    0.00194     0.38441
      H   37    0.09369      0.00000     0.40546    0.00086     0.40631
      H   38    0.09848      0.00000     0.40001    0.00152     0.40152
      H   39    0.09844      0.00000     0.39999    0.00158     0.40156
      H   40    0.09439      0.00000     0.40447    0.00114     0.40561
 =======================================================================
   * Total *    0.00027     19.99185    52.78700    0.22088    72.99973

 Normal termination of Gaussian 16 at Sun Dec 13 22:02:49 2020.
