 Gaussian 16, Revision A.03,

 -----------------------------------------------------------
 # opt freq B3LYP/6-31G(d) empiricaldispersion=gd3bj scf=xqc
 -----------------------------------------------------------

 -------------------------------
 CID_137181791_JID_2741_neutraal
 -------------------------------
 Symbolic Z-matrix:
 Charge =  0 Multiplicity = 1

 SCF Done:  E(RB3LYP) =  -568.210890971     A.U. after   15 cycles
 SCF Done:  E(RB3LYP) =  -568.220013846     A.U. after   13 cycles
 SCF Done:  E(RB3LYP) =  -568.221005400     A.U. after   12 cycles
 SCF Done:  E(RB3LYP) =  -568.221228072     A.U. after   12 cycles
 SCF Done:  E(RB3LYP) =  -568.221557656     A.U. after   12 cycles
 SCF Done:  E(RB3LYP) =  -568.221757120     A.U. after   11 cycles
 SCF Done:  E(RB3LYP) =  -568.221922364     A.U. after   12 cycles
 SCF Done:  E(RB3LYP) =  -568.222017785     A.U. after   11 cycles
 SCF Done:  E(RB3LYP) =  -568.222046591     A.U. after   11 cycles
 SCF Done:  E(RB3LYP) =  -568.222057629     A.U. after   10 cycles
 SCF Done:  E(RB3LYP) =  -568.222064386     A.U. after   10 cycles
 SCF Done:  E(RB3LYP) =  -568.222065354     A.U. after    8 cycles
 SCF Done:  E(RB3LYP) =  -568.222065510     A.U. after    8 cycles
 SCF Done:  E(RB3LYP) =  -568.222065591     A.U. after    8 cycles
 Optimization completed.
    -- Stationary point found.
 Normal termination of Gaussian 16 at Wed Dec  9 18:06:47 2020.

 --------------------------------------------------------------------
 #N Geom=AllCheck Guess=TCheck SCRF=Check GenChk RB3LYP/6-31G(d) Freq
 --------------------------------------------------------------------

 Structure from the checkpoint file:  "JID_2741.chk"
 -------------------------------
 CID_137181791_JID_2741_neutraal
 -------------------------------
 Charge =  0 Multiplicity = 1

 SCF Done:  E(RB3LYP) =  -568.222065591     A.U. after    1 cycles

  Exact polarizability: 125.872  -1.939 119.905   6.456   4.712  61.406
 Approx polarizability: 199.760  -2.569 171.258  17.708  12.790  95.861

                      1                      2                      3
                      A                      A                      A
 Frequencies --     42.8723                93.9684               109.0291
 Red. masses --      2.9279                 3.5454                 4.5454
 Frc consts  --      0.0032                 0.0184                 0.0318
 IR Inten    --      0.4356                 2.1075                 4.6115

                      4                      5                      6
                      A                      A                      A
 Frequencies --    143.0279               163.7646               174.1845
 Red. masses --      2.6575                 1.1142                 3.7431
 Frc consts  --      0.0320                 0.0176                 0.0669
 IR Inten    --      1.2708                 0.6049                 3.8072

                      7                      8                      9
                      A                      A                      A
 Frequencies --    206.9062               222.7005               268.0186
 Red. masses --      3.3485                 2.3765                 2.0710
 Frc consts  --      0.0845                 0.0694                 0.0877
 IR Inten    --      7.9456                 1.5682                 1.5774

                     10                     11                     12
                      A                      A                      A
 Frequencies --    300.7363               352.3740               370.1096
 Red. masses --      2.0878                 4.5336                 3.1881
 Frc consts  --      0.1113                 0.3317                 0.2573
 IR Inten    --     11.8864                 6.4631                 8.8359

                     13                     14                     15
                      A                      A                      A
 Frequencies --    402.2065               424.9604               529.5481
 Red. masses --      4.5598                 4.2513                 1.1690
 Frc consts  --      0.4346                 0.4523                 0.1931
 IR Inten    --      0.2041                10.4618                34.1552

                     16                     17                     18
                      A                      A                      A
 Frequencies --    554.7224               579.8756               608.2188
 Red. masses --      2.8139                 3.9702                 2.3701
 Frc consts  --      0.5102                 0.7866                 0.5166
 IR Inten    --     11.0728                12.9258               133.1202

                     19                     20                     21
                      A                      A                      A
 Frequencies --    640.1569               671.0587               682.7967
 Red. masses --      1.5052                 2.5120                 3.3701
 Frc consts  --      0.3634                 0.6665                 0.9257
 IR Inten    --    207.8991                18.4225               169.5731

                     22                     23                     24
                      A                      A                      A
 Frequencies --    717.0302               764.0542               775.7357
 Red. masses --      4.4188                 3.0774                 3.8967
 Frc consts  --      1.3385                 1.0585                 1.3816
 IR Inten    --     39.1298                13.5669                10.0455

                     25                     26                     27
                      A                      A                      A
 Frequencies --    813.0453               834.6257               908.9456
 Red. masses --      1.5492                 1.1749                 4.8343
 Frc consts  --      0.6034                 0.4822                 2.3532
 IR Inten    --     67.8539                29.6186                 2.8015

                     28                     29                     30
                      A                      A                      A
 Frequencies --    988.3694              1053.4140              1088.9519
 Red. masses --      2.4558                 1.8234                 3.1647
 Frc consts  --      1.4135                 1.1922                 2.2110
 IR Inten    --      2.3062                 8.9082                28.6864

                     31                     32                     33
                      A                      A                      A
 Frequencies --   1099.1106              1122.7772              1147.7014
 Red. masses --      1.9708                 1.6060                 1.8626
 Frc consts  --      1.4027                 1.1929                 1.4455
 IR Inten    --     19.0394                18.8260                72.6320

                     34                     35                     36
                      A                      A                      A
 Frequencies --   1169.5305              1200.4836              1239.7713
 Red. masses --      1.3866                 1.4500                 3.3761
 Frc consts  --      1.1175                 1.2312                 3.0573
 IR Inten    --      5.6926                25.5219                37.9484

                     37                     38                     39
                      A                      A                      A
 Frequencies --   1286.0263              1292.9690              1309.7117
 Red. masses --      4.5144                 2.0797                 1.1755
 Frc consts  --      4.3989                 2.0485                 1.1881
 IR Inten    --     30.5294                13.9820                 6.9407

                     40                     41                     42
                      A                      A                      A
 Frequencies --   1370.3749              1413.7951              1443.8823
 Red. masses --      1.4946                 3.2721                 1.3260
 Frc consts  --      1.6536                 3.8535                 1.6288
 IR Inten    --      9.6703                45.7295                 4.6918

                     43                     44                     45
                      A                      A                      A
 Frequencies --   1452.8239              1459.6301              1482.0895
 Red. masses --      2.2198                 1.3889                 1.8254
 Frc consts  --      2.7605                 1.7434                 2.3624
 IR Inten    --     45.8584                36.1747                33.2863

                     46                     47                     48
                      A                      A                      A
 Frequencies --   1514.1598              1516.9572              1533.7846
 Red. masses --      1.0898                 1.0476                 1.0487
 Frc consts  --      1.4721                 1.4204                 1.4535
 IR Inten    --      1.9592                10.2114                 9.8794

                     49                     50                     51
                      A                      A                      A
 Frequencies --   1540.3673              1545.8294              1657.4692
 Red. masses --      1.0663                 1.0688                 2.2982
 Frc consts  --      1.4907                 1.5048                 3.7198
 IR Inten    --     11.7302                 2.7241                14.1418

                     52                     53                     54
                      A                      A                      A
 Frequencies --   1662.4007              1707.7629              1772.4159
 Red. masses --      3.5210                 2.9967                 8.4013
 Frc consts  --      5.7331                 5.1494                15.5499
 IR Inten    --    222.5553               256.4180               377.4503

                     55                     56                     57
                      A                      A                      A
 Frequencies --   3036.3894              3049.7899              3052.2939
 Red. masses --      1.0699                 1.0359                 1.0378
 Frc consts  --      5.8116                 5.6771                 5.6964
 IR Inten    --      7.2941                56.0192                23.7936

                     58                     59                     60
                      A                      A                      A
 Frequencies --   3101.1209              3111.9206              3121.4162
 Red. masses --      1.0943                 1.1054                 1.1015
 Frc consts  --      6.2004                 6.3073                 6.3230
 IR Inten    --      1.5984                28.7261                26.3555

                     61                     62                     63
                      A                      A                      A
 Frequencies --   3135.9556              3173.2628              3510.2835
 Red. masses --      1.1003                 1.0998                 1.0522
 Frc consts  --      6.3751                 6.5251                 7.6386
 IR Inten    --     20.6778                 0.5029                74.0539

                     64                     65                     66
                      A                      A                      A
 Frequencies --   3516.0651              3523.3939              3651.0159
 Red. masses --      1.0740                 1.0762                 1.0968
 Frc consts  --      7.8232                 7.8716                 8.6139
 IR Inten    --      3.3720                13.4253                59.5387

 - Thermochemistry -
 -------------------
 Temperature   298.150 Kelvin.  Pressure   1.00000 Atm.
 Atom     1 has atomic number  6 and mass  12.00000

 Molecular mass:   168.10111 amu.
 Principal axes and moments of inertia in atomic units:
                           1         2         3
     Eigenvalues --  1816.256691847.014113501.17097
           X           -0.64097   0.76754  -0.00580
           Y            0.76756   0.64096  -0.00440
           Z           -0.00034   0.00727   0.99997
 This molecule is an asymmetric top.
 Rotational symmetry number  1.
 Warning -- assumption of classical behavior for rotation
           may cause significant error
 Rotational temperatures (Kelvin)      0.04769     0.04689     0.02474
 Rotational constants (GHZ):           0.99366     0.97711     0.51547
 Zero-point vibrational energy     528810.1 (Joules/Mol)
                                  126.38864 (Kcal/Mol)
 Warning -- explicit consideration of  18 degrees of freedom as
           vibrations may cause significant error
 Vibrational temperatures:     61.68   135.20   156.87   205.79   235.62
          (Kelvin)            250.61   297.69   320.42   385.62   432.69
                              506.99   532.51   578.69   611.42   761.90
                              798.12   834.31   875.09   921.04   965.50
                              982.39  1031.65  1099.30  1116.11  1169.79
                             1200.84  1307.77  1422.04  1515.63  1566.76
                             1581.37  1615.43  1651.29  1682.69  1727.23
                             1783.75  1850.31  1860.29  1884.38  1971.66
                             2034.14  2077.42  2090.29  2100.08  2132.40
                             2178.54  2182.56  2206.77  2216.24  2224.10
                             2384.73  2391.82  2457.09  2550.11  4368.69
                             4387.97  4391.57  4461.82  4477.36  4491.02
                             4511.94  4565.62  5050.52  5058.83  5069.38
                             5253.00

 Zero-point correction=                           0.201413 (Hartree/Particle)
 Thermal correction to Energy=                    0.213579
 Thermal correction to Enthalpy=                  0.214523
 Thermal correction to Gibbs Free Energy=         0.163213
 Sum of electronic and zero-point Energies=           -568.020652
 Sum of electronic and thermal Energies=              -568.008487
 Sum of electronic and thermal Enthalpies=            -568.007543
 Sum of electronic and thermal Free Energies=         -568.058852

                     E (Thermal)             CV                S
                      KCal/Mol        Cal/Mol-Kelvin    Cal/Mol-Kelvin
 Total                  134.023             45.443            107.990
 Electronic               0.000              0.000              0.000
 Translational            0.889              2.981             41.266
 Rotational               0.889              2.981             30.841
 Vibrational            132.245             39.481             35.883
 Vibration     1          0.595              1.980              5.122
 Vibration     2          0.603              1.953              3.576
 Vibration     3          0.606              1.942              3.286
 Vibration     4          0.616              1.910              2.763
 Vibration     5          0.623              1.887              2.506
 Vibration     6          0.627              1.874              2.390
 Vibration     7          0.641              1.830              2.071
 Vibration     8          0.648              1.807              1.937
 Vibration     9          0.673              1.732              1.609
 Vibration    10          0.693              1.672              1.413
 Vibration    11          0.729              1.570              1.156
 Vibration    12          0.742              1.534              1.079
 Vibration    13          0.768              1.465              0.955
 Vibration    14          0.787              1.416              0.875
 Vibration    15          0.885              1.185              0.588
 Vibration    16          0.910              1.129              0.534
 Vibration    17          0.937              1.075              0.486
 Vibration    18          0.967              1.014              0.436

                           ! Non-Optimized Parameters !
 Normal termination of Gaussian 16 at Wed Dec  9 18:12:10 2020.

 ----------------------------------------------------------------------
 # B3LYP/6-311++G(d,p) empiricaldispersion=gd3bj scf=xqc pop=npa geom=c
 heck
 ----------------------------------------------------------------------

 ---------------------------------------
 CID_137181791_JID_2741_Energie_neutraal
 ---------------------------------------
 Structure from the checkpoint file:  "JID_2741.chk"
 Charge =  0 Multiplicity = 1

 SCF Done:  E(RB3LYP) =  -568.395902366     A.U. after   15 cycles
 Normal termination of Gaussian 16 at Wed Dec  9 18:14:42 2020.

 ----------------------------------------------------------------------
 # B3LYP/6-311++G(d,p) empiricaldispersion=gd3bj scf=xqc pop=npa geom=c
 heck
 ----------------------------------------------------------------------

 -------------------------------------
 CID_137181791_JID_2741_Energie_kation
 -------------------------------------
 Structure from the checkpoint file:  "JID_2741.chk"
 Charge =  1 Multiplicity = 2

 SCF Done:  E(UB3LYP) =  -568.098446209     A.U. after   29 cycles
 Normal termination of Gaussian 16 at Wed Dec  9 18:20:05 2020.
 Gaussian 16:  ES64L-G16RevA.03 25-Dec-2016

 ----------------------------------------------------------------------
 # B3LYP/6-311++G(d,p) empiricaldispersion=gd3bj scf=xqc pop=npa geom=c
 heck
 ----------------------------------------------------------------------

 ------------------------------------
 CID_137181791_JID_2741_Energie_anion
 ------------------------------------
 Structure from the checkpoint file:  "JID_2741.chk"
 Charge = -1 Multiplicity = 2

                         Standard orientation:
 ---------------------------------------------------------------------
 Center     Atomic      Atomic             Coordinates (Angstroms)
 Number     Number       Type             X           Y           Z
 ---------------------------------------------------------------------
      1          6           0       -3.330353   -0.786194    0.495236
      2          6           0       -2.024681   -1.244333   -0.168477
      3          6           0       -0.918209   -0.232402   -0.125948
      4          6           0        0.435991   -0.401536   -0.040028
      5          6           0        1.034115    0.930839    0.093282
      6          8           0        2.213613    1.280440    0.159244
      7          7           0       -0.042895    1.821138    0.122083
      8          7           0       -1.224958    1.121382   -0.169949
      9          6           0        0.075052    3.200474   -0.304028
     10          6           0        1.215654   -1.658758   -0.079693
     11          7           0        0.837533   -2.782778   -0.590080
     12          7           0        2.438644   -1.561946    0.545826
     13          1           0       -3.172367   -0.519832    1.546508
     14          1           0       -4.068325   -1.592738    0.464790
     15          1           0       -3.770490    0.074139   -0.022215
     16          1           0       -1.656900   -2.156961    0.310224
     17          1           0       -2.226807   -1.505513   -1.216850
     18          1           0       -2.007623    1.426641    0.403937
     19          1           0        1.115848    3.481125   -0.133253
     20          1           0       -0.167913    3.313166   -1.367408
     21          1           0       -0.577518    3.848057    0.290710
     22          1           0       -0.077047   -2.687636   -1.027834
     23          1           0        2.848743   -0.632252    0.568949
     24          1           0        3.067820   -2.324836    0.331260
 ---------------------------------------------------------------------

 SCF Done:  E(UB3LYP) =  -568.395582718     A.U. after   31 cycles

 The electronic state is 2-A.
 Alpha  occ. eigenvalues --  -18.97496 -14.26725 -14.26434 -14.20144 -14.15618
 Alpha  occ. eigenvalues --  -10.15499 -10.13260 -10.11142 -10.10142 -10.08041
 Alpha  occ. eigenvalues --  -10.06354 -10.06105  -0.95279  -0.90100  -0.83083
 Alpha  occ. eigenvalues --   -0.75726  -0.73217  -0.68103  -0.66992  -0.59753
 Alpha  occ. eigenvalues --   -0.54973  -0.51416  -0.47016  -0.45395  -0.43095
 Alpha  occ. eigenvalues --   -0.41324  -0.37975  -0.36007  -0.35333  -0.33971
 Alpha  occ. eigenvalues --   -0.33481  -0.32731  -0.31726  -0.29921  -0.29527
 Alpha  occ. eigenvalues --   -0.27574  -0.26707  -0.25990  -0.25547  -0.24275
 Alpha  occ. eigenvalues --   -0.16651  -0.15276  -0.15057  -0.12898  -0.11400
 Alpha  occ. eigenvalues --    0.03918
 Alpha virt. eigenvalues --    0.06939   0.07347   0.08889   0.09399   0.09815
 Alpha virt. eigenvalues --    0.10402   0.10868   0.11761   0.12274   0.13067
 Alpha virt. eigenvalues --    0.13354   0.13595   0.14494   0.15082   0.15969

  Beta  occ. eigenvalues --  -18.97449 -14.26664 -14.26427 -14.20139 -14.15593
  Beta  occ. eigenvalues --  -10.15452 -10.13240 -10.10891 -10.10091 -10.08047
  Beta  occ. eigenvalues --  -10.06274 -10.06115  -0.95178  -0.89994  -0.83047
  Beta  occ. eigenvalues --   -0.75533  -0.73180  -0.67933  -0.66901  -0.59608
  Beta  occ. eigenvalues --   -0.54799  -0.51308  -0.46957  -0.45250  -0.42969
  Beta  occ. eigenvalues --   -0.41250  -0.37798  -0.35904  -0.35185  -0.33919
  Beta  occ. eigenvalues --   -0.33420  -0.32668  -0.31637  -0.29746  -0.29420
  Beta  occ. eigenvalues --   -0.27425  -0.26546  -0.25860  -0.25423  -0.24011
  Beta  occ. eigenvalues --   -0.16509  -0.15198  -0.14704  -0.12742  -0.11124
  Beta virt. eigenvalues --    0.06869   0.07966   0.08435   0.09134   0.09902
  Beta virt. eigenvalues --    0.10473   0.10867   0.11401   0.11902   0.12645
  Beta virt. eigenvalues --    0.13195   0.13689   0.13905   0.14640   0.15236

 Mulliken charges and spin densities:
               1          2
     1  C    2.185510  -2.902892
     2  C   -2.411841   1.942348
     3  C   -0.284301  -0.165819
     4  C    1.830667  -0.261496
     5  C    0.097547  -0.280903
     6  O   -0.429588   0.015705
     7  N    0.047378  -0.021400
     8  N   -0.287850   0.334376
     9  C    0.637099  -0.989406
    10  C   -0.638888  -0.120416
    11  N   -0.383043   0.035268
    12  N   -0.298834   0.000247
    13  H   -0.324687   0.489672
    14  H   -0.441036   0.594513
    15  H   -0.540805   0.699128
    16  H    0.158733  -0.009279
    17  H   -0.147468   0.355956
    18  H    0.037007   0.248697
    19  H    0.092448   0.080433
    20  H   -0.239865   0.415163
    21  H   -0.338136   0.484686
    22  H    0.151243   0.053154
    23  H    0.272777   0.005653
    24  H    0.255932  -0.003388
 Sum of Mulliken charges =  -1.00000   1.00000

 Dipole moment (field-independent basis, Debye):
    X=              4.1376    Y=             -0.0842    Z=              0.3964  Tot=              4.1574
 Quadrupole moment (field-independent basis, Debye-Ang):
   XX=           -127.0174   YY=           -117.6688   ZZ=            -95.9426
   XY=              1.1562   XZ=             -0.3091   YZ=             -0.3641

 Summary of Natural Population Analysis:

                                       Natural Population
                Natural  -----------------------------------------------
    Atom  No    Charge         Core      Valence    Rydberg      Total
 -----------------------------------------------------------------------
      C    1   -0.28739      0.99967     2.28210    0.00562     3.28739
      C    2   -0.21846      0.99960     2.20883    0.01003     3.21846
      C    3    0.18187      0.99949     1.80628    0.01236     2.81813
      C    4   -0.14345      0.99935     2.13350    0.01060     3.14345
      C    5    0.32817      0.99959     1.64873    0.02351     2.67183
      O    6   -0.34646      0.99987     3.34131    0.00527     4.34646
      N    7   -0.16079      0.99966     2.64814    0.01300     3.66079
      N    8   -0.19306      0.99965     2.68152    0.01189     3.69306
      C    9   -0.17890      0.99964     2.17039    0.00887     3.17890
      C   10    0.22433      0.99964     1.75963    0.01641     2.77567
      N   11   -0.37890      0.99972     2.87071    0.00848     3.87890
      N   12   -0.40489      0.99970     2.89610    0.00909     3.90489
      H   13    0.09913      0.00000     0.39934    0.00153     0.40087
      H   14    0.10502      0.00000     0.39344    0.00154     0.39498
      H   15    0.10069      0.00000     0.39653    0.00278     0.39931
      H   16    0.11031      0.00000     0.38812    0.00157     0.38969
      H   17    0.11331      0.00000     0.38488    0.00181     0.38669
      H   18    0.19565      0.00000     0.30155    0.00280     0.30435
      H   19    0.11204      0.00000     0.38681    0.00115     0.38796
      H   20    0.09631      0.00000     0.40184    0.00185     0.40369
      H   21    0.09503      0.00000     0.40372    0.00125     0.40497
      H   22    0.16203      0.00000     0.33499    0.00298     0.33797
      H   23    0.20384      0.00000     0.29414    0.00202     0.29616
      H   24    0.18457      0.00000     0.31400    0.00143     0.31543
 =======================================================================
   * Total *   -0.00000     11.99557    32.84660    0.15783    45.00000

 Normal termination of Gaussian 16 at Wed Dec  9 18:26:03 2020.
