 Gaussian 16, Revision A.03,

 -----------------------------------------------------------
 # opt freq B3LYP/6-31G(d) empiricaldispersion=gd3bj scf=xqc
 -----------------------------------------------------------

 -------------------------------
 CID_134561576_JID_4314_neutraal
 -------------------------------
 Symbolic Z-matrix:
 Charge =  0 Multiplicity = 1

 SCF Done:  E(RB3LYP) =  -655.708012583     A.U. after   15 cycles
 SCF Done:  E(RB3LYP) =  -655.712092694     A.U. after   12 cycles
 SCF Done:  E(RB3LYP) =  -655.712008869     A.U. after   12 cycles
 SCF Done:  E(RB3LYP) =  -655.712637693     A.U. after   12 cycles
 SCF Done:  E(RB3LYP) =  -655.713142700     A.U. after   12 cycles
 SCF Done:  E(RB3LYP) =  -655.713394723     A.U. after   12 cycles
 SCF Done:  E(RB3LYP) =  -655.713496216     A.U. after   14 cycles
 SCF Done:  E(RB3LYP) =  -655.714157388     A.U. after   11 cycles
 SCF Done:  E(RB3LYP) =  -655.714820718     A.U. after   13 cycles
 SCF Done:  E(RB3LYP) =  -655.714910342     A.U. after   12 cycles
 SCF Done:  E(RB3LYP) =  -655.716256312     A.U. after    9 cycles
 SCF Done:  E(RB3LYP) =  -655.716257075     A.U. after    9 cycles
 SCF Done:  E(RB3LYP) =  -655.716257155     A.U. after    8 cycles
 SCF Done:  E(RB3LYP) =  -655.716257283     A.U. after    8 cycles
 SCF Done:  E(RB3LYP) =  -655.716257298     A.U. after    7 cycles
 Optimization completed.
    -- Stationary point found.
 Normal termination of Gaussian 16 at Thu Dec 10 09:37:57 2020.

 --------------------------------------------------------------------
 #N Geom=AllCheck Guess=TCheck SCRF=Check GenChk RB3LYP/6-31G(d) Freq
 --------------------------------------------------------------------

 Structure from the checkpoint file:  "JID_4314.chk"
 -------------------------------
 CID_134561576_JID_4314_neutraal
 -------------------------------
 Charge =  0 Multiplicity = 1

 SCF Done:  E(RB3LYP) =  -655.716257298     A.U. after    1 cycles

  Exact polarizability: 145.094  -5.071 124.574   5.976   7.100  98.600
 Approx polarizability: 169.932  -6.819 191.071   9.393  17.222 145.327

                      1                      2                      3
                      A                      A                      A
 Frequencies --     11.7398                27.9740                42.2865
 Red. masses --      4.3168                 3.2191                 3.8741
 Frc consts  --      0.0004                 0.0015                 0.0041
 IR Inten    --      0.3299                 1.0141                 2.3621

                      4                      5                      6
                      A                      A                      A
 Frequencies --     51.5618                65.9908                93.9996
 Red. masses --      3.3490                 5.3621                 2.7033
 Frc consts  --      0.0052                 0.0138                 0.0141
 IR Inten    --      0.1642                 0.0489                 0.1721

                      7                      8                      9
                      A                      A                      A
 Frequencies --    140.4622               145.7325               174.4428
 Red. masses --      3.1870                 2.0579                 3.0991
 Frc consts  --      0.0370                 0.0258                 0.0556
 IR Inten    --      0.1405                 0.6409                 5.1202

                     10                     11                     12
                      A                      A                      A
 Frequencies --    208.9163               240.7809               277.2033
 Red. masses --      3.7818                 1.2041                 2.5351
 Frc consts  --      0.0973                 0.0411                 0.1148
 IR Inten    --      7.2118                 0.9095                 0.0890

                     13                     14                     15
                      A                      A                      A
 Frequencies --    319.0279               345.0805               366.3340
 Red. masses --      2.3895                 4.9927                 2.4320
 Frc consts  --      0.1433                 0.3503                 0.1923
 IR Inten    --      1.7922                 6.3817                11.0656

                     16                     17                     18
                      A                      A                      A
 Frequencies --    385.0624               444.6000               488.1321
 Red. masses --      2.5796                 2.3802                 2.5062
 Frc consts  --      0.2254                 0.2772                 0.3518
 IR Inten    --      2.3162                 2.3619                 1.0780

                     19                     20                     21
                      A                      A                      A
 Frequencies --    529.8187               557.9345               641.3461
 Red. masses --      2.9129                 3.5682                 2.3341
 Frc consts  --      0.4818                 0.6544                 0.5657
 IR Inten    --      1.8339                 8.6266                 0.7053

                     22                     23                     24
                      A                      A                      A
 Frequencies --    703.3273               741.0175               810.2824
 Red. masses --      4.7208                 2.6751                 1.3878
 Frc consts  --      1.3759                 0.8654                 0.5369
 IR Inten    --      3.6964                 1.2197                 1.3718

                     25                     26                     27
                      A                      A                      A
 Frequencies --    819.2263               825.1744               856.0073
 Red. masses --      1.6751                 1.8497                 1.3706
 Frc consts  --      0.6624                 0.7421                 0.5917
 IR Inten    --      0.9137                 8.1187                14.3009

                     28                     29                     30
                      A                      A                      A
 Frequencies --    868.9152               888.1403               897.1761
 Red. masses --      2.6217                 2.8980                 3.2665
 Frc consts  --      1.1662                 1.3468                 1.5491
 IR Inten    --     10.0960                 2.8436                 1.7853

                     31                     32                     33
                      A                      A                      A
 Frequencies --    914.7392               916.5909               941.0204
 Red. masses --      2.2470                 1.8315                 2.3108
 Frc consts  --      1.1078                 0.9066                 1.2056
 IR Inten    --      5.9749                 7.5715                 5.2403

                     34                     35                     36
                      A                      A                      A
 Frequencies --    967.0824               988.4371              1044.4549
 Red. masses --      2.0872                 1.8720                 2.3772
 Frc consts  --      1.1501                 1.0776                 1.5279
 IR Inten    --      1.6970                 9.3091                33.3457

                     37                     38                     39
                      A                      A                      A
 Frequencies --   1056.8795              1077.3472              1084.0537
 Red. masses --      2.0102                 2.0057                 1.7694
 Frc consts  --      1.3229                 1.3716                 1.2251
 IR Inten    --     10.9948                10.2129                13.6755

                     40                     41                     42
                      A                      A                      A
 Frequencies --   1089.1430              1116.8693              1156.9080
 Red. masses --      2.2627                 1.9982                 1.6902
 Frc consts  --      1.5814                 1.4686                 1.3329
 IR Inten    --     90.6448                 1.9166                59.5449

                     43                     44                     45
                      A                      A                      A
 Frequencies --   1164.6179              1177.1843              1196.2005
 Red. masses --      1.3399                 2.7856                 2.0604
 Frc consts  --      1.0707                 2.2744                 1.7370
 IR Inten    --    101.2494               110.9825               160.0376

                     46                     47                     48
                      A                      A                      A
 Frequencies --   1214.6403              1242.7896              1253.6835
 Red. masses --      1.9229                 1.2254                 1.6853
 Frc consts  --      1.6714                 1.1151                 1.5606
 IR Inten    --     23.8838                 1.4874               168.1676

                     49                     50                     51
                      A                      A                      A
 Frequencies --   1258.4798              1277.1128              1293.4981
 Red. masses --      1.3337                 1.7795                 1.5050
 Frc consts  --      1.2445                 1.7100                 1.4836
 IR Inten    --      1.4259               158.0047                59.1801

                     52                     53                     54
                      A                      A                      A
 Frequencies --   1322.2311              1341.0028              1341.5916
 Red. masses --      1.1885                 1.1628                 1.3390
 Frc consts  --      1.2242                 1.2321                 1.4200
 IR Inten    --     60.0828                 2.7243                 2.9371

                     55                     56                     57
                      A                      A                      A
 Frequencies --   1350.8228              1366.2982              1385.4593
 Red. masses --      1.5862                 1.3804                 2.0106
 Frc consts  --      1.7054                 1.5183                 2.2739
 IR Inten    --      0.7839                23.6794                25.6296

                     58                     59                     60
                      A                      A                      A
 Frequencies --   1400.3622              1415.9437              1439.0574
 Red. masses --      1.3721                 1.2859                 1.2832
 Frc consts  --      1.5854                 1.5190                 1.5657
 IR Inten    --      9.2322                10.2310                28.3674

                     61                     62                     63
                      A                      A                      A
 Frequencies --   1454.5514              1502.9843              1511.2762
 Red. masses --      1.3462                 1.0947                 1.1098
 Frc consts  --      1.6782                 1.4570                 1.4934
 IR Inten    --      4.3191                 7.6151                 7.2013

                     64                     65                     66
                      A                      A                      A
 Frequencies --   1514.6106              1518.5203              1522.5920
 Red. masses --      1.0866                 1.0433                 1.0879
 Frc consts  --      1.4687                 1.4175                 1.4860
 IR Inten    --      1.6468                 4.4783                 0.3810

                     67                     68                     69
                      A                      A                      A
 Frequencies --   1523.3664              1537.8039              1540.4065
 Red. masses --      1.0596                 1.0719                 1.1119
 Frc consts  --      1.4487                 1.4935                 1.5545
 IR Inten    --      0.3191                 0.9515                 0.6388

                     70                     71                     72
                      A                      A                      A
 Frequencies --   1555.4228              1717.0995              1824.0006
 Red. masses --      1.0918                 7.0340                11.6091
 Frc consts  --      1.5563                12.2192                22.7562
 IR Inten    --      6.8014                51.3682               181.3671

                     73                     74                     75
                      A                      A                      A
 Frequencies --   3004.7182              3016.9702              3026.8957
 Red. masses --      1.0571                 1.0705                 1.0672
 Frc consts  --      5.6233                 5.7408                 5.7608
 IR Inten    --     45.7276                53.4326                23.9973

                     76                     77                     78
                      A                      A                      A
 Frequencies --   3029.4031              3038.6825              3051.0082
 Red. masses --      1.0685                 1.1023                 1.0357
 Frc consts  --      5.7772                 5.9971                 5.6804
 IR Inten    --     36.6983                29.3529                20.4405

                     79                     80                     81
                      A                      A                      A
 Frequencies --   3062.2595              3062.8485              3073.7398
 Red. masses --      1.0824                 1.0633                 1.0840
 Frc consts  --      5.9803                 5.8770                 6.0343
 IR Inten    --     11.9023                37.6723                39.0159

                     82                     83                     84
                      A                      A                      A
 Frequencies --   3084.7276              3092.2312              3093.3937
 Red. masses --      1.0830                 1.0647                 1.0980
 Frc consts  --      6.0719                 5.9982                 6.1906
 IR Inten    --     43.8724                11.3339                13.3104

                     85                     86                     87
                      A                      A                      A
 Frequencies --   3105.8287              3119.5404              3121.2531
 Red. masses --      1.1023                 1.1011                 1.1044
 Frc consts  --      6.2646                 6.3133                 6.3389
 IR Inten    --     30.3602                47.1415                43.1799

                     88                     89                     90
                      A                      A                      A
 Frequencies --   3128.4205              3161.2007              3297.8052
 Red. masses --      1.1040                 1.1024                 1.0947
 Frc consts  --      6.3658                 6.4910                 7.0146
 IR Inten    --     44.2182                 7.2968                 0.5800

 - Thermochemistry -
 -------------------
 Temperature   298.150 Kelvin.  Pressure   1.00000 Atm.
 Atom     1 has atomic number  6 and mass  12.00000

 Molecular mass:   198.12559 amu.
 Principal axes and moments of inertia in atomic units:
                           1         2         3
     Eigenvalues --  1324.311486198.991806770.23224
           X            0.99998   0.00603  -0.00034
           Y           -0.00603   0.99998  -0.00272
           Z            0.00032   0.00272   1.00000
 This molecule is an asymmetric top.
 Rotational symmetry number  1.
 Warning -- assumption of classical behavior for rotation
           may cause significant error
 Rotational temperatures (Kelvin)      0.06540     0.01397     0.01279
 Rotational constants (GHZ):           1.36278     0.29113     0.26657
 Zero-point vibrational energy     736036.9 (Joules/Mol)
                                  175.91703 (Kcal/Mol)
 Warning -- explicit consideration of  20 degrees of freedom as
           vibrations may cause significant error
 Vibrational temperatures:     16.89    40.25    60.84    74.19    94.95
          (Kelvin)            135.24   202.09   209.68   250.98   300.58
                              346.43   398.83   459.01   496.49   527.07
                              554.02   639.68   702.31   762.29   802.74
                              922.75  1011.93  1066.16  1165.82  1178.68
                             1187.24  1231.60  1250.18  1277.84  1290.84
                             1316.11  1318.77  1353.92  1391.42  1422.14
                             1502.74  1520.61  1550.06  1559.71  1567.03
                             1606.93  1664.53  1675.63  1693.71  1721.07
                             1747.60  1788.10  1803.77  1810.67  1837.48
                             1861.06  1902.40  1929.40  1930.25  1943.53
                             1965.80  1993.37  2014.81  2037.23  2070.48
                             2092.78  2162.46  2174.39  2179.19  2184.81
                             2190.67  2191.78  2212.56  2216.30  2237.91
                             2470.52  2624.33  4323.12  4340.75  4355.03
                             4358.64  4371.99  4389.72  4405.91  4406.76
                             4422.43  4438.24  4449.03  4450.70  4468.59
                             4488.32  4490.79  4501.10  4548.26  4744.81

 Zero-point correction=                           0.280342 (Hartree/Particle)
 Thermal correction to Energy=                    0.295408
 Thermal correction to Enthalpy=                  0.296352
 Thermal correction to Gibbs Free Energy=         0.234625
 Sum of electronic and zero-point Energies=           -655.435916
 Sum of electronic and thermal Energies=              -655.420850
 Sum of electronic and thermal Enthalpies=            -655.419905
 Sum of electronic and thermal Free Energies=         -655.481633

                     E (Thermal)             CV                S
                      KCal/Mol        Cal/Mol-Kelvin    Cal/Mol-Kelvin
 Total                  185.371             54.303            129.916
 Electronic               0.000              0.000              0.000
 Translational            0.889              2.981             41.756
 Rotational               0.889              2.981             32.386
 Vibrational            183.594             48.342             55.774
 Vibration     1          0.593              1.987              7.692
 Vibration     2          0.593              1.984              5.968
 Vibration     3          0.595              1.980              5.149
 Vibration     4          0.596              1.977              4.757
 Vibration     5          0.597              1.970              4.270
 Vibration     6          0.603              1.953              3.575
 Vibration     7          0.615              1.913              2.798
 Vibration     8          0.617              1.907              2.727
 Vibration     9          0.627              1.874              2.387
 Vibration    10          0.642              1.827              2.053
 Vibration    11          0.658              1.778              1.797
 Vibration    12          0.678              1.716              1.551
 Vibration    13          0.705              1.637              1.315
 Vibration    14          0.723              1.585              1.189
 Vibration    15          0.739              1.542              1.095
 Vibration    16          0.754              1.502              1.019
 Vibration    17          0.804              1.373              0.812
 Vibration    18          0.844              1.276              0.688
 Vibration    19          0.885              1.184              0.588
 Vibration    20          0.913              1.122              0.528

 Optimization completed.
    -- Stationary point found.
 Normal termination of Gaussian 16 at Thu Dec 10 09:46:48 2020.

 ----------------------------------------------------------------------
 # B3LYP/6-311++G(d,p) empiricaldispersion=gd3bj scf=xqc pop=npa geom=c
 heck
 ----------------------------------------------------------------------

 ---------------------------------------
 CID_134561576_JID_4314_Energie_neutraal
 ---------------------------------------
 Structure from the checkpoint file:  "JID_4314.chk"
 Charge =  0 Multiplicity = 1

 SCF Done:  E(RB3LYP) =  -655.904346676     A.U. after   14 cycles
 Normal termination of Gaussian 16 at Thu Dec 10 09:51:02 2020.

 ----------------------------------------------------------------------
 # B3LYP/6-311++G(d,p) empiricaldispersion=gd3bj scf=xqc pop=npa geom=c
 heck
 ----------------------------------------------------------------------

 -------------------------------------
 CID_134561576_JID_4314_Energie_kation
 -------------------------------------
 Structure from the checkpoint file:  "JID_4314.chk"
 Charge =  1 Multiplicity = 2

 SCF Done:  E(UB3LYP) =  -655.600648159     A.U. after   21 cycles
 Normal termination of Gaussian 16 at Thu Dec 10 10:00:09 2020.
 Gaussian 16:  ES64L-G16RevA.03 25-Dec-2016

 ----------------------------------------------------------------------
 # B3LYP/6-311++G(d,p) empiricaldispersion=gd3bj scf=xqc pop=npa geom=c
 heck
 ----------------------------------------------------------------------

 ------------------------------------
 CID_134561576_JID_4314_Energie_anion
 ------------------------------------
 Structure from the checkpoint file:  "JID_4314.chk"
 Charge = -1 Multiplicity = 2

                         Standard orientation:
 ---------------------------------------------------------------------
 Center     Atomic      Atomic             Coordinates (Angstroms)
 Number     Number       Type             X           Y           Z
 ---------------------------------------------------------------------
      1          6           0        4.359424    1.827870   -0.697204
      2          6           0        3.647367    1.042502    0.400244
      3          8           0        3.393757   -0.312160    0.046619
      4          6           0        2.392622   -0.487357   -0.942619
      5          6           0        1.631349   -1.772561   -0.632809
      6          6           0        0.954364   -1.733536    0.753652
      7          6           0       -0.055210   -0.614214    0.829270
      8          8           0        0.147606    0.489862    1.280092
      9          8           0       -1.228339   -1.004508    0.245285
     10          6           0       -2.305454   -0.151002    0.086247
     11          6           0       -2.487818    1.125005    0.444069
     12          6           0       -3.885304    1.569517    0.078938
     13          6           0       -4.394091    0.451211   -0.870531
     14          6           0       -3.509787   -0.779866   -0.565069
     15          1           0        4.596829    2.840037   -0.349536
     16          1           0        3.735914    1.920622   -1.593554
     17          1           0        5.292974    1.329505   -0.979606
     18          1           0        4.276094    0.990076    1.295231
     19          1           0        2.702489    1.529984    0.682676
     20          1           0        1.702768    0.369480   -0.944176
     21          1           0        2.842296   -0.549307   -1.945238
     22          1           0        0.881762   -1.948681   -1.413664
     23          1           0        2.331122   -2.615617   -0.651803
     24          1           0        0.458579   -2.688465    0.951012
     25          1           0        1.713333   -1.549445    1.515629
     26          1           0       -1.771601    1.743820    0.961723
     27          1           0       -3.904512    2.556591   -0.399029
     28          1           0       -4.511570    1.650953    0.980298
     29          1           0       -5.461337    0.245401   -0.750208
     30          1           0       -4.234581    0.759933   -1.909136
     31          1           0       -3.994468   -1.481919    0.128844
     32          1           0       -3.245053   -1.353929   -1.460568
 ---------------------------------------------------------------------

 SCF Done:  E(UB3LYP) =  -655.889053735     A.U. after   33 cycles
 SCF Done:  E(UB3LYP) =  -655.889053735     a.u. after    1 cycles

 The electronic state is 2-A.
 Alpha  occ. eigenvalues --  -19.08395 -19.02510 -19.01873 -10.20652 -10.13201
 Alpha  occ. eigenvalues --  -10.12006 -10.11667 -10.08363 -10.07891 -10.07608
 Alpha  occ. eigenvalues --  -10.07580 -10.07316 -10.06877 -10.06471  -1.01830
 Alpha  occ. eigenvalues --   -0.93848  -0.93496  -0.75198  -0.70898  -0.66252
 Alpha  occ. eigenvalues --   -0.63297  -0.61823  -0.59911  -0.54421  -0.52112
 Alpha  occ. eigenvalues --   -0.49277  -0.48411  -0.42269  -0.40520  -0.40176
 Alpha  occ. eigenvalues --   -0.39666  -0.38615  -0.37671  -0.36538  -0.35412
 Alpha  occ. eigenvalues --   -0.33976  -0.32607  -0.32443  -0.30680  -0.29636
 Alpha  occ. eigenvalues --   -0.28769  -0.28526  -0.27568  -0.27487  -0.26001
 Alpha  occ. eigenvalues --   -0.25700  -0.25212  -0.24942  -0.24508  -0.23716
 Alpha  occ. eigenvalues --   -0.21790  -0.18029  -0.16365  -0.13706   0.04431
 Alpha virt. eigenvalues --    0.06100   0.06637   0.07644   0.07890   0.08459
 Alpha virt. eigenvalues --    0.08501   0.08898   0.09712   0.09938   0.10244
 Alpha virt. eigenvalues --    0.11046   0.11446   0.11603   0.12144   0.12357

  Beta  occ. eigenvalues --  -19.08392 -19.02505 -19.01828 -10.20605 -10.13194
  Beta  occ. eigenvalues --  -10.12000 -10.11647 -10.08359 -10.07862 -10.07592
  Beta  occ. eigenvalues --  -10.07554 -10.07291 -10.06851 -10.06463  -1.01788
  Beta  occ. eigenvalues --   -0.93832  -0.93438  -0.75169  -0.70855  -0.66217
  Beta  occ. eigenvalues --   -0.63250  -0.61780  -0.59869  -0.54362  -0.52073
  Beta  occ. eigenvalues --   -0.49216  -0.48342  -0.42221  -0.40480  -0.40099
  Beta  occ. eigenvalues --   -0.39609  -0.38586  -0.37637  -0.36481  -0.35355
  Beta  occ. eigenvalues --   -0.33937  -0.32566  -0.32410  -0.30636  -0.29597
  Beta  occ. eigenvalues --   -0.28734  -0.28491  -0.27532  -0.27429  -0.25959
  Beta  occ. eigenvalues --   -0.25615  -0.25173  -0.24906  -0.24468  -0.23637
  Beta  occ. eigenvalues --   -0.21753  -0.17989  -0.16350  -0.13659
  Beta virt. eigenvalues --    0.06438   0.06852   0.07289   0.08173   0.08303
  Beta virt. eigenvalues --    0.08787   0.08971   0.09199   0.10041   0.10337
  Beta virt. eigenvalues --    0.10547   0.11306   0.11711   0.11931   0.12348

 Mulliken charges and spin densities:
               1          2
     1  C    0.577028  -1.014875
     2  C   -0.473466   0.300108
     3  O   -0.105591   0.032124
     4  C   -0.075284  -0.231778
     5  C    0.902921  -1.201532
     6  C   -1.134091   0.521466
     7  C    0.298031  -0.236318
     8  O   -0.204603   0.004400
     9  O   -0.010934   0.052873
    10  C   -0.265958   0.537600
    11  C    0.232954   0.183079
    12  C    0.473100  -1.303607
    13  C    0.049673  -0.184357
    14  C    0.369638  -0.993621
    15  H   -0.212852   0.343497
    16  H   -0.234471   0.376134
    17  H   -0.049322   0.191024
    18  H   -0.060507   0.194675
    19  H    0.221522  -0.062215
    20  H    0.157738   0.006823
    21  H   -0.263338   0.441691
    22  H   -0.142727   0.296596
    23  H   -0.224834   0.420025
    24  H   -0.284650   0.484976
    25  H    0.186934   0.010376
    26  H    0.064840   0.157280
    27  H   -0.093086   0.234481
    28  H   -0.035850   0.166591
    29  H   -0.239375   0.383414
    30  H   -0.064375   0.206061
    31  H   -0.089755   0.250189
    32  H   -0.269310   0.432819
 Sum of Mulliken charges =  -1.00000   1.00000

 Dipole moment (field-independent basis, Debye):
    X=              0.5016    Y=              0.8687    Z=              3.0368  Tot=              3.1982
 Quadrupole moment (field-independent basis, Debye-Ang):
   XX=           -176.8414   YY=           -127.8597   ZZ=           -119.2857
   XY=             -2.7315   XZ=              3.1651   YZ=             -2.0578

 Summary of Natural Population Analysis:

                                       Natural Population
                Natural  -----------------------------------------------
    Atom  No    Charge         Core      Valence    Rydberg      Total
 -----------------------------------------------------------------------
      C    1   -0.30026      0.99967     2.29656    0.00403     3.30026
      C    2   -0.00841      0.99960     1.99803    0.01078     3.00841
      O    3   -0.30709      0.99988     3.29725    0.00995     4.30709
      C    4   -0.01409      0.99957     2.00090    0.01362     3.01409
      C    5   -0.19281      0.99962     2.18387    0.00932     3.19281
      C    6   -0.23743      0.99958     2.22845    0.00939     3.23743
      C    7    0.41602      0.99967     1.55845    0.02585     2.58398
      O    8   -0.29681      0.99987     3.29144    0.00551     4.29681
      O    9   -0.27626      0.99983     3.26617    0.01026     4.27626
      C   10    0.15335      0.99930     1.83231    0.01504     2.84665
      C   11   -0.12716      0.99945     2.11959    0.00812     3.12716
      C   12   -0.19610      0.99964     2.18976    0.00670     3.19610
      C   13   -0.18426      0.99965     2.17772    0.00689     3.18426
      C   14   -0.20670      0.99960     2.19816    0.00894     3.20670
      H   15    0.09883      0.00000     0.39983    0.00135     0.40117
      H   16    0.09893      0.00000     0.39973    0.00134     0.40107
      H   17    0.09860      0.00000     0.40002    0.00138     0.40140
      H   18    0.08439      0.00000     0.41427    0.00134     0.41561
      H   19    0.08544      0.00000     0.41299    0.00157     0.41456
      H   20    0.08306      0.00000     0.41519    0.00176     0.41694
      H   21    0.08522      0.00000     0.41323    0.00155     0.41478
      H   22    0.10437      0.00000     0.39396    0.00168     0.39563
      H   23    0.10258      0.00000     0.39586    0.00156     0.39742
      H   24    0.11187      0.00000     0.38678    0.00135     0.38813
      H   25    0.11330      0.00000     0.38539    0.00132     0.38670
      H   26    0.11558      0.00000     0.38335    0.00107     0.38442
      H   27    0.09763      0.00000     0.40074    0.00163     0.40237
      H   28    0.09558      0.00000     0.40269    0.00173     0.40442
      H   29    0.09845      0.00000     0.39983    0.00172     0.40155
      H   30    0.09722      0.00000     0.40112    0.00166     0.40278
      H   31    0.10066      0.00000     0.39801    0.00133     0.39934
      H   32    0.10632      0.00000     0.39183    0.00185     0.39368
 =======================================================================
   * Total *   -0.00000     13.99493    39.83350    0.17157    54.00000

 Normal termination of Gaussian 16 at Thu Dec 10 10:14:46 2020.
