 Gaussian 16, Revision A.03,

 -----------------------------------------------------------
 # opt freq B3LYP/6-31G(d) empiricaldispersion=gd3bj scf=xqc
 -----------------------------------------------------------

 -------------------------------
 CID_131027709_JID_4081_neutraal
 -------------------------------
 Symbolic Z-matrix:
 Charge =  0 Multiplicity = 1

 SCF Done:  E(RB3LYP) =  -936.555747013     A.U. after   14 cycles
 SCF Done:  E(RB3LYP) =  -936.557577621     A.U. after   13 cycles
 SCF Done:  E(RB3LYP) =  -936.558647695     A.U. after   13 cycles
 SCF Done:  E(RB3LYP) =  -936.559971785     A.U. after   12 cycles
 SCF Done:  E(RB3LYP) =  -936.560498022     A.U. after   12 cycles
 SCF Done:  E(RB3LYP) =  -936.560699595     A.U. after   12 cycles
 SCF Done:  E(RB3LYP) =  -936.560950928     A.U. after   12 cycles
 SCF Done:  E(RB3LYP) =  -936.560900083     A.U. after   13 cycles
 SCF Done:  E(RB3LYP) =  -936.561182734     A.U. after   12 cycles
 SCF Done:  E(RB3LYP) =  -936.561306876     A.U. after   12 cycles
 SCF Done:  E(RB3LYP) =  -936.561739775     A.U. after   10 cycles
 SCF Done:  E(RB3LYP) =  -936.561741835     A.U. after    9 cycles
 SCF Done:  E(RB3LYP) =  -936.561742578     A.U. after    9 cycles
 SCF Done:  E(RB3LYP) =  -936.561742705     A.U. after    7 cycles
 SCF Done:  E(RB3LYP) =  -936.561742820     A.U. after    9 cycles
 SCF Done:  E(RB3LYP) =  -936.561742833     A.U. after    6 cycles
 Optimization completed.
    -- Stationary point found.
 Normal termination of Gaussian 16 at Thu Dec 10 09:27:21 2020.

 --------------------------------------------------------------------
 #N Geom=AllCheck Guess=TCheck SCRF=Check GenChk RB3LYP/6-31G(d) Freq
 --------------------------------------------------------------------

 Structure from the checkpoint file:  "JID_4081.chk"
 -------------------------------
 CID_131027709_JID_4081_neutraal
 -------------------------------
 Charge =  0 Multiplicity = 1

 SCF Done:  E(RB3LYP) =  -936.561742833     A.U. after    1 cycles

  Exact polarizability: 166.909  -2.471 152.583  -4.484  -7.193  99.069
 Approx polarizability: 248.048  -9.065 234.634 -11.940 -15.734 154.322

                      1                      2                      3
                      A                      A                      A
 Frequencies --     26.5319                40.0681                58.3119
 Red. masses --      2.7093                 4.4997                 3.4843
 Frc consts  --      0.0011                 0.0043                 0.0070
 IR Inten    --      0.1496                 0.8232                 2.7577

                      4                      5                      6
                      A                      A                      A
 Frequencies --     90.7596               131.9107               149.2805
 Red. masses --      5.4608                 3.3422                 3.1526
 Frc consts  --      0.0265                 0.0343                 0.0414
 IR Inten    --      2.2334                 0.7257                 1.5604

                      7                      8                      9
                      A                      A                      A
 Frequencies --    212.3300               223.7346               226.8250
 Red. masses --      2.4268                 4.6975                 1.4046
 Frc consts  --      0.0645                 0.1385                 0.0426
 IR Inten    --      1.9402                 0.8831                 0.9455

                     10                     11                     12
                      A                      A                      A
 Frequencies --    266.1031               310.8802               388.1676
 Red. masses --      2.1110                 3.3895                 2.5688
 Frc consts  --      0.0881                 0.1930                 0.2280
 IR Inten    --      2.9521                 3.9482                 1.3686

                     13                     14                     15
                      A                      A                      A
 Frequencies --    411.8343               469.4545               475.9120
 Red. masses --      2.3609                 3.4685                 2.5196
 Frc consts  --      0.2359                 0.4504                 0.3362
 IR Inten    --      3.6697                11.0326                14.2693

                     16                     17                     18
                      A                      A                      A
 Frequencies --    493.0768               498.9209               558.9186
 Red. masses --      4.4523                 1.9888                 3.9253
 Frc consts  --      0.6378                 0.2917                 0.7225
 IR Inten    --      5.5356                47.6121                 9.2130

                     19                     20                     21
                      A                      A                      A
 Frequencies --    584.9642               663.7213               677.2512
 Red. masses --      2.9200                 3.9443                 4.2362
 Frc consts  --      0.5887                 1.0237                 1.1448
 IR Inten    --     35.7231                 2.4766                 2.2644

                     22                     23                     24
                      A                      A                      A
 Frequencies --    694.6534               749.5066               752.6428
 Red. masses --      3.8665                 3.5735                 3.4608
 Frc consts  --      1.0993                 1.1827                 1.1550
 IR Inten    --      2.1024                 4.2679                 5.7603

                     25                     26                     27
                      A                      A                      A
 Frequencies --    776.7403               805.7536               822.2907
 Red. masses --      3.3773                 1.2173                 1.5098
 Frc consts  --      1.2005                 0.4657                 0.6015
 IR Inten    --      1.4574                 0.6910                26.1734

                     28                     29                     30
                      A                      A                      A
 Frequencies --    835.3846               867.8233               907.2861
 Red. masses --      3.5608                 2.0338                 1.4057
 Frc consts  --      1.4641                 0.9024                 0.6817
 IR Inten    --      2.8569                 1.4925                 6.8717

                     31                     32                     33
                      A                      A                      A
 Frequencies --    911.8098               939.2850               970.4904
 Red. masses --      1.4988                 2.6770                 1.3393
 Frc consts  --      0.7342                 1.3915                 0.7432
 IR Inten    --     12.3209                12.7778                 0.1570

                     34                     35                     36
                      A                      A                      A
 Frequencies --    989.4112              1009.9632              1018.5496
 Red. masses --      2.1392                 6.3044                 2.1648
 Frc consts  --      1.2338                 3.7888                 1.3232
 IR Inten    --      3.8647                21.2153                 3.4727

                     37                     38                     39
                      A                      A                      A
 Frequencies --   1025.4860              1071.0535              1088.6596
 Red. masses --      1.8578                 2.0175                 1.8364
 Frc consts  --      1.1511                 1.3636                 1.2823
 IR Inten    --      1.1740                10.3512                15.3329

                     40                     41                     42
                      A                      A                      A
 Frequencies --   1098.9501              1103.1145              1151.6092
 Red. masses --      1.8332                 1.6399                 1.2581
 Frc consts  --      1.3044                 1.1757                 0.9831
 IR Inten    --     21.6880                 8.0123                 7.7655

                     43                     44                     45
                      A                      A                      A
 Frequencies --   1156.5148              1178.9390              1225.2365
 Red. masses --      1.4137                 1.2823                 1.4919
 Frc consts  --      1.1140                 1.0500                 1.3196
 IR Inten    --      1.2350                 2.1056                 6.4506

                     46                     47                     48
                      A                      A                      A
 Frequencies --   1249.0948              1267.2224              1281.6374
 Red. masses --      1.5681                 1.3641                 1.7647
 Frc consts  --      1.4415                 1.2907                 1.7078
 IR Inten    --     26.8886                27.4680                 0.9599

                     49                     50                     51
                      A                      A                      A
 Frequencies --   1303.6194              1320.0773              1331.0665
 Red. masses --      1.9585                 1.3384                 1.3240
 Frc consts  --      1.9610                 1.3741                 1.3821
 IR Inten    --      9.6504                 9.0726                13.7015

                     52                     53                     54
                      A                      A                      A
 Frequencies --   1351.6738              1361.8061              1371.9168
 Red. masses --      1.2975                 2.1542                 1.4573
 Frc consts  --      1.3967                 2.3538                 1.6161
 IR Inten    --     11.3197                80.0436                 7.6002

                     55                     56                     57
                      A                      A                      A
 Frequencies --   1378.1960              1417.0370              1428.5792
 Red. masses --      1.7480                 1.4430                 1.2308
 Frc consts  --      1.9562                 1.7072                 1.4800
 IR Inten    --     23.6582                15.4174                 2.1225

                     58                     59                     60
                      A                      A                      A
 Frequencies --   1488.7333              1503.9656              1511.7445
 Red. masses --      2.1551                 1.1571                 1.1065
 Frc consts  --      2.8142                 1.5420                 1.4899
 IR Inten    --      8.2392                 7.3447                 2.1403

                     61                     62                     63
                      A                      A                      A
 Frequencies --   1520.5789              1525.3021              1526.7897
 Red. masses --      1.1034                 1.0778                 1.1165
 Frc consts  --      1.5032                 1.4774                 1.5335
 IR Inten    --      7.4468                 8.1062                 4.1732

                     64                     65                     66
                      A                      A                      A
 Frequencies --   1531.9869              1539.6381              1557.9352
 Red. masses --      1.6503                 1.0952                 2.2804
 Frc consts  --      2.2820                 1.5296                 3.2611
 IR Inten    --     28.8871                 1.3818                72.0562

                     67                     68                     69
                      A                      A                      A
 Frequencies --   1632.7338              1659.6697              3048.5406
 Red. masses --      3.2229                 5.2421                 1.0356
 Frc consts  --      5.0621                 8.5075                 5.6706
 IR Inten    --     82.9127               273.9826                30.9324

                     70                     71                     72
                      A                      A                      A
 Frequencies --   3057.4057              3057.9023              3078.6489
 Red. masses --      1.0628                 1.0594                 1.0822
 Frc consts  --      5.8536                 5.8364                 6.0436
 IR Inten    --     15.5412                22.5612                30.4915

                     73                     74                     75
                      A                      A                      A
 Frequencies --   3091.9179              3096.6406              3101.4293
 Red. masses --      1.0624                 1.1034                 1.0613
 Frc consts  --      5.9839                 6.2340                 6.0145
 IR Inten    --     17.1669                 5.9810                28.1778

                     76                     77                     78
                      A                      A                      A
 Frequencies --   3107.5711              3116.2423              3134.7049
 Red. masses --      1.0995                 1.1030                 1.1029
 Frc consts  --      6.2560                 6.3111                 6.3854
 IR Inten    --     23.9062                55.8091                27.6956

                     79                     80                     81
                      A                      A                      A
 Frequencies --   3146.7101              3150.5747              3158.7260
 Red. masses --      1.1095                 1.1085                 1.0872
 Frc consts  --      6.4728                 6.4830                 6.3913
 IR Inten    --     13.2128                13.0652                28.0104

                     82                     83                     84
                      A                      A                      A
 Frequencies --   3182.7045              3229.8089              3587.1414
 Red. masses --      1.0943                 1.0908                 1.0756
 Frc consts  --      6.5313                 6.7043                 8.1544
 IR Inten    --     33.3663                 5.6863                 9.9039

 - Thermochemistry -
 -------------------
 Temperature   298.150 Kelvin.  Pressure   1.00000 Atm.
 Atom     1 has atomic number  6 and mass  12.00000

 Molecular mass:   208.10342 amu.
 Principal axes and moments of inertia in atomic units:
                           1         2         3
     Eigenvalues --  2026.307643977.800625258.68211
           X            0.99866  -0.05174   0.00084
           Y            0.05173   0.99865   0.00514
           Z           -0.00111  -0.00509   0.99999
 This molecule is an asymmetric top.
 Rotational symmetry number  1.
 Warning -- assumption of classical behavior for rotation
           may cause significant error
 Rotational temperatures (Kelvin)      0.04274     0.02177     0.01647
 Rotational constants (GHZ):           0.89066     0.45370     0.34319
 Zero-point vibrational energy     678987.1 (Joules/Mol)
                                  162.28182 (Kcal/Mol)
 Warning -- explicit consideration of  19 degrees of freedom as
           vibrations may cause significant error
 Vibrational temperatures:     38.17    57.65    83.90   130.58   189.79
          (Kelvin)            214.78   305.50   321.90   326.35   382.86
                              447.29   558.49   592.54   675.44   684.73
                              709.43   717.84   804.16   841.63   954.95
                              974.41   999.45  1078.37  1082.89  1117.56
                             1159.30  1183.09  1201.93  1248.60  1305.38
                             1311.89  1351.42  1396.32  1423.54  1453.11
                             1465.47  1475.45  1541.01  1566.34  1581.14
                             1587.14  1656.91  1663.97  1696.23  1762.84
                             1797.17  1823.25  1843.99  1875.62  1899.30
                             1915.11  1944.76  1959.34  1973.88  1982.92
                             2038.80  2055.41  2141.96  2163.87  2175.06
                             2187.77  2194.57  2196.71  2204.19  2215.20
                             2241.52  2349.14  2387.89  4386.17  4398.92
                             4399.64  4429.49  4448.58  4455.38  4462.27
                             4471.10  4483.58  4510.14  4527.41  4532.97
                             4544.70  4579.20  4646.97  5161.10

 Zero-point correction=                           0.258613 (Hartree/Particle)
 Thermal correction to Energy=                    0.272040
 Thermal correction to Enthalpy=                  0.272984
 Thermal correction to Gibbs Free Energy=         0.217006
 Sum of electronic and zero-point Energies=           -936.303130
 Sum of electronic and thermal Energies=              -936.289703
 Sum of electronic and thermal Enthalpies=            -936.288759
 Sum of electronic and thermal Free Energies=         -936.344737

                     E (Thermal)             CV                S
                      KCal/Mol        Cal/Mol-Kelvin    Cal/Mol-Kelvin
 Total                  170.707             51.561            117.815
 Electronic               0.000              0.000              0.000
 Translational            0.889              2.981             41.903
 Rotational               0.889              2.981             32.116
 Vibrational            168.930             45.600             43.796
 Vibration     1          0.593              1.984              6.073
 Vibration     2          0.594              1.981              5.256
 Vibration     3          0.596              1.974              4.514
 Vibration     4          0.602              1.956              3.644
 Vibration     5          0.612              1.921              2.918
 Vibration     6          0.618              1.903              2.681
 Vibration     7          0.643              1.822              2.024
 Vibration     8          0.649              1.805              1.929
 Vibration     9          0.650              1.800              1.904
 Vibration    10          0.672              1.735              1.621
 Vibration    11          0.700              1.653              1.358
 Vibration    12          0.756              1.495              1.007
 Vibration    13          0.776              1.445              0.920
 Vibration    14          0.827              1.318              0.739
 Vibration    15          0.833              1.303              0.721
 Vibration    16          0.849              1.265              0.676
 Vibration    17          0.854              1.252              0.661
 Vibration    18          0.914              1.120              0.526
 Vibration    19          0.942              1.064              0.476

 Optimization completed.
    -- Stationary point found.
 Normal termination of Gaussian 16 at Thu Dec 10 09:35:56 2020.

 ----------------------------------------------------------------------
 # B3LYP/6-311++G(d,p) empiricaldispersion=gd3bj scf=xqc pop=npa geom=c
 heck
 ----------------------------------------------------------------------

 ---------------------------------------
 CID_131027709_JID_4081_Energie_neutraal
 ---------------------------------------
 Structure from the checkpoint file:  "JID_4081.chk"
 Charge =  0 Multiplicity = 1

 SCF Done:  E(RB3LYP) =  -936.733503487     A.U. after   15 cycles
 Normal termination of Gaussian 16 at Thu Dec 10 09:39:33 2020.

 ----------------------------------------------------------------------
 # B3LYP/6-311++G(d,p) empiricaldispersion=gd3bj scf=xqc pop=npa geom=c
 heck
 ----------------------------------------------------------------------

 -------------------------------------
 CID_131027709_JID_4081_Energie_kation
 -------------------------------------
 Structure from the checkpoint file:  "JID_4081.chk"
 Charge =  1 Multiplicity = 2

 SCF Done:  E(UB3LYP) =  -936.447284851     A.U. after   29 cycles
 Normal termination of Gaussian 16 at Thu Dec 10 09:49:14 2020.
 Gaussian 16:  ES64L-G16RevA.03 25-Dec-2016

 ----------------------------------------------------------------------
 # B3LYP/6-311++G(d,p) empiricaldispersion=gd3bj scf=xqc pop=npa geom=c
 heck
 ----------------------------------------------------------------------

 ------------------------------------
 CID_131027709_JID_4081_Energie_anion
 ------------------------------------
 Structure from the checkpoint file:  "JID_4081.chk"
 Charge = -1 Multiplicity = 2

                         Standard orientation:
 ---------------------------------------------------------------------
 Center     Atomic      Atomic             Coordinates (Angstroms)
 Number     Number       Type             X           Y           Z
 ---------------------------------------------------------------------
      1          6           0       -2.822979    2.446317    0.692152
      2          6           0       -2.510210    1.720517   -0.625402
      3          6           0       -2.088123    0.291104   -0.379200
      4          7           0       -3.067898   -0.563669   -0.036583
      5          6           0       -2.695403   -1.823032    0.223298
      6          6           0       -1.387491   -2.283293    0.175203
      7          6           0       -0.356090   -1.389887   -0.174767
      8          6           0       -0.742554   -0.070593   -0.467319
      9          7           0        0.940119   -1.874309   -0.268286
     10          6           0        2.200112   -1.145452   -0.110968
     11          6           0        2.431618   -0.504071    1.278745
     12          6           0        1.886002    0.923483    1.268753
     13         16           0        2.354808    1.612349   -0.374296
     14          6           0        2.425955   -0.049558   -1.185199
     15          1           0       -3.603190    1.908976    1.240114
     16          1           0       -3.168039    3.469483    0.506644
     17          1           0       -1.932812    2.497541    1.330215
     18          1           0       -3.406601    1.713924   -1.255685
     19          1           0       -1.722680    2.254459   -1.169466
     20          1           0       -3.495324   -2.510820    0.495011
     21          1           0       -1.163091   -3.321798    0.407081
     22          1           0       -0.020957    0.682602   -0.755876
     23          1           0        1.014837   -2.826937    0.063543
     24          1           0        2.961560   -1.916793   -0.261151
     25          1           0        3.510964   -0.470865    1.467349
     26          1           0        1.968889   -1.110189    2.065476
     27          1           0        0.800212    0.941305    1.389215
     28          1           0        2.339005    1.547313    2.043074
     29          1           0        3.413210   -0.156071   -1.639654
     30          1           0        1.676524   -0.127076   -1.974839
 ---------------------------------------------------------------------

 SCF Done:  E(UB3LYP) =  -936.726951392     A.U. after   30 cycles

 The electronic state is 2-A.
 Alpha  occ. eigenvalues --  -88.74023 -14.22772 -14.19743 -10.12999 -10.11852
 Alpha  occ. eigenvalues --  -10.11175 -10.10498 -10.10093 -10.09998 -10.08161
 Alpha  occ. eigenvalues --  -10.07692 -10.07475 -10.07178 -10.06933  -7.82648
 Alpha  occ. eigenvalues --   -5.79037  -5.78686  -5.78018  -0.85100  -0.83127
 Alpha  occ. eigenvalues --   -0.73964  -0.70055  -0.68742  -0.64108  -0.63374
 Alpha  occ. eigenvalues --   -0.61535  -0.55576  -0.53383  -0.50540  -0.48862
 Alpha  occ. eigenvalues --   -0.46895  -0.43350  -0.40544  -0.38818  -0.38126
 Alpha  occ. eigenvalues --   -0.36324  -0.36220  -0.34419  -0.34053  -0.32766
 Alpha  occ. eigenvalues --   -0.32091  -0.30660  -0.29593  -0.28278  -0.27480
 Alpha  occ. eigenvalues --   -0.26908  -0.26265  -0.26013  -0.25044  -0.24787
 Alpha  occ. eigenvalues --   -0.22086  -0.21366  -0.16089  -0.15807  -0.13030
 Alpha  occ. eigenvalues --   -0.11914   0.04205
 Alpha virt. eigenvalues --    0.06490   0.07226   0.07476   0.08204   0.08438
 Alpha virt. eigenvalues --    0.08870   0.09283   0.09657   0.10093   0.10497
 Alpha virt. eigenvalues --    0.11096   0.11503   0.12000   0.12301   0.13254

  Beta  occ. eigenvalues --  -88.74022 -14.22734 -14.19742 -10.13001 -10.11817
  Beta  occ. eigenvalues --  -10.11174 -10.10495 -10.10086 -10.09975 -10.08160
  Beta  occ. eigenvalues --  -10.07690 -10.07439 -10.07157 -10.06922  -7.82647
  Beta  occ. eigenvalues --   -5.79036  -5.78685  -5.78017  -0.85060  -0.83090
  Beta  occ. eigenvalues --   -0.73924  -0.70048  -0.68708  -0.64089  -0.63325
  Beta  occ. eigenvalues --   -0.61482  -0.55554  -0.53355  -0.50504  -0.48821
  Beta  occ. eigenvalues --   -0.46826  -0.43274  -0.40499  -0.38772  -0.38070
  Beta  occ. eigenvalues --   -0.36298  -0.36171  -0.34393  -0.34031  -0.32735
  Beta  occ. eigenvalues --   -0.32063  -0.30639  -0.29563  -0.28250  -0.27455
  Beta  occ. eigenvalues --   -0.26874  -0.26227  -0.26003  -0.24978  -0.24765
  Beta  occ. eigenvalues --   -0.22061  -0.21338  -0.16082  -0.15795  -0.13017
  Beta  occ. eigenvalues --   -0.11884
  Beta virt. eigenvalues --    0.06360   0.07350   0.07491   0.07923   0.08444
  Beta virt. eigenvalues --    0.08608   0.09196   0.09800   0.09893   0.10318
  Beta virt. eigenvalues --    0.10956   0.11540   0.11647   0.12385   0.12808

 Mulliken charges and spin densities:
               1          2
     1  C   -0.539496  -0.035744
     2  C   -0.145002  -0.397500
     3  C   -0.414437  -0.357002
     4  N    0.002838   0.023994
     5  C    0.219835  -0.377996
     6  C   -0.691424   0.689175
     7  C   -0.228803  -0.909068
     8  C    1.847786  -0.300324
     9  N   -0.083022   0.083259
    10  C    0.419397  -0.004891
    11  C    0.912594  -1.804530
    12  C   -0.410895   0.276713
    13  S    0.130972  -0.047813
    14  C   -0.073725  -0.677429
    15  H    0.153707   0.004665
    16  H    0.118453   0.003470
    17  H    0.065364   0.064676
    18  H    0.129795   0.029593
    19  H    0.126044   0.004399
    20  H    0.097319   0.072503
    21  H   -0.746134   0.918694
    22  H    0.182219  -0.083382
    23  H   -0.198521   0.480899
    24  H   -1.277451   1.560651
    25  H   -0.296934   0.455319
    26  H   -0.323334   0.502249
    27  H    0.264747  -0.159032
    28  H   -0.003487   0.262278
    29  H   -0.381381   0.649893
    30  H    0.142975   0.072281
 Sum of Mulliken charges =  -1.00000   1.00000

 Dipole moment (field-independent basis, Debye):
    X=             -6.6957    Y=              7.6097    Z=             -1.0133  Tot=             10.1866
 Quadrupole moment (field-independent basis, Debye-Ang):
   XX=           -167.8458   YY=           -147.3050   ZZ=           -120.2237
   XY=             13.3208   XZ=             -1.1736   YZ=              3.3955

 Summary of Natural Population Analysis:

                                       Natural Population
                Natural  -----------------------------------------------
    Atom  No    Charge         Core      Valence    Rydberg      Total
 -----------------------------------------------------------------------
      C    1   -0.28124      0.99966     2.27745    0.00413     3.28124
      C    2   -0.20173      0.99961     2.19363    0.00850     3.20173
      C    3    0.11503      0.99954     1.87108    0.01435     2.88497
      N    4   -0.26803      0.99968     2.75700    0.01135     3.76803
      C    5    0.03118      0.99959     1.95411    0.01512     2.96882
      C    6   -0.14487      0.99952     2.13566    0.00968     3.14487
      C    7    0.11160      0.99948     1.87720    0.01172     2.88840
      C    8   -0.16318      0.99945     2.15523    0.00850     3.16318
      N    9   -0.30879      0.99966     2.79505    0.01407     3.80879
      C   10   -0.01608      0.99957     1.99854    0.01798     3.01608
      C   11   -0.20100      0.99960     2.19086    0.01055     3.20100
      C   12   -0.24500      0.99960     2.23626    0.00914     3.24500
      S   13    0.06768      4.99966     2.91626    0.01640     7.93232
      C   14   -0.24744      0.99957     2.23822    0.00965     3.24744
      H   15    0.10246      0.00000     0.39625    0.00129     0.39754
      H   16    0.09300      0.00000     0.40604    0.00096     0.40700
      H   17    0.09659      0.00000     0.40229    0.00113     0.40341
      H   18    0.10211      0.00000     0.39661    0.00127     0.39789
      H   19    0.09799      0.00000     0.40076    0.00126     0.40201
      H   20    0.08734      0.00000     0.41147    0.00119     0.41266
      H   21    0.10676      0.00000     0.39180    0.00144     0.39324
      H   22    0.10990      0.00000     0.38647    0.00363     0.39010
      H   23    0.19731      0.00000     0.29188    0.01081     0.30269
      H   24    0.11736      0.00000     0.37031    0.01233     0.38264
      H   25    0.10731      0.00000     0.38998    0.00271     0.39269
      H   26    0.10974      0.00000     0.38857    0.00169     0.39026
      H   27    0.10107      0.00000     0.39717    0.00175     0.39893
      H   28    0.10567      0.00000     0.39316    0.00117     0.39433
      H   29    0.11129      0.00000     0.38690    0.00181     0.38871
      H   30    0.10597      0.00000     0.39249    0.00154     0.39403
 =======================================================================
   * Total *    0.00000     17.99419    37.79870    0.20711    56.00000

 Normal termination of Gaussian 16 at Thu Dec 10 09:59:12 2020.
