 Gaussian 16, Revision A.03,

 -----------------------------------------------------------
 # opt freq B3LYP/6-31G(d) empiricaldispersion=gd3bj scf=xqc
 -----------------------------------------------------------

 -----------------------------
 CID_53865658_JID_863_neutraal
 -----------------------------
 Symbolic Z-matrix:
 Charge =  0 Multiplicity = 1

 SCF Done:  E(RB3LYP) =  -424.006515714     A.U. after   12 cycles
 SCF Done:  E(RB3LYP) =  -424.015854689     A.U. after   11 cycles
 SCF Done:  E(RB3LYP) =  -424.017048427     A.U. after   10 cycles
 SCF Done:  E(RB3LYP) =  -424.017164595     A.U. after    9 cycles
 SCF Done:  E(RB3LYP) =  -424.017216853     A.U. after   10 cycles
 SCF Done:  E(RB3LYP) =  -424.017230189     A.U. after    8 cycles
 SCF Done:  E(RB3LYP) =  -424.017237948     A.U. after    7 cycles
 SCF Done:  E(RB3LYP) =  -424.017239040     A.U. after    7 cycles
 SCF Done:  E(RB3LYP) =  -424.017239417     A.U. after    7 cycles
 SCF Done:  E(RB3LYP) =  -424.017239584     A.U. after    7 cycles
 Optimization completed.
    -- Stationary point found.

 1\1\GINC-NODE100\FOpt\RB3LYP\6-31G(d)\C8H16N2\VSC10255\08-Dec-2020\0\\
 # opt freq B3LYP/6-31G(d) empiricaldispersion=gd3bj scf=xqc\\CID_53865
 658_JID_863_neutraal\\0,1\C,-1.2230019107,-0.755711319,-0.5481798677\C
 ,-1.2581315008,0.8060282201,-0.5110859087\C,0.027559954,1.1654070813,0
 .2683759834\C,0.0650112683,0.0284364393,1.3113365947\C,0.0521482302,-1
 .0983703894,0.2570167017\C,1.283340307,-0.7304959238,-0.5982246029\C,1
 .2861094057,0.831465336,-0.5777427267\C,1.3547758919,1.4564812075,-1.9
 725246443\N,1.2253736084,2.9200167456,-1.8578147404\N,2.6167340939,1.0

 Normal termination of Gaussian 16 at Tue Dec  8 12:42:35 2020.

 --------------------------------------------------------------------
 #N Geom=AllCheck Guess=TCheck SCRF=Check GenChk RB3LYP/6-31G(d) Freq
 --------------------------------------------------------------------

 Structure from the checkpoint file:  "JID_863.chk"
 -----------------------------
 CID_53865658_JID_863_neutraal
 -----------------------------
 Charge =  0 Multiplicity = 1

 SCF Done:  E(RB3LYP) =  -424.017239584     A.U. after    1 cycles

  Exact polarizability: 102.215  -1.330  89.328  -1.411  -0.753  82.971
 Approx polarizability: 130.734  -2.733 128.350  -2.200  -0.122 125.722

                      1                      2                      3
                      A                      A                      A
 Frequencies --     89.7471                97.7291               183.8294
 Red. masses --      3.2177                 2.8468                 3.4287
 Frc consts  --      0.0153                 0.0160                 0.0683
 IR Inten    --      0.9502                 0.3262                 0.3486

                      4                      5                      6
                      A                      A                      A
 Frequencies --    266.7580               294.3832               296.9789
 Red. masses --      1.3892                 1.3642                 1.4930
 Frc consts  --      0.0582                 0.0697                 0.0776
 IR Inten    --     12.8747                31.1140                23.5559

                      7                      8                      9
                      A                      A                      A
 Frequencies --    349.6806               385.2772               419.4532
 Red. masses --      1.9550                 2.1599                 2.2657
 Frc consts  --      0.1408                 0.1889                 0.2349
 IR Inten    --     28.7000                 2.8413                 3.8546

                     10                     11                     12
                      A                      A                      A
 Frequencies --    466.9827               486.7742               508.5644
 Red. masses --      1.9822                 2.9716                 2.6710
 Frc consts  --      0.2547                 0.4148                 0.4070
 IR Inten    --      3.3785                10.4441                21.9875

                     13                     14                     15
                      A                      A                      A
 Frequencies --    581.4114               766.1502               778.4404
 Red. masses --      3.5923                 3.7219                 3.1740
 Frc consts  --      0.7155                 1.2872                 1.1332
 IR Inten    --      8.2536                 4.3685                 1.1702

                     16                     17                     18
                      A                      A                      A
 Frequencies --    819.9692               825.6735               844.3261
 Red. masses --      1.6274                 1.8917                 2.3599
 Frc consts  --      0.6447                 0.7598                 0.9912
 IR Inten    --      2.1434                 3.3721                 5.9643

                     19                     20                     21
                      A                      A                      A
 Frequencies --    891.1039               897.2159               913.3808
 Red. masses --      1.8581                 2.1013                 1.5467
 Frc consts  --      0.8693                 0.9966                 0.7603
 IR Inten    --     49.2669                70.2099               109.0699

                     22                     23                     24
                      A                      A                      A
 Frequencies --    939.1878               953.2384               972.1215
 Red. masses --      2.9426                 1.9593                 1.5865
 Frc consts  --      1.5293                 1.0490                 0.8834
 IR Inten    --      1.0792                10.0655                 5.8687

                     25                     26                     27
                      A                      A                      A
 Frequencies --    974.9742               979.2840              1017.8304
 Red. masses --      2.2454                 1.7303                 2.1149
 Frc consts  --      1.2576                 0.9777                 1.2909
 IR Inten    --      0.6210                 5.4764                32.6844

                     28                     29                     30
                      A                      A                      A
 Frequencies --   1024.0810              1068.2531              1071.3380
 Red. masses --      1.8881                 1.6210                 1.8894
 Frc consts  --      1.1667                 1.0899                 1.2777
 IR Inten    --      4.1887                 7.3318                 7.0742

                     31                     32                     33
                      A                      A                      A
 Frequencies --   1091.8133              1105.6965              1139.9823
 Red. masses --      1.7527                 1.8987                 1.1868
 Frc consts  --      1.2310                 1.3677                 0.9087
 IR Inten    --      9.7069                26.4366                 0.1818

                     34                     35                     36
                      A                      A                      A
 Frequencies --   1148.7329              1164.7850              1210.9976
 Red. masses --      1.0743                 1.1825                 1.4296
 Frc consts  --      0.8352                 0.9453                 1.2353
 IR Inten    --      0.2377                 0.2521                 1.8968

                     37                     38                     39
                      A                      A                      A
 Frequencies --   1230.1066              1271.3741              1274.2183
 Red. masses --      1.6413                 1.4974                 1.4975
 Frc consts  --      1.4633                 1.4260                 1.4325
 IR Inten    --      0.1001                 9.4573                 1.6136

                     40                     41                     42
                      A                      A                      A
 Frequencies --   1289.5190              1300.0183              1301.4749
 Red. masses --      1.3432                 1.4319                 1.4850
 Frc consts  --      1.3159                 1.4258                 1.4820
 IR Inten    --      3.1541                 1.2118                 0.5499

                     43                     44                     45
                      A                      A                      A
 Frequencies --   1318.3409              1343.8243              1346.0523
 Red. masses --      1.3743                 1.6292                 1.3711
 Frc consts  --      1.4073                 1.7335                 1.4637
 IR Inten    --      0.0559                 0.8466                 3.6554

                     46                     47                     48
                      A                      A                      A
 Frequencies --   1359.4975              1371.3269              1374.4122
 Red. masses --      1.5757                 1.4610                 1.4796
 Frc consts  --      1.7159                 1.6187                 1.6467
 IR Inten    --      0.9110                 2.0873                10.4415

                     49                     50                     51
                      A                      A                      A
 Frequencies --   1410.2998              1475.2285              1518.7655
 Red. masses --      1.3019                 1.5700                 1.0845
 Frc consts  --      1.5257                 2.0131                 1.4739
 IR Inten    --     15.8499                15.6105                 0.2576

                     52                     53                     54
                      A                      A                      A
 Frequencies --   1524.4941              1531.5813              1551.9440
 Red. masses --      1.0955                 1.0936                 1.1027
 Frc consts  --      1.5000                 1.5115                 1.5647
 IR Inten    --      4.0965                 3.8117                 2.1491

                     55                     56                     57
                      A                      A                      A
 Frequencies --   1686.7600              1700.1002              2971.5722
 Red. masses --      1.0944                 1.0943                 1.0819
 Frc consts  --      1.8346                 1.8635                 5.6285
 IR Inten    --     37.7343                20.8715                56.8119

                     58                     59                     60
                      A                      A                      A
 Frequencies --   3037.3130              3055.7321              3057.6815
 Red. masses --      1.0849                 1.0607                 1.0587
 Frc consts  --      5.8966                 5.8355                 5.8320
 IR Inten    --     29.1978                25.8644                39.8770

                     61                     62                     63
                      A                      A                      A
 Frequencies --   3066.8350              3071.8744              3090.6526
 Red. masses --      1.0634                 1.0622                 1.1034
 Frc consts  --      5.8930                 5.9056                 6.2099
 IR Inten    --     51.5143                23.8593                10.9091

                     64                     65                     66
                      A                      A                      A
 Frequencies --   3098.8369              3103.7336              3106.0290
 Red. masses --      1.0865                 1.1066                 1.0891
 Frc consts  --      6.1471                 6.2810                 6.1904
 IR Inten    --     80.5312                20.6273                19.3707

                     67                     68                     69
                      A                      A                      A
 Frequencies --   3110.1009              3114.5217              3448.1631
 Red. masses --      1.1056                 1.1040                 1.0495
 Frc consts  --      6.3007                 6.3094                 7.3517
 IR Inten    --     54.7232                71.9396                 5.0853

                     70                     71                     72
                      A                      A                      A
 Frequencies --   3451.6192              3534.8952              3537.1879
 Red. masses --      1.0494                 1.0918                 1.0918
 Frc consts  --      7.3660                 8.0378                 8.0480
 IR Inten    --      3.1410                 2.5698                 2.4931

 - Thermochemistry -
 -------------------
 Temperature   298.150 Kelvin.  Pressure   1.00000 Atm.
 Atom     1 has atomic number  6 and mass  12.00000

 Molecular mass:   140.13135 amu.
 Principal axes and moments of inertia in atomic units:
                           1         2         3
     Eigenvalues --   765.884041758.707361976.22161
           X            0.99999   0.00009  -0.00319
           Y           -0.00018   0.99958  -0.02905
           Z            0.00319   0.02905   0.99957
 This molecule is an asymmetric top.
 Rotational symmetry number  1.
 Warning -- assumption of classical behavior for rotation
           may cause significant error
 Rotational temperatures (Kelvin)      0.11309     0.04925     0.04383
 Rotational constants (GHZ):           2.35642     1.02617     0.91323
 Zero-point vibrational energy     634393.0 (Joules/Mol)
                                  151.62357 (Kcal/Mol)
 Warning -- explicit consideration of  13 degrees of freedom as
           vibrations may cause significant error
 Vibrational temperatures:    129.13   140.61   264.49   383.81   423.55
          (Kelvin)            427.29   503.11   554.33   603.50   671.88
                              700.36   731.71   836.52  1102.32  1120.00
                             1179.75  1187.96  1214.80  1282.10  1290.89
                             1314.15  1351.28  1371.50  1398.67  1402.77
                             1408.97  1464.43  1473.42  1536.98  1541.42
                             1570.88  1590.85  1640.18  1652.77  1675.87
                             1742.36  1769.85  1829.22  1833.32  1855.33
                             1870.44  1872.53  1896.80  1933.46  1936.67
                             1956.01  1973.03  1977.47  2029.11  2122.52
                             2185.16  2193.41  2203.60  2232.90  2426.87
                             2446.06  4275.43  4370.02  4396.52  4399.32
                             4412.49  4419.74  4446.76  4458.54  4465.58
                             4468.88  4474.74  4481.10  4961.14  4966.11
                             5085.93  5089.22

 Zero-point correction=                           0.241628 (Hartree/Particle)
 Thermal correction to Energy=                    0.250875
 Thermal correction to Enthalpy=                  0.251819
 Thermal correction to Gibbs Free Energy=         0.207784
 Sum of electronic and zero-point Energies=           -423.775612
 Sum of electronic and thermal Energies=              -423.766364
 Sum of electronic and thermal Enthalpies=            -423.765420
 Sum of electronic and thermal Free Energies=         -423.809456

                     E (Thermal)             CV                S
                      KCal/Mol        Cal/Mol-Kelvin    Cal/Mol-Kelvin
 Total                  157.427             38.071             92.681
 Electronic               0.000              0.000              0.000
 Translational            0.889              2.981             40.724
 Rotational               0.889              2.981             29.366
 Vibrational            155.649             32.110             22.591
 Vibration     1          0.602              1.956              3.666
 Vibration     2          0.603              1.951              3.499
 Vibration     3          0.631              1.862              2.289
 Vibration     4          0.672              1.734              1.617
 Vibration     5          0.689              1.684              1.449
 Vibration     6          0.691              1.679              1.434
 Vibration     7          0.727              1.576              1.168
 Vibration     8          0.754              1.502              1.018
 Vibration     9          0.782              1.428              0.894
 Vibration    10          0.824              1.323              0.746
 Vibration    11          0.843              1.279              0.692
 Vibration    12          0.864              1.231              0.637
 Vibration    13          0.938              1.072              0.483

                           ! Non-Optimized Parameters !

 1\1\GINC-NODE100\Freq\RB3LYP\6-31G(d)\C8H16N2\VSC10255\08-Dec-2020\0\\
 #N Geom=AllCheck Guess=TCheck SCRF=Check GenChk RB3LYP/6-31G(d) Freq\\
 CID_53865658_JID_863_neutraal\\0,1\C,-1.2230019107,-0.755711319,-0.548
 1798677\C,-1.2581315008,0.8060282201,-0.5110859087\C,0.027559954,1.165
 4070813,0.2683759834\C,0.0650112683,0.0284364393,1.3113365947\C,0.0521
 482302,-1.0983703894,0.2570167017\C,1.283340307,-0.7304959238,-0.59822
 46029\C,1.2861094057,0.831465336,-0.5777427267\C,1.3547758919,1.456481
 2075,-1.9725246443\N,1.2253736084,2.9200167456,-1.8578147404\N,2.61673

 Normal termination of Gaussian 16 at Tue Dec  8 13:04:03 2020.

 ----------------------------------------------------------------------
 # B3LYP/6-311++G(d,p) empiricaldispersion=gd3bj scf=xqc pop=npa geom=c
 heck
 ----------------------------------------------------------------------

 -------------------------------------
 CID_53865658_JID_863_Energie_neutraal
 -------------------------------------
 Structure from the checkpoint file:  "JID_863.chk"
 Charge =  0 Multiplicity = 1

 SCF Done:  E(RB3LYP) =  -424.148339360     A.U. after   13 cycles
 Normal termination of Gaussian 16 at Tue Dec  8 13:08:41 2020.

 ----------------------------------------------------------------------
 # B3LYP/6-311++G(d,p) empiricaldispersion=gd3bj scf=xqc pop=npa geom=c
 heck
 ----------------------------------------------------------------------

 -----------------------------------
 CID_53865658_JID_863_Energie_kation
 -----------------------------------
 Structure from the checkpoint file:  "JID_863.chk"
 Charge =  1 Multiplicity = 2

 SCF Done:  E(UB3LYP) =  -423.818579558     A.U. after   26 cycles
 Normal termination of Gaussian 16 at Tue Dec  8 13:23:25 2020.
 Gaussian 16:  ES64L-G16RevA.03 25-Dec-2016

 ----------------------------------
 CID_53865658_JID_863_Energie_anion
 ----------------------------------
 Structure from the checkpoint file:  "JID_863.chk"
 Charge = -1 Multiplicity = 2

                         Standard orientation:
 ---------------------------------------------------------------------
 Center     Atomic      Atomic             Coordinates (Angstroms)
 Number     Number       Type             X           Y           Z
 ---------------------------------------------------------------------
      1          6           0       -1.892051    0.150434   -1.219198
      2          6           0       -1.079776    1.350431   -0.634512
      3          6           0       -0.615862    0.820150    0.741461
      4          6           0       -1.849993   -0.001687    1.169684
      5          6           0       -1.834186   -0.899624   -0.085269
      6          6           0       -0.404507   -1.478756   -0.028466
      7          6           0        0.439801   -0.304398    0.561599
      8          6           0        1.668362    0.043051   -0.281427
      9          7           0        2.325458    1.235381    0.282856
     10          7           0        2.571356   -1.101254   -0.300466
     11          1           0       -2.926052    0.442438   -1.433349
     12          1           0       -1.461274   -0.234395   -2.149869
     13          1           0       -0.252373    1.657927   -1.281592
     14          1           0       -1.720409    2.228879   -0.498937
     15          1           0       -0.304112    1.603683    1.438347
     16          1           0       -1.694649   -0.557720    2.101249
     17          1           0       -2.759119    0.603848    1.264266
     18          1           0       -2.619873   -1.657908   -0.147475
     19          1           0       -0.036200   -1.787202   -1.011897
     20          1           0       -0.357219   -2.359288    0.620021
     21          1           0        0.814036   -0.572688    1.558434
     22          1           0        1.348645    0.187389   -1.327460
     23          1           0        3.092299    1.517726   -0.327889
     24          1           0        1.674491    2.020362    0.299308
     25          1           0        3.339181   -0.927831   -0.948343
     26          1           0        2.994202   -1.181705    0.625221
 ---------------------------------------------------------------------

 SCF Done:  E(UB3LYP) =  -424.133167751     A.U. after   27 cycles

 The electronic state is 2-A.
 Alpha  occ. eigenvalues --  -14.18160 -14.17868 -10.10805 -10.06192 -10.06177
 Alpha  occ. eigenvalues --  -10.05766 -10.05488 -10.05481 -10.05359 -10.04985
 Alpha  occ. eigenvalues --   -0.80977  -0.76062  -0.72460  -0.63620  -0.61600
 Alpha  occ. eigenvalues --   -0.59204  -0.52153  -0.48038  -0.44612  -0.42343
 Alpha  occ. eigenvalues --   -0.40305  -0.38248  -0.37276  -0.35974  -0.34349
 Alpha  occ. eigenvalues --   -0.32353  -0.30425  -0.28632  -0.26513  -0.25259
 Alpha  occ. eigenvalues --   -0.24525  -0.23483  -0.22543  -0.22251  -0.20617
 Alpha  occ. eigenvalues --   -0.19670  -0.18373  -0.14799  -0.13589   0.04713
 Alpha virt. eigenvalues --    0.06781   0.07977   0.08425   0.09489   0.09770
 Alpha virt. eigenvalues --    0.10255   0.10843   0.11031   0.12505   0.12674
 Alpha virt. eigenvalues --    0.13322   0.13735   0.14394   0.15524   0.16248

  Beta  occ. eigenvalues --  -14.18127 -14.17820 -10.10787 -10.06183 -10.06171
  Beta  occ. eigenvalues --  -10.05761 -10.05473 -10.05464 -10.05335 -10.04978
  Beta  occ. eigenvalues --   -0.80918  -0.76032  -0.72370  -0.63587  -0.61567
  Beta  occ. eigenvalues --   -0.59165  -0.52086  -0.47981  -0.44573  -0.42298
  Beta  occ. eigenvalues --   -0.40250  -0.38190  -0.37235  -0.35926  -0.34286
  Beta  occ. eigenvalues --   -0.32305  -0.30382  -0.28605  -0.26473  -0.25227
  Beta  occ. eigenvalues --   -0.24498  -0.23451  -0.22516  -0.22223  -0.20588
  Beta  occ. eigenvalues --   -0.19645  -0.18348  -0.14751  -0.13535
  Beta virt. eigenvalues --    0.07041   0.08088   0.08702   0.08842   0.10161
  Beta virt. eigenvalues --    0.10406   0.10753   0.11203   0.11358   0.13093
  Beta virt. eigenvalues --    0.13174   0.13737   0.14342   0.14614   0.15776

 Mulliken charges and spin densities:
               1          2
     1  C    0.436006  -0.972282
     2  C    0.529932  -1.052305
     3  C   -1.535095   1.815101
     4  C    1.024440  -1.774103
     5  C   -0.517506   1.015510
     6  C   -0.423793  -0.277626
     7  C    1.384777  -1.246692
     8  C    0.854795  -1.604860
     9  N   -0.393855   0.085159
    10  N   -0.486932   0.172917
    11  H   -0.024848   0.169129
    12  H   -0.068269   0.200847
    13  H    0.006308   0.137803
    14  H   -0.443047   0.605505
    15  H   -0.297017   0.533609
    16  H    0.039059   0.090675
    17  H   -0.341557   0.496016
    18  H   -0.386066   0.605476
    19  H    0.157403   0.013815
    20  H   -0.022275   0.164871
    21  H    0.122746   0.061920
    22  H   -0.143069   0.351761
    23  H   -0.401677   0.648905
    24  H    0.046956   0.182438
    25  H   -0.216207   0.457331
    26  H    0.098789   0.119078
 Sum of Mulliken charges =  -1.00000   1.00000

 Dipole moment (field-independent basis, Debye):
    X=             -1.9470    Y=             -2.6290    Z=              1.3129  Tot=              3.5251
 Quadrupole moment (field-independent basis, Debye-Ang):
   XX=           -126.2466   YY=           -103.2584   ZZ=            -93.9650
   XY=             -1.9921   XZ=              5.7412   YZ=             -0.2225

 Summary of Natural Population Analysis:

                                       Natural Population
                Natural  -----------------------------------------------
    Atom  No    Charge         Core      Valence    Rydberg      Total
 -----------------------------------------------------------------------
      C    1   -0.19186      0.99963     2.18351    0.00873     3.19186
      C    2   -0.19701      0.99963     2.18803    0.00934     3.19701
      C    3   -0.11106      0.99959     2.09974    0.01174     3.11106
      C    4   -0.18884      0.99962     2.17996    0.00926     3.18884
      C    5   -0.11353      0.99960     2.10203    0.01190     3.11353
      C    6   -0.18608      0.99961     2.17814    0.00833     3.18608
      C    7   -0.11244      0.99956     2.10004    0.01284     3.11244
      C    8    0.07681      0.99959     1.90913    0.01447     2.92319
      N    9   -0.43228      0.99976     2.92182    0.01070     3.93228
      N   10   -0.42012      0.99976     2.90979    0.01056     3.92012
      H   11    0.09818      0.00000     0.40063    0.00119     0.40182
      H   12    0.09663      0.00000     0.40213    0.00124     0.40337
      H   13    0.10048      0.00000     0.39783    0.00169     0.39952
      H   14    0.10036      0.00000     0.39806    0.00158     0.39964
      H   15    0.10397      0.00000     0.39493    0.00110     0.39603
      H   16    0.09768      0.00000     0.40125    0.00107     0.40232
      H   17    0.09977      0.00000     0.39889    0.00134     0.40023
      H   18    0.09937      0.00000     0.39950    0.00114     0.40063
      H   19    0.10276      0.00000     0.39567    0.00157     0.39724
      H   20    0.09864      0.00000     0.40039    0.00097     0.40136
      H   21    0.09981      0.00000     0.39874    0.00145     0.40019
      H   22    0.07688      0.00000     0.42013    0.00299     0.42312
      H   23    0.17717      0.00000     0.31801    0.00482     0.32283
      H   24    0.17700      0.00000     0.32048    0.00252     0.32300
      H   25    0.17568      0.00000     0.32167    0.00266     0.32432
      H   26    0.17206      0.00000     0.32579    0.00215     0.32794
 =======================================================================
   * Total *    0.00000      9.99635    28.86630    0.13735    39.00000

 Normal termination of Gaussian 16 at Tue Dec  8 13:31:14 2020.
