 Gaussian 16, Revision A.03,

 -----------------------------------------------------------
 # opt freq B3LYP/6-31G(d) empiricaldispersion=gd3bj scf=xqc
 -----------------------------------------------------------

 -------------------------------
 CID_141763284_JID_7987_neutraal
 -------------------------------
 Symbolic Z-matrix:
 Charge =  0 Multiplicity = 1

 SCF Done:  E(RB3LYP) =  -1236.62313972     A.U. after   15 cycles
 SCF Done:  E(RB3LYP) =  -1236.63164648     A.U. after   13 cycles
 SCF Done:  E(RB3LYP) =  -1236.63197992     A.U. after   13 cycles
 SCF Done:  E(RB3LYP) =  -1236.63274156     A.U. after   13 cycles
 SCF Done:  E(RB3LYP) =  -1236.63309323     A.U. after   12 cycles
 SCF Done:  E(RB3LYP) =  -1236.63318653     A.U. after   12 cycles
 SCF Done:  E(RB3LYP) =  -1236.63324163     A.U. after   12 cycles
 SCF Done:  E(RB3LYP) =  -1236.63329886     A.U. after   11 cycles
 SCF Done:  E(RB3LYP) =  -1236.63333192     A.U. after   11 cycles
 SCF Done:  E(RB3LYP) =  -1236.63333503     A.U. after   10 cycles
 SCF Done:  E(RB3LYP) =  -1236.63333831     A.U. after    9 cycles
 SCF Done:  E(RB3LYP) =  -1236.63333882     A.U. after    8 cycles
 SCF Done:  E(RB3LYP) =  -1236.63333900     A.U. after    8 cycles
 SCF Done:  E(RB3LYP) =  -1236.63333905     A.U. after    7 cycles
 Optimization completed.
    -- Stationary point found.
 Normal termination of Gaussian 16 at Fri Dec 11 13:27:07 2020.

 --------------------------------------------------------------------
 #N Geom=AllCheck Guess=TCheck SCRF=Check GenChk RB3LYP/6-31G(d) Freq
 --------------------------------------------------------------------

 Structure from the checkpoint file:  "JID_7987.chk"
 -------------------------------
 CID_141763284_JID_7987_neutraal
 -------------------------------
 Charge =  0 Multiplicity = 1

 SCF Done:  E(RB3LYP) =  -1236.63333905     A.U. after    1 cycles

  Exact polarizability: 146.468 -15.839 105.572  -9.853 -12.266 128.827
 Approx polarizability: 215.355 -30.006 172.246 -13.029 -32.118 235.683

                      1                      2                      3
                      A                      A                      A
 Frequencies --     33.0856                51.2191                58.3677
 Red. masses --      5.9484                10.0044                 6.2956
 Frc consts  --      0.0038                 0.0155                 0.0126
 IR Inten    --      0.4945                 1.6387                 0.5327

                      4                      5                      6
                      A                      A                      A
 Frequencies --     67.7996                95.0138               116.4339
 Red. masses --      5.2080                 6.1097                10.7750
 Frc consts  --      0.0141                 0.0325                 0.0861
 IR Inten    --      2.0384                 1.2287                 0.6763

                      7                      8                      9
                      A                      A                      A
 Frequencies --    139.4440               173.7517               183.4939
 Red. masses --      7.8997                 8.4462                 6.7870
 Frc consts  --      0.0905                 0.1502                 0.1346
 IR Inten    --      1.2163                 1.5678                 1.1962

                     10                     11                     12
                      A                      A                      A
 Frequencies --    216.2300               246.2900               276.6260
 Red. masses --      5.5750                 5.0270                 5.6440
 Frc consts  --      0.1536                 0.1797                 0.2545
 IR Inten    --      3.2865                 1.5625                 0.5208

                     13                     14                     15
                      A                      A                      A
 Frequencies --    304.0721               321.6007               329.0224
 Red. masses --      7.8763                10.4611                 4.9043
 Frc consts  --      0.4291                 0.6375                 0.3128
 IR Inten    --      2.8701                 1.5950                 2.3270

                     16                     17                     18
                      A                      A                      A
 Frequencies --    412.9128               418.6291               445.3990
 Red. masses --      4.4868                 3.7648                 4.4637
 Frc consts  --      0.4507                 0.3887                 0.5217
 IR Inten    --      4.5238                 1.9001                11.3933

                     19                     20                     21
                      A                      A                      A
 Frequencies --    471.4912               513.4831               534.2942
 Red. masses --      4.0522                 1.9397                 4.8309
 Frc consts  --      0.5307                 0.3013                 0.8125
 IR Inten    --      3.3255                13.2706                61.3692

                     22                     23                     24
                      A                      A                      A
 Frequencies --    567.9810               578.8351               612.3121
 Red. masses --      3.2170                 4.6359                 2.7774
 Frc consts  --      0.6115                 0.9151                 0.6135
 IR Inten    --    121.7115               101.0250                34.7509

                     25                     26                     27
                      A                      A                      A
 Frequencies --    629.8095               667.1437               687.2040
 Red. masses --      6.4253                 1.6684                 2.5901
 Frc consts  --      1.5016                 0.4375                 0.7207
 IR Inten    --      0.0766                70.4964                25.1681

                     28                     29                     30
                      A                      A                      A
 Frequencies --    697.6360               704.0935               750.7196
 Red. masses --      2.5715                 3.3344                 2.7178
 Frc consts  --      0.7374                 0.9739                 0.9025
 IR Inten    --     32.5717                13.8315                88.3977

                     31                     32                     33
                      A                      A                      A
 Frequencies --    771.5072               800.1386               836.4250
 Red. masses --      1.9973                 4.5705                 3.2112
 Frc consts  --      0.7004                 1.7240                 1.3236
 IR Inten    --      7.4061                82.8641                21.9664

                     34                     35                     36
                      A                      A                      A
 Frequencies --    859.9766               908.5299               944.1177
 Red. masses --      1.2441                 3.9921                 1.3258
 Frc consts  --      0.5421                 1.9415                 0.6963
 IR Inten    --      0.3388                 6.3939                 1.2717

                     37                     38                     39
                      A                      A                      A
 Frequencies --    979.4208              1005.4166              1017.9731
 Red. masses --      1.3547                 1.2769                 3.9245
 Frc consts  --      0.7656                 0.7605                 2.3961
 IR Inten    --      0.1770                 0.0444                10.7019

                     40                     41                     42
                      A                      A                      A
 Frequencies --   1023.7055              1053.8895              1059.0767
 Red. masses --      3.2316                 2.9946                 2.3544
 Frc consts  --      1.9953                 1.9596                 1.5559
 IR Inten    --      4.1098                 2.9618                 3.1793

                     43                     44                     45
                      A                      A                      A
 Frequencies --   1085.8268              1113.9209              1132.7555
 Red. masses --      4.0090                 1.5659                 4.2391
 Frc consts  --      2.7849                 1.1448                 3.2048
 IR Inten    --     70.1763                 4.8726               128.3209

                     46                     47                     48
                      A                      A                      A
 Frequencies --   1179.5000              1197.4736              1210.4694
 Red. masses --      2.4614                 1.1045                 1.6261
 Frc consts  --      2.0176                 0.9331                 1.4038
 IR Inten    --    250.6081                 0.3803                88.6747

                     49                     50                     51
                      A                      A                      A
 Frequencies --   1215.2326              1240.7277              1265.4436
 Red. masses --      1.2929                 1.2188                 1.6964
 Frc consts  --      1.1249                 1.1054                 1.6005
 IR Inten    --     49.1341                28.6273                11.8825

                     52                     53                     54
                      A                      A                      A
 Frequencies --   1304.2322              1312.2123              1335.4852
 Red. masses --      1.4202                 8.3316                 1.4635
 Frc consts  --      1.4233                 8.4526                 1.5379
 IR Inten    --     21.8347               139.9023                 0.3807

                     55                     56                     57
                      A                      A                      A
 Frequencies --   1349.1296              1368.6883              1406.7570
 Red. masses --      1.5765                 3.8843                 2.9197
 Frc consts  --      1.6907                 4.2871                 3.4043
 IR Inten    --      0.8491                 2.3390                46.5677

                     58                     59                     60
                      A                      A                      A
 Frequencies --   1433.8234              1487.9479              1496.2170
 Red. masses --      2.0732                 1.1372                 2.2035
 Frc consts  --      2.5113                 1.4834                 2.9064
 IR Inten    --     61.7931                33.4074                17.2610

                     61                     62                     63
                      A                      A                      A
 Frequencies --   1528.9512              1647.3417              1648.8932
 Red. masses --      2.0425                 5.6865                 5.4459
 Frc consts  --      2.8132                 9.0921                 8.7239
 IR Inten    --      2.8930                 1.0634                 1.5226

                     64                     65                     66
                      A                      A                      A
 Frequencies --   1842.1136              1846.7587              3079.2969
 Red. masses --     10.1661                 9.9220                 1.0722
 Frc consts  --     20.3253                19.9374                 5.9902
 IR Inten    --    286.6074               208.4206                 1.8805

                     67                     68                     69
                      A                      A                      A
 Frequencies --   3086.3993              3158.1681              3192.6754
 Red. masses --      1.0788                 1.0953                 1.0862
 Frc consts  --      6.0545                 6.4367                 6.5233
 IR Inten    --      1.4922                 0.1811                 0.8345

                     70                     71                     72
                      A                      A                      A
 Frequencies --   3205.0544              3215.2170              3235.9194
 Red. masses --      1.0905                 1.0956                 1.0928
 Frc consts  --      6.5999                 6.6729                 6.7419
 IR Inten    --     14.7291                18.8488                 2.4036

                     73                     74                     75
                      A                      A                      A
 Frequencies --   3255.7225              3681.4003              3683.0595
 Red. masses --      1.0926                 1.0638                 1.0639
 Frc consts  --      6.8233                 8.4944                 8.5029
 IR Inten    --      1.9050                67.7587                47.9556

 - Thermochemistry -
 -------------------
 Temperature   298.150 Kelvin.  Pressure   1.00000 Atm.
 Atom     1 has atomic number  6 and mass  12.00000

 Molecular mass:   258.01981 amu.
 Principal axes and moments of inertia in atomic units:
                           1         2         3
     Eigenvalues --  3160.732984238.761744860.90014
           X            0.99976  -0.01152  -0.01882
           Y            0.01013   0.99733  -0.07227
           Z            0.01960   0.07206   0.99721
 This molecule is an asymmetric top.
 Rotational symmetry number  1.
 Warning -- assumption of classical behavior for rotation
           may cause significant error
 Rotational temperatures (Kelvin)      0.02740     0.02043     0.01782
 Rotational constants (GHZ):           0.57099     0.42577     0.37128
 Zero-point vibrational energy     520419.7 (Joules/Mol)
                                  124.38330 (Kcal/Mol)
 Warning -- explicit consideration of  24 degrees of freedom as
           vibrations may cause significant error
 Vibrational temperatures:     47.60    73.69    83.98    97.55   136.70
          (Kelvin)            167.52   200.63   249.99   264.01   311.11
                              354.36   398.00   437.49   462.71   473.39
                              594.09   602.31   640.83   678.37   738.79
                              768.73   817.20   832.81   880.98   906.16
                              959.87   988.73  1003.74  1013.03  1080.12
                             1110.03  1151.22  1203.43  1237.31  1307.17
                             1358.37  1409.17  1446.57  1464.64  1472.88
                             1516.31  1523.78  1562.26  1602.68  1629.78
                             1697.04  1722.90  1741.60  1748.45  1785.13
                             1820.69  1876.50  1887.98  1921.47  1941.10
                             1969.24  2024.01  2062.95  2140.83  2152.72
                             2199.82  2370.16  2372.39  2650.39  2657.07
                             4430.42  4440.64  4543.90  4593.55  4611.36
                             4625.98  4655.77  4684.26  5296.71  5299.10

 Zero-point correction=                           0.198217 (Hartree/Particle)
 Thermal correction to Energy=                    0.213916
 Thermal correction to Enthalpy=                  0.214861
 Thermal correction to Gibbs Free Energy=         0.154151
 Sum of electronic and zero-point Energies=          -1236.435122
 Sum of electronic and thermal Energies=             -1236.419423
 Sum of electronic and thermal Enthalpies=           -1236.418479
 Sum of electronic and thermal Free Energies=        -1236.479188

                     E (Thermal)             CV                S
                      KCal/Mol        Cal/Mol-Kelvin    Cal/Mol-Kelvin
 Total                  134.235             58.606            127.774
 Electronic               0.000              0.000              0.000
 Translational            0.889              2.981             42.543
 Rotational               0.889              2.981             32.543
 Vibrational            132.457             52.644             52.687
 Vibration     1          0.594              1.983              5.635
 Vibration     2          0.595              1.977              4.770
 Vibration     3          0.596              1.974              4.512
 Vibration     4          0.598              1.970              4.216
 Vibration     5          0.603              1.953              3.554
 Vibration     6          0.608              1.936              3.159
 Vibration     7          0.615              1.914              2.811
 Vibration     8          0.627              1.875              2.395
 Vibration     9          0.631              1.862              2.293
 Vibration    10          0.645              1.816              1.990
 Vibration    11          0.661              1.769              1.757
 Vibration    12          0.678              1.717              1.554
 Vibration    13          0.695              1.666              1.394
 Vibration    14          0.707              1.632              1.302
 Vibration    15          0.712              1.618              1.265
 Vibration    16          0.777              1.442              0.916
 Vibration    17          0.781              1.430              0.897
 Vibration    18          0.805              1.371              0.810
 Vibration    19          0.828              1.313              0.733
 Vibration    20          0.869              1.220              0.625
 Vibration    21          0.889              1.174              0.578
 Vibration    22          0.924              1.101              0.508
 Vibration    23          0.935              1.077              0.488
 Vibration    24          0.972              1.006              0.429

 Optimization completed.
    -- Stationary point found.
 Normal termination of Gaussian 16 at Fri Dec 11 13:37:37 2020.

 ----------------------------------------------------------------------
 # B3LYP/6-311++G(d,p) empiricaldispersion=gd3bj scf=xqc pop=npa geom=c
 heck
 ----------------------------------------------------------------------

 ---------------------------------------
 CID_141763284_JID_7987_Energie_neutraal
 ---------------------------------------
 Structure from the checkpoint file:  "JID_7987.chk"
 Charge =  0 Multiplicity = 1

 SCF Done:  E(RB3LYP) =  -1236.91773036     A.U. after   16 cycles
 Normal termination of Gaussian 16 at Fri Dec 11 13:41:33 2020.

 ----------------------------------------------------------------------
 # B3LYP/6-311++G(d,p) empiricaldispersion=gd3bj scf=xqc pop=npa geom=c
 heck
 ----------------------------------------------------------------------

 -------------------------------------
 CID_141763284_JID_7987_Energie_kation
 -------------------------------------
 Structure from the checkpoint file:  "JID_7987.chk"
 Charge =  1 Multiplicity = 2

 SCF Done:  E(UB3LYP) =  -1236.56768082     A.U. after   33 cycles
 SCF Done:  E(UB3LYP) =  -1236.56768082     a.u. after    1 cycles
 Normal termination of Gaussian 16 at Fri Dec 11 13:52:34 2020.
 Gaussian 16:  ES64L-G16RevA.03 25-Dec-2016

 ----------------------------------------------------------------------
 # B3LYP/6-311++G(d,p) empiricaldispersion=gd3bj scf=xqc pop=npa geom=c
 heck
 ----------------------------------------------------------------------

 ------------------------------------
 CID_141763284_JID_7987_Energie_anion
 ------------------------------------
 Structure from the checkpoint file:  "JID_7987.chk"
 Charge = -1 Multiplicity = 2

                         Standard orientation:
 ---------------------------------------------------------------------
 Center     Atomic      Atomic             Coordinates (Angstroms)
 Number     Number       Type             X           Y           Z
 ---------------------------------------------------------------------
      1          6           0       -3.456362    0.160106    0.911143
      2          6           0       -3.129988    0.474605   -0.409223
      3          6           0       -1.940371    0.004831   -0.963945
      4          6           0       -1.091402   -0.771041   -0.173486
      5          6           0       -1.411635   -1.110793    1.140484
      6          6           0       -2.604066   -0.635512    1.680773
      7         16           0        0.449049   -1.339919   -0.885226
      8          8           0        0.837003   -2.609483   -0.260863
      9          8           0        0.323161   -1.221018   -2.349607
     10          6           0        1.737966   -0.083503   -0.464266
     11          6           0        1.398812    1.297219   -1.036041
     12          6           0        0.382065    2.049536   -0.203402
     13          8           0        0.198570    1.895904    0.983587
     14          8           0       -0.287634    2.959014   -0.942428
     15          6           0        2.228520    0.030389    0.975283
     16          8           0        3.156014    0.753358    1.257689
     17          8           0        1.589820   -0.745502    1.862235
     18          1           0       -4.383846    0.528181    1.340311
     19          1           0       -3.804093    1.077053   -1.010843
     20          1           0       -1.671757    0.220179   -1.991689
     21          1           0       -0.734278   -1.728648    1.715695
     22          1           0       -2.870504   -0.887757    2.702621
     23          1           0        2.580772   -0.486275   -1.038368
     24          1           0        2.317549    1.895507   -1.032699
     25          1           0        1.064318    1.208438   -2.070851
     26          1           0       -0.895275    3.414074   -0.328831
     27          1           0        1.995628   -0.555249    2.729453
 ---------------------------------------------------------------------

 SCF Done:  E(UB3LYP) =  -1236.92070690     A.U. after   33 cycles
 SCF Done:  E(UB3LYP) =  -1236.92070690     a.u. after    1 cycles

 The electronic state is 2-A.
 Alpha  occ. eigenvalues --  -88.90833 -19.07468 -19.06618 -19.01671 -18.99851
 Alpha  occ. eigenvalues --  -18.98041 -18.97962 -10.21552 -10.18928 -10.11145
 Alpha  occ. eigenvalues --  -10.09014 -10.04599 -10.03937 -10.03792 -10.03397
 Alpha  occ. eigenvalues --  -10.03088 -10.02236  -7.97189  -5.93496  -5.93381
 Alpha  occ. eigenvalues --   -5.93262  -1.01812  -1.00285  -0.97217  -0.92753
 Alpha  occ. eigenvalues --   -0.91080  -0.87094  -0.72356  -0.71398  -0.63024
 Alpha  occ. eigenvalues --   -0.61454  -0.61141  -0.54245  -0.52537  -0.48801
 Alpha  occ. eigenvalues --   -0.47293  -0.45203  -0.42186  -0.39796  -0.39492
 Alpha  occ. eigenvalues --   -0.38567  -0.38124  -0.36067  -0.35261  -0.33983
 Alpha  occ. eigenvalues --   -0.33831  -0.32883  -0.30976  -0.30860  -0.30296
 Alpha  occ. eigenvalues --   -0.29217  -0.29039  -0.28288  -0.27878  -0.23963
 Alpha  occ. eigenvalues --   -0.23046  -0.22661  -0.21660  -0.21366  -0.20806
 Alpha  occ. eigenvalues --   -0.19632  -0.18739  -0.17489  -0.17300  -0.15494
 Alpha  occ. eigenvalues --   -0.13111  -0.12449   0.05201
 Alpha virt. eigenvalues --    0.07558   0.08406   0.08670   0.09059   0.09769
 Alpha virt. eigenvalues --    0.10643   0.10942   0.11425   0.11932   0.12510
 Alpha virt. eigenvalues --    0.13303   0.14009   0.14394   0.15842   0.16774

  Beta  occ. eigenvalues --  -88.90819 -19.07466 -19.06620 -19.01661 -18.99756
  Beta  occ. eigenvalues --  -18.98003 -18.97929 -10.21552 -10.18791 -10.11085
  Beta  occ. eigenvalues --  -10.09016 -10.04363 -10.03886 -10.03838 -10.03379
  Beta  occ. eigenvalues --  -10.02853 -10.01815  -7.97173  -5.93487  -5.93321
  Beta  occ. eigenvalues --   -5.93257  -1.01805  -1.00188  -0.97077  -0.92741
  Beta  occ. eigenvalues --   -0.90954  -0.87005  -0.71987  -0.71199  -0.62525
  Beta  occ. eigenvalues --   -0.61203  -0.60772  -0.54028  -0.52244  -0.48548
  Beta  occ. eigenvalues --   -0.47170  -0.44854  -0.42031  -0.39619  -0.39413
  Beta  occ. eigenvalues --   -0.38368  -0.38009  -0.35982  -0.35008  -0.33742
  Beta  occ. eigenvalues --   -0.33650  -0.32732  -0.30821  -0.30716  -0.30187
  Beta  occ. eigenvalues --   -0.29119  -0.28891  -0.28230  -0.27750  -0.23336
  Beta  occ. eigenvalues --   -0.22858  -0.22243  -0.21364  -0.21093  -0.20699
  Beta  occ. eigenvalues --   -0.19524  -0.18679  -0.17397  -0.17169  -0.15302
  Beta  occ. eigenvalues --   -0.11615  -0.11053
  Beta virt. eigenvalues --    0.07585   0.08423   0.08723   0.09291   0.09726
  Beta virt. eigenvalues --    0.10562   0.10813   0.11345   0.11561   0.12120
  Beta virt. eigenvalues --    0.13072   0.13425   0.13960   0.14334   0.15686

 Mulliken charges and spin densities:
               1          2
     1  C   -0.329786   0.328342
     2  C   -0.490731  -0.006313
     3  C   -0.063019   0.091754
     4  C    0.045470   0.106795
     5  C   -0.251858   0.233152
     6  C   -0.498625  -0.064901
     7  S    0.663279   0.082878
     8  O   -0.173414  -0.009927
     9  O   -0.197477   0.008733
    10  C   -0.238424   0.313157
    11  C   -0.317139  -0.513678
    12  C   -0.034237   0.176767
    13  O   -0.191611   0.030891
    14  O   -0.105583   0.008272
    15  C   -0.067140  -0.206750
    16  O   -0.270947   0.003695
    17  O   -0.142508  -0.000004
    18  H    0.096587  -0.016580
    19  H    0.121577   0.005342
    20  H    0.192047  -0.001540
    21  H    0.222756  -0.013087
    22  H    0.117544   0.010033
    23  H    0.134981   0.180481
    24  H   -0.064425   0.286658
    25  H    0.324839  -0.064163
    26  H    0.245005   0.031772
    27  H    0.272838  -0.001780
 Sum of Mulliken charges =  -1.00000   1.00000

 Dipole moment (field-independent basis, Debye):
    X=              0.7843    Y=              3.0359    Z=              1.7300  Tot=              3.5812
 Quadrupole moment (field-independent basis, Debye-Ang):
   XX=           -138.3810   YY=           -130.5439   ZZ=           -119.9411
   XY=             -6.6194   XZ=              2.3837   YZ=             -9.0766

 Summary of Natural Population Analysis:

                                       Natural Population
                Natural  -----------------------------------------------
    Atom  No    Charge         Core      Valence    Rydberg      Total
 -----------------------------------------------------------------------
      C    1   -0.01876      0.99958     2.00962    0.00956     3.01876
      C    2   -0.11505      0.99957     2.10632    0.00917     3.11505
      C    3   -0.07763      0.99951     2.06886    0.00926     3.07763
      C    4   -0.11384      0.99936     2.09767    0.01681     3.11384
      C    5   -0.04283      0.99950     2.03399    0.00934     3.04283
      C    6   -0.12732      0.99957     2.11857    0.00918     3.12732
      S    7    1.05354      4.99911     1.85304    0.09431     6.94646
      O    8   -0.46890      0.99991     3.46380    0.00519     4.46890
      O    9   -0.48243      0.99991     3.47625    0.00627     4.48243
      C   10   -0.24082      0.99948     2.22328    0.01806     3.24082
      C   11   -0.24922      0.99955     2.23866    0.01100     3.24922
      C   12    0.41922      0.99973     1.55433    0.02672     2.58078
      O   13   -0.29549      0.99987     3.28900    0.00663     4.29549
      O   14   -0.34845      0.99987     3.34227    0.00631     4.34845
      C   15    0.40888      0.99967     1.56088    0.03057     2.59112
      O   16   -0.31185      0.99987     3.30543    0.00655     4.31185
      O   17   -0.32532      0.99987     3.31942    0.00604     4.32532
      H   18    0.08490      0.00000     0.41408    0.00103     0.41510
      H   19    0.09079      0.00000     0.40818    0.00103     0.40921
      H   20    0.10683      0.00000     0.39194    0.00124     0.39317
      H   21    0.10632      0.00000     0.39266    0.00102     0.39368
      H   22    0.09149      0.00000     0.40746    0.00105     0.40851
      H   23    0.12881      0.00000     0.36907    0.00211     0.37119
      H   24    0.12447      0.00000     0.37384    0.00169     0.37553
      H   25    0.12511      0.00000     0.37380    0.00109     0.37489
      H   26    0.23964      0.00000     0.25734    0.00302     0.26036
      H   27    0.23790      0.00000     0.25967    0.00243     0.26210
 =======================================================================
   * Total *   -0.00000     20.99392    45.70941    0.29668    67.00000

 Normal termination of Gaussian 16 at Fri Dec 11 14:03:53 2020.
