 Gaussian 16, Revision A.03,

 -----------------------------------------------------------
 # opt freq B3LYP/6-31G(d) empiricaldispersion=gd3bj scf=xqc
 -----------------------------------------------------------

 ------------------------------
 CID_80131839_JID_8614_neutraal
 ------------------------------
 Symbolic Z-matrix:
 Charge =  0 Multiplicity = 1

 SCF Done:  E(RB3LYP) =  -863.630745395     A.U. after   14 cycles
 SCF Done:  E(RB3LYP) =  -862.262373344     A.U. after   17 cycles
 SCF Done:  E(RB3LYP) =  -863.510183895     A.U. after   14 cycles
 SCF Done:  E(RB3LYP) =  -863.632736920     A.U. after   12 cycles
 SCF Done:  E(RB3LYP) =  -863.635754058     A.U. after   11 cycles
 SCF Done:  E(RB3LYP) =  -863.637321868     A.U. after   12 cycles
 SCF Done:  E(RB3LYP) =  -863.637702419     A.U. after   12 cycles
 SCF Done:  E(RB3LYP) =  -863.637757173     A.U. after   12 cycles
 SCF Done:  E(RB3LYP) =  -863.638497819     A.U. after   12 cycles
 SCF Done:  E(RB3LYP) =  -863.639000959     A.U. after   11 cycles
 SCF Done:  E(RB3LYP) =  -863.639691401     A.U. after    8 cycles
 SCF Done:  E(RB3LYP) =  -863.639691485     A.U. after    7 cycles
 SCF Done:  E(RB3LYP) =  -863.639691564     A.U. after    7 cycles
 SCF Done:  E(RB3LYP) =  -863.639691599     A.U. after    7 cycles
 SCF Done:  E(RB3LYP) =  -863.639691628     A.U. after    7 cycles
 Optimization completed.
    -- Stationary point found.
 Normal termination of Gaussian 16 at Fri Dec 11 21:43:39 2020.

 --------------------------------------------------------------------
 #N Geom=AllCheck Guess=TCheck SCRF=Check GenChk RB3LYP/6-31G(d) Freq
 --------------------------------------------------------------------

 Structure from the checkpoint file:  "JID_8614.chk"
 ------------------------------
 CID_80131839_JID_8614_neutraal
 ------------------------------
 Charge =  0 Multiplicity = 1

 SCF Done:  E(RB3LYP) =  -863.639691628     A.U. after    1 cycles

  Exact polarizability: 168.538   1.535 160.429  -2.307   9.245 116.904
 Approx polarizability: 227.319   5.586 226.269  -7.928  17.209 184.041

                      1                      2                      3
                      A                      A                      A
 Frequencies --     29.5484                41.2087                53.0321
 Red. masses --      4.0651                 4.7150                 5.7772
 Frc consts  --      0.0021                 0.0047                 0.0096
 IR Inten    --      1.4157                 0.1677                 1.5530

                      4                      5                      6
                      A                      A                      A
 Frequencies --     57.1261                70.9576               100.3766
 Red. masses --      4.5806                 4.3218                 5.0795
 Frc consts  --      0.0088                 0.0128                 0.0302
 IR Inten    --      0.1832                 1.1535                 5.7282

                      7                      8                      9
                      A                      A                      A
 Frequencies --    117.0488               123.6156               139.7594
 Red. masses --      4.6811                 4.3600                 3.5299
 Frc consts  --      0.0378                 0.0393                 0.0406
 IR Inten    --      2.2693                 0.3662                 0.1732

                     10                     11                     12
                      A                      A                      A
 Frequencies --    156.2221               215.6210               230.7981
 Red. masses --      3.3244                 2.2334                 1.7242
 Frc consts  --      0.0478                 0.0612                 0.0541
 IR Inten    --      1.2906                 4.8532                 3.8511

                     13                     14                     15
                      A                      A                      A
 Frequencies --    241.2167               249.9164               296.5651
 Red. masses --      2.1249                 4.9490                 3.2614
 Frc consts  --      0.0728                 0.1821                 0.1690
 IR Inten    --      1.1027                 9.3343                 2.0910

                     16                     17                     18
                      A                      A                      A
 Frequencies --    315.2640               331.6843               335.1752
 Red. masses --      2.0463                 2.2726                 2.5619
 Frc consts  --      0.1198                 0.1473                 0.1696
 IR Inten    --      2.2007                 6.4694                 4.1401

                     19                     20                     21
                      A                      A                      A
 Frequencies --    377.2215               384.3377               408.6248
 Red. masses --      2.5751                 2.2425                 2.6026
 Frc consts  --      0.2159                 0.1952                 0.2560
 IR Inten    --      1.8864                 2.2622                 0.9980

                     22                     23                     24
                      A                      A                      A
 Frequencies --    464.9495               465.9545               481.2029
 Red. masses --      2.0040                 2.6968                 1.3752
 Frc consts  --      0.2553                 0.3450                 0.1876
 IR Inten    --     35.1749                 3.0952                63.5042

                     25                     26                     27
                      A                      A                      A
 Frequencies --    556.9360               619.0933               635.1814
 Red. masses --      3.8178                 3.6763                 3.8006
 Frc consts  --      0.6977                 0.8302                 0.9034
 IR Inten    --      1.4961                 5.0975                 4.1434

                     28                     29                     30
                      A                      A                      A
 Frequencies --    656.5810               667.0248               740.7997
 Red. masses --      3.2996                 3.2121                 1.4873
 Frc consts  --      0.8381                 0.8420                 0.4809
 IR Inten    --      4.1796                12.5046                50.2805

                     31                     32                     33
                      A                      A                      A
 Frequencies --    766.0226               794.5432               814.2773
 Red. masses --      4.0902                 1.1788                 2.9679
 Frc consts  --      1.4141                 0.4385                 1.1594
 IR Inten    --     22.9199                60.3555                37.0918

                     34                     35                     36
                      A                      A                      A
 Frequencies --    849.9769               858.6519               881.7062
 Red. masses --      1.3969                 3.4828                 2.2233
 Frc consts  --      0.5946                 1.5129                 1.0183
 IR Inten    --      2.2795                15.9895                 7.2890

                     37                     38                     39
                      A                      A                      A
 Frequencies --    894.4888               899.0846               908.6900
 Red. masses --      1.5788                 1.6885                 5.1595
 Frc consts  --      0.7443                 0.8042                 2.5101
 IR Inten    --     10.5038                 2.9475                 8.4096

                     40                     41                     42
                      A                      A                      A
 Frequencies --    932.9621               935.7247               943.5479
 Red. masses --      2.1726                 2.2766                 1.3496
 Frc consts  --      1.1142                 1.1744                 0.7079
 IR Inten    --      7.0753                19.1419                 4.8588

                     43                     44                     45
                      A                      A                      A
 Frequencies --    966.2706               974.7306               988.5774
 Red. masses --      2.8785                 2.0261                 2.4003
 Frc consts  --      1.5835                 1.1341                 1.3821
 IR Inten    --     37.2570                14.6018                 8.5784

                     46                     47                     48
                      A                      A                      A
 Frequencies --    995.7948              1014.7618              1037.8113
 Red. masses --      2.4610                 1.8438                 8.3234
 Frc consts  --      1.4378                 1.1187                 5.2819
 IR Inten    --      8.8322                20.5407                71.8005

                     49                     50                     51
                      A                      A                      A
 Frequencies --   1046.6981              1056.1734              1080.7936
 Red. masses --      1.3608                 1.7024                 2.5448
 Frc consts  --      0.8784                 1.1189                 1.7514
 IR Inten    --     35.7618                11.2140                86.0863

                     52                     53                     54
                      A                      A                      A
 Frequencies --   1092.3094              1115.8263              1124.5381
 Red. masses --      2.7612                 3.1284                 3.2893
 Frc consts  --      1.9410                 2.2949                 2.4508
 IR Inten    --    105.7067                 3.5901                57.0231

                     55                     56                     57
                      A                      A                      A
 Frequencies --   1149.1025              1170.3925              1174.8036
 Red. masses --      2.2734                 1.2309                 1.1155
 Frc consts  --      1.7686                 0.9935                 0.9071
 IR Inten    --      7.8849                 0.8659                 0.5158

                     58                     59                     60
                      A                      A                      A
 Frequencies --   1178.8200              1190.0869              1195.4301
 Red. masses --      3.3662                 1.8835                 1.9860
 Frc consts  --      2.7560                 1.5717                 1.6722
 IR Inten    --     51.6508                16.2411                21.0779

                     61                     62                     63
                      A                      A                      A
 Frequencies --   1230.5397              1238.4148              1264.6243
 Red. masses --      2.3225                 2.4619                 1.7721
 Frc consts  --      2.0721                 2.2246                 1.6698
 IR Inten    --     10.9641                 2.8149                28.9217

                     64                     65                     66
                      A                      A                      A
 Frequencies --   1271.2167              1284.6192              1299.9622
 Red. masses --      1.3773                 1.6811                 2.2290
 Frc consts  --      1.3113                 1.6345                 2.2194
 IR Inten    --     14.8035                 9.1214                 3.6802

                     67                     68                     69
                      A                      A                      A
 Frequencies --   1318.9201              1321.4177              1330.6154
 Red. masses --      1.2550                 1.2786                 1.3117
 Frc consts  --      1.2863                 1.3154                 1.3683
 IR Inten    --      2.8456                 8.8219                14.0467

                     70                     71                     72
                      A                      A                      A
 Frequencies --   1337.6449              1369.4907              1389.5085
 Red. masses --      1.1623                 1.3462                 1.5450
 Frc consts  --      1.2253                 1.4876                 1.7575
 IR Inten    --      4.7672                12.5930                 1.2425

                     73                     74                     75
                      A                      A                      A
 Frequencies --   1400.2294              1416.2245              1426.2016
 Red. masses --      1.2606                 1.4441                 1.5291
 Frc consts  --      1.4562                 1.7065                 1.8325
 IR Inten    --     25.8563                15.3980                 0.8534

                     76                     77                     78
                      A                      A                      A
 Frequencies --   1430.9746              1438.7931              1444.0376
 Red. masses --      1.4676                 1.7776                 1.2401
 Frc consts  --      1.7706                 2.1681                 1.5236
 IR Inten    --      1.1355                14.9559                 4.9805

                     79                     80                     81
                      A                      A                      A
 Frequencies --   1456.1535              1505.4731              1519.9417
 Red. masses --      1.2895                 1.0888                 1.1057
 Frc consts  --      1.6110                 1.4540                 1.5050
 IR Inten    --     71.8880                 8.3171                 5.4159

                     82                     83                     84
                      A                      A                      A
 Frequencies --   1523.8293              1525.5704              1525.8579
 Red. masses --      1.0552                 1.0656                 1.0843
 Frc consts  --      1.4437                 1.4612                 1.4873
 IR Inten    --      5.5499                 2.7070                 1.9924

                     85                     86                     87
                      A                      A                      A
 Frequencies --   1536.8863              1542.1222              1544.8347
 Red. masses --      1.0815                 3.8893                 1.1217
 Frc consts  --      1.5051                 5.4495                 1.5772
 IR Inten    --      3.0356                23.6600                 0.4780

                     88                     89                     90
                      A                      A                      A
 Frequencies --   1556.3174              1567.5715              1651.9599
 Red. masses --      1.1803                 1.1170                 6.1354
 Frc consts  --      1.6844                 1.6171                 9.8649
 IR Inten    --     29.9387                 7.1817                 0.7216

                     91                     92                     93
                      A                      A                      A
 Frequencies --   2923.6857              3025.7699              3031.0044
 Red. masses --      1.0734                 1.0538                 1.0843
 Frc consts  --      5.4062                 5.6845                 5.8689
 IR Inten    --     58.7565                79.7218                29.7547

                     94                     95                     96
                      A                      A                      A
 Frequencies --   3041.2484              3047.6733              3049.0249
 Red. masses --      1.0415                 1.0646                 1.0603
 Frc consts  --      5.6758                 5.8260                 5.8079
 IR Inten    --     24.8371                18.6605                48.9130

                     97                     98                     99
                      A                      A                      A
 Frequencies --   3052.2047              3058.8586              3067.9088
 Red. masses --      1.0759                 1.0654                 1.1113
 Frc consts  --      5.9052                 5.8735                 6.1625
 IR Inten    --      6.7050                85.1565                76.8541

                    100                    101                    102
                      A                      A                      A
 Frequencies --   3071.4751              3095.1258              3106.8129
 Red. masses --      1.0623                 1.1029                 1.1017
 Frc consts  --      5.9048                 6.2250                 6.2652
 IR Inten    --     23.1805                69.6005                28.8549

                    103                    104                    105
                      A                      A                      A
 Frequencies --   3115.0707              3116.6650              3123.0566
 Red. masses --      1.1074                 1.1025                 1.0999
 Frc consts  --      6.3311                 6.3099                 6.3207
 IR Inten    --     28.9964                26.3259                16.9381

                    106                    107                    108
                      A                      A                      A
 Frequencies --   3127.1437              3265.0486              3276.6915
 Red. masses --      1.1036                 1.0922                 1.0973
 Frc consts  --      6.3587                 6.8599                 6.9416
 IR Inten    --     22.9629                 6.1177                 1.4642

                    109                    110                    111
                      A                      A                      A
 Frequencies --   3303.3919              3540.6424              3682.0998
 Red. masses --      1.1054                 1.0742                 1.0650
 Frc consts  --      7.1068                 7.9342                 8.5075
 IR Inten    --     24.4307                48.4874                41.0194

 - Thermochemistry -
 -------------------
 Temperature   298.150 Kelvin.  Pressure   1.00000 Atm.
 Atom     1 has atomic number  6 and mass  12.00000

 Molecular mass:   255.14706 amu.
 Principal axes and moments of inertia in atomic units:
                           1         2         3
     Eigenvalues --  3663.985845224.087758059.94318
           X            0.99965  -0.02554   0.00635
           Y            0.02551   0.99966   0.00593
           Z           -0.00650  -0.00577   0.99996
 This molecule is an asymmetric top.
 Rotational symmetry number  1.
 Warning -- assumption of classical behavior for rotation
           may cause significant error
 Rotational temperatures (Kelvin)      0.02364     0.01658     0.01075
 Rotational constants (GHZ):           0.49256     0.34547     0.22391
 Zero-point vibrational energy     887546.6 (Joules/Mol)
                                  212.12872 (Kcal/Mol)
 Warning -- explicit consideration of  26 degrees of freedom as
           vibrations may cause significant error
 Vibrational temperatures:     42.51    59.29    76.30    82.19   102.09
          (Kelvin)            144.42   168.41   177.86   201.08   224.77
                              310.23   332.07   347.06   359.57   426.69
                              453.59   477.22   482.24   542.74   552.98
                              587.92   668.96   670.40   692.34   801.31
                              890.74   913.88   944.67   959.70  1065.85
                             1102.14  1143.17  1171.56  1222.93  1235.41
                             1268.58  1286.97  1293.58  1307.40  1342.32
                             1346.30  1357.56  1390.25  1402.42  1422.34
                             1432.73  1460.02  1493.18  1505.97  1519.60
                             1555.02  1571.59  1605.43  1617.96  1653.30
                             1683.93  1690.28  1696.06  1712.27  1719.96
                             1770.47  1781.80  1819.51  1829.00  1848.28
                             1870.36  1897.63  1901.23  1914.46  1924.57
                             1970.39  1999.19  2014.62  2037.63  2051.99
                             2058.85  2070.10  2077.65  2095.08  2166.04
                             2186.86  2192.45  2194.96  2195.37  2211.24
                             2218.77  2222.67  2239.19  2255.39  2376.80
                             4206.53  4353.41  4360.94  4375.68  4384.92
                             4386.87  4391.44  4401.02  4414.04  4419.17
                             4453.20  4470.01  4481.89  4484.19  4493.38
                             4499.26  4697.68  4714.43  4752.84  5094.19
                             5297.72

 Zero-point correction=                           0.338049 (Hartree/Particle)
 Thermal correction to Energy=                    0.356078
 Thermal correction to Enthalpy=                  0.357022
 Thermal correction to Gibbs Free Energy=         0.290853
 Sum of electronic and zero-point Energies=           -863.301643
 Sum of electronic and thermal Energies=              -863.283614
 Sum of electronic and thermal Enthalpies=            -863.282669
 Sum of electronic and thermal Free Energies=         -863.348839

                     E (Thermal)             CV                S
                      KCal/Mol        Cal/Mol-Kelvin    Cal/Mol-Kelvin
 Total                  223.442             68.241            139.266
 Electronic               0.000              0.000              0.000
 Translational            0.889              2.981             42.510
 Rotational               0.889              2.981             33.400
 Vibrational            221.665             62.279             63.355
 Vibration     1          0.593              1.984              5.860
 Vibration     2          0.594              1.981              5.200
 Vibration     3          0.596              1.976              4.701
 Vibration     4          0.596              1.975              4.554
 Vibration     5          0.598              1.968              4.127
 Vibration     6          0.604              1.949              3.447
 Vibration     7          0.608              1.935              3.149
 Vibration     8          0.610              1.929              3.043
 Vibration     9          0.615              1.914              2.807
 Vibration    10          0.620              1.896              2.595
 Vibration    11          0.645              1.817              1.996
 Vibration    12          0.653              1.794              1.873
 Vibration    13          0.658              1.777              1.794
 Vibration    14          0.663              1.763              1.731
 Vibration    15          0.690              1.680              1.436
 Vibration    16          0.703              1.645              1.335
 Vibration    17          0.714              1.612              1.252
 Vibration    18          0.716              1.605              1.235
 Vibration    19          0.748              1.519              1.050
 Vibration    20          0.753              1.504              1.022
 Vibration    21          0.773              1.451              0.931
 Vibration    22          0.822              1.328              0.752
 Vibration    23          0.823              1.326              0.749
 Vibration    24          0.838              1.292              0.707
 Vibration    25          0.912              1.125              0.530
 Vibration    26          0.979              0.992              0.418

 Optimization completed.
    -- Stationary point found.
 Normal termination of Gaussian 16 at Fri Dec 11 22:05:28 2020.

 ----------------------------------------------------------------------
 # B3LYP/6-311++G(d,p) empiricaldispersion=gd3bj scf=xqc pop=npa geom=c
 heck
 ----------------------------------------------------------------------

 --------------------------------------
 CID_80131839_JID_8614_Energie_neutraal
 --------------------------------------
 Structure from the checkpoint file:  "JID_8614.chk"
 Charge =  0 Multiplicity = 1

 SCF Done:  E(RB3LYP) =  -863.896758164     A.U. after   14 cycles
 Normal termination of Gaussian 16 at Fri Dec 11 22:14:58 2020.

 ----------------------------------------------------------------------
 # B3LYP/6-311++G(d,p) empiricaldispersion=gd3bj scf=xqc pop=npa geom=c
 heck
 ----------------------------------------------------------------------

 ------------------------------------
 CID_80131839_JID_8614_Energie_kation
 ------------------------------------
 Structure from the checkpoint file:  "JID_8614.chk"
 Charge =  1 Multiplicity = 2

 SCF Done:  E(UB3LYP) =  -863.607308544     A.U. after   30 cycles
 Normal termination of Gaussian 16 at Fri Dec 11 22:43:33 2020.
 Gaussian 16:  ES64L-G16RevA.03 25-Dec-2016

 ----------------------------------------------------------------------
 # B3LYP/6-311++G(d,p) empiricaldispersion=gd3bj scf=xqc pop=npa geom=c
 heck
 ----------------------------------------------------------------------

 -----------------------------------
 CID_80131839_JID_8614_Energie_anion
 -----------------------------------
 Structure from the checkpoint file:  "JID_8614.chk"
 Charge = -1 Multiplicity = 2

                         Standard orientation:
 ---------------------------------------------------------------------
 Center     Atomic      Atomic             Coordinates (Angstroms)
 Number     Number       Type             X           Y           Z
 ---------------------------------------------------------------------
      1          6           0        4.259450   -0.713571    0.764165
      2          6           0        2.939117   -0.226922    0.176082
      3          6           0        3.060901    0.709630   -1.051998
      4          8           0        2.414999    1.800797   -0.341544
      5          6           0        2.339162    1.020053    0.871398
      6          6           0        1.955857   -1.394429    0.026380
      7          7           0        0.812543   -1.073581   -0.814256
      8          6           0       -0.211648   -2.104205   -0.898923
      9          6           0       -0.996236   -2.433027    0.392441
     10          6           0       -1.734055   -1.248977    1.026954
     11          8           0       -2.935454   -0.935682    0.315146
     12          6           0       -2.865164    0.075456   -0.701035
     13          6           0       -2.253547    1.363332   -0.274200
     14          6           0       -2.705276    2.461315    0.397481
     15          6           0       -1.596734    3.363555    0.514036
     16          6           0       -0.539813    2.756361   -0.093498
     17          8           0       -0.921604    1.536989   -0.576792
     18          8           0       -1.923013   -3.481966    0.137212
     19          1           0        4.752785   -1.420540    0.086805
     20          1           0        4.945170    0.122662    0.938845
     21          1           0        4.099274   -1.224124    1.721875
     22          1           0        4.089635    0.969882   -1.331780
     23          1           0        2.489465    0.406183   -1.932917
     24          1           0        1.306322    0.926729    1.232763
     25          1           0        2.956601    1.448658    1.672212
     26          1           0        2.473469   -2.249163   -0.432402
     27          1           0        1.688779   -1.716062    1.052179
     28          1           0        0.407132   -0.170139   -0.586258
     29          1           0       -0.924302   -1.822650   -1.682981
     30          1           0        0.257104   -3.036402   -1.237108
     31          1           0       -0.293161   -2.817638    1.141946
     32          1           0       -2.066915   -1.538921    2.028271
     33          1           0       -1.087605   -0.369904    1.125788
     34          1           0       -2.326552   -0.288452   -1.584583
     35          1           0       -3.907851    0.239986   -0.984745
     36          1           0       -3.711928    2.610134    0.762807
     37          1           0       -1.593737    4.337919    0.981807
     38          1           0        0.495967    3.005232   -0.268788
     39          1           0       -2.728983   -3.030854   -0.171809
 ---------------------------------------------------------------------

 SCF Done:  E(UB3LYP) =  -863.884259865     A.U. after   33 cycles
 SCF Done:  E(UB3LYP) =  -863.884259866     a.u. after    1 cycles

 The electronic state is 2-A.
 Alpha  occ. eigenvalues --  -19.10657 -19.05020 -19.03309 -19.03207 -14.20578
 Alpha  occ. eigenvalues --  -10.14765 -10.13995 -10.13434 -10.13129 -10.13030
 Alpha  occ. eigenvalues --  -10.12690 -10.12403 -10.10579 -10.10367 -10.10046
 Alpha  occ. eigenvalues --  -10.08954 -10.08896 -10.07278  -1.02970  -0.96084
 Alpha  occ. eigenvalues --   -0.95566  -0.93036  -0.81948  -0.71977  -0.71018
 Alpha  occ. eigenvalues --   -0.69827  -0.66233  -0.62183  -0.60592  -0.58758
 Alpha  occ. eigenvalues --   -0.57219  -0.55596  -0.52133  -0.50400  -0.47409
 Alpha  occ. eigenvalues --   -0.45439  -0.44848  -0.43199  -0.42411  -0.41018
 Alpha  occ. eigenvalues --   -0.39703  -0.39346  -0.38726  -0.37214  -0.36470
 Alpha  occ. eigenvalues --   -0.35833  -0.35436  -0.34802  -0.33017  -0.32585
 Alpha  occ. eigenvalues --   -0.32306  -0.31778  -0.31631  -0.30743  -0.30051
 Alpha  occ. eigenvalues --   -0.29091  -0.28782  -0.28010  -0.25337  -0.24934
 Alpha  occ. eigenvalues --   -0.24352  -0.22624  -0.21557  -0.20855  -0.20280
 Alpha  occ. eigenvalues --   -0.18353  -0.17060  -0.15000  -0.13080   0.04008
 Alpha virt. eigenvalues --    0.05347   0.06483   0.07168   0.07260   0.07777
 Alpha virt. eigenvalues --    0.08007   0.08633   0.09355   0.09589   0.09852
 Alpha virt. eigenvalues --    0.10025   0.10714   0.11064   0.11844   0.12504

  Beta  occ. eigenvalues --  -19.10632 -19.05014 -19.03303 -19.03201 -14.20575
  Beta  occ. eigenvalues --  -10.14749 -10.13976 -10.13420 -10.13115 -10.13024
  Beta  occ. eigenvalues --  -10.12670 -10.12392 -10.10560 -10.10361 -10.10045
  Beta  occ. eigenvalues --  -10.08932 -10.08887 -10.07234  -1.02926  -0.96069
  Beta  occ. eigenvalues --   -0.95553  -0.93021  -0.81938  -0.71938  -0.70998
  Beta  occ. eigenvalues --   -0.69784  -0.66204  -0.62151  -0.60560  -0.58707
  Beta  occ. eigenvalues --   -0.57171  -0.55558  -0.52102  -0.50371  -0.47356
  Beta  occ. eigenvalues --   -0.45394  -0.44814  -0.43176  -0.42364  -0.40991
  Beta  occ. eigenvalues --   -0.39680  -0.39317  -0.38699  -0.37186  -0.36397
  Beta  occ. eigenvalues --   -0.35807  -0.35405  -0.34764  -0.32985  -0.32550
  Beta  occ. eigenvalues --   -0.32278  -0.31750  -0.31597  -0.30703  -0.30027
  Beta  occ. eigenvalues --   -0.29066  -0.28756  -0.27990  -0.25313  -0.24916
  Beta  occ. eigenvalues --   -0.24334  -0.22600  -0.21528  -0.20843  -0.20200
  Beta  occ. eigenvalues --   -0.18338  -0.17046  -0.14890  -0.13067
  Beta virt. eigenvalues --    0.06100   0.06447   0.06822   0.07574   0.07609
  Beta virt. eigenvalues --    0.08327   0.08506   0.08978   0.09475   0.09949
  Beta virt. eigenvalues --    0.10131   0.10457   0.10899   0.11327   0.12118

 Mulliken charges and spin densities:
               1          2
     1  C    1.778674  -2.183801
     2  C   -1.091250   1.562963
     3  C    0.121924  -0.432816
     4  O   -0.185572   0.007037
     5  C    0.275227  -0.667195
     6  C   -0.571542  -0.364630
     7  N   -0.236970   0.061995
     8  C    0.358121  -0.478700
     9  C   -0.589013   0.157937
    10  C   -0.014635  -0.204478
    11  O   -0.074099  -0.002080
    12  C    1.237108  -1.990786
    13  C    0.684946  -0.571362
    14  C   -1.908859   2.015920
    15  C    1.293937  -1.820980
    16  C   -0.629596   0.756691
    17  O   -0.005753   0.005402
    18  O   -0.165367   0.009885
    19  H   -0.314445   0.465984
    20  H   -0.167159   0.322327
    21  H   -0.405735   0.567283
    22  H   -0.170052   0.331364
    23  H    0.152056   0.052886
    24  H   -0.134894   0.294581
    25  H   -0.435486   0.601891
    26  H    0.016443   0.169444
    27  H    0.261814  -0.145887
    28  H    0.507524  -0.182237
    29  H    0.134683   0.041592
    30  H    0.074012   0.066844
    31  H   -0.094674   0.310169
    32  H   -0.133705   0.348437
    33  H    0.381362  -0.300372
    34  H    0.055032   0.117943
    35  H   -0.382118   0.585202
    36  H   -0.884924   1.082654
    37  H   -0.206768   0.376255
    38  H    0.235401   0.021165
    39  H    0.234353   0.011475
 Sum of Mulliken charges =  -1.00000   1.00000

 Dipole moment (field-independent basis, Debye):
    X=             -0.9740    Y=             -0.0027    Z=             -2.9654  Tot=              3.1212
 Quadrupole moment (field-independent basis, Debye-Ang):
   XX=           -207.3494   YY=           -168.3225   ZZ=           -144.6811
   XY=             10.0419   XZ=             -4.5863   YZ=              0.5223

 Summary of Natural Population Analysis:

                                       Natural Population
                Natural  -----------------------------------------------
    Atom  No    Charge         Core      Valence    Rydberg      Total
 -----------------------------------------------------------------------
      C    1   -0.28281      0.99963     2.27643    0.00676     3.28281
      C    2   -0.07051      0.99957     2.05797    0.01297     3.07051
      C    3    0.00140      0.99957     1.98748    0.01155     2.99860
      O    4   -0.31238      0.99991     3.30441    0.00805     4.31238
      C    5   -0.00091      0.99957     1.98822    0.01312     3.00091
      C    6   -0.08152      0.99957     2.07009    0.01186     3.08152
      N    7   -0.35608      0.99974     2.84504    0.01130     3.85608
      C    8   -0.09523      0.99960     2.08355    0.01207     3.09523
      C    9    0.04195      0.99956     1.94635    0.01214     2.95805
      C   10   -0.02642      0.99954     2.01405    0.01283     3.02642
      O   11   -0.30665      0.99989     3.29676    0.01000     4.30665
      C   12   -0.03456      0.99950     2.02141    0.01364     3.03456
      C   13    0.12505      0.99947     1.86052    0.01496     2.87495
      C   14   -0.13166      0.99949     2.12310    0.00907     3.13166
      C   15   -0.15239      0.99957     2.14367    0.00916     3.15239
      C   16    0.06291      0.99950     1.92353    0.01406     2.93709
      O   17   -0.24239      0.99986     3.23382    0.00872     4.24239
      O   18   -0.37351      0.99990     3.36699    0.00662     4.37351
      H   19    0.10198      0.00000     0.39659    0.00142     0.39802
      H   20    0.10242      0.00000     0.39589    0.00169     0.39758
      H   21    0.10393      0.00000     0.39432    0.00175     0.39607
      H   22    0.08228      0.00000     0.41639    0.00133     0.41772
      H   23    0.09401      0.00000     0.40456    0.00143     0.40599
      H   24    0.08316      0.00000     0.41465    0.00219     0.41684
      H   25    0.08606      0.00000     0.41227    0.00166     0.41394
      H   26    0.09421      0.00000     0.40449    0.00129     0.40579
      H   27    0.08184      0.00000     0.41633    0.00184     0.41816
      H   28    0.18544      0.00000     0.30929    0.00527     0.31456
      H   29    0.09111      0.00000     0.40758    0.00131     0.40889
      H   30    0.09687      0.00000     0.40199    0.00114     0.40313
      H   31    0.08805      0.00000     0.41054    0.00141     0.41195
      H   32    0.09474      0.00000     0.40406    0.00120     0.40526
      H   33    0.08997      0.00000     0.40781    0.00223     0.41003
      H   34    0.08878      0.00000     0.40959    0.00163     0.41122
      H   35    0.10397      0.00000     0.39431    0.00172     0.39603
      H   36    0.11309      0.00000     0.38508    0.00183     0.38691
      H   37    0.10960      0.00000     0.38963    0.00077     0.39040
      H   38    0.11150      0.00000     0.38680    0.00170     0.38850
      H   39    0.23271      0.00000     0.26421    0.00309     0.26729
 =======================================================================
   * Total *   -0.00000     17.99344    50.76979    0.23677    69.00000

 Normal termination of Gaussian 16 at Fri Dec 11 23:14:49 2020.
