 Gaussian 16, Revision A.03,

 -----------------------------------------------------------
 # opt freq B3LYP/6-31G(d) empiricaldispersion=gd3bj scf=xqc
 -----------------------------------------------------------

 ------------------------------
 CID_59649199_JID_6620_neutraal
 ------------------------------
 Symbolic Z-matrix:
 Charge =  0 Multiplicity = 1

 SCF Done:  E(RB3LYP) =  -698.397374855     A.U. after   13 cycles
 SCF Done:  E(RB3LYP) =  -698.401611199     A.U. after   10 cycles
 SCF Done:  E(RB3LYP) =  -698.402329704     A.U. after   10 cycles
 SCF Done:  E(RB3LYP) =  -698.401882194     A.U. after   11 cycles
 SCF Done:  E(RB3LYP) =  -698.402619310     A.U. after   11 cycles
 SCF Done:  E(RB3LYP) =  -698.402710536     A.U. after   10 cycles
 SCF Done:  E(RB3LYP) =  -698.402653801     A.U. after    9 cycles
 SCF Done:  E(RB3LYP) =  -698.402798705     A.U. after   10 cycles
 SCF Done:  E(RB3LYP) =  -698.402903876     A.U. after   10 cycles
 SCF Done:  E(RB3LYP) =  -698.402968047     A.U. after   11 cycles
 SCF Done:  E(RB3LYP) =  -698.403029712     A.U. after    8 cycles
 SCF Done:  E(RB3LYP) =  -698.403041018     A.U. after    9 cycles
 SCF Done:  E(RB3LYP) =  -698.403048648     A.U. after    9 cycles
 SCF Done:  E(RB3LYP) =  -698.403048445     A.U. after    8 cycles
 SCF Done:  E(RB3LYP) =  -698.403048830     A.U. after    7 cycles
 Optimization completed.
    -- Stationary point found.
 Normal termination of Gaussian 16 at Fri Dec 11 00:05:50 2020.

 --------------------------------------------------------------------
 #N Geom=AllCheck Guess=TCheck SCRF=Check GenChk RB3LYP/6-31G(d) Freq
 --------------------------------------------------------------------

 Structure from the checkpoint file:  "JID_6620.chk"
 ------------------------------
 CID_59649199_JID_6620_neutraal
 ------------------------------
 Charge =  0 Multiplicity = 1

 SCF Done:  E(RB3LYP) =  -698.403048830     A.U. after    1 cycles

  Exact polarizability: 168.777   3.172 131.391  -4.697   0.491 131.326
 Approx polarizability: 205.093   0.564 196.777  -7.254  -0.360 198.311

                      1                      2                      3
                      A                      A                      A
 Frequencies --     29.6494                37.5100                50.9749
 Red. masses --      3.7612                 4.3424                 3.4595
 Frc consts  --      0.0019                 0.0036                 0.0053
 IR Inten    --      0.0887                 0.3282                 0.4744

                      4                      5                      6
                      A                      A                      A
 Frequencies --     72.4196                86.8561                99.9539
 Red. masses --      3.6880                 3.0610                 2.8154
 Frc consts  --      0.0114                 0.0136                 0.0166
 IR Inten    --      4.5674                 0.3566                 0.2664

                      7                      8                      9
                      A                      A                      A
 Frequencies --    149.0003               173.4341               213.7849
 Red. masses --      2.5193                 2.9594                 1.8761
 Frc consts  --      0.0330                 0.0524                 0.0505
 IR Inten    --      0.3913                 1.7776                 0.1444

                     10                     11                     12
                      A                      A                      A
 Frequencies --    237.4630               250.3718               310.6877
 Red. masses --      2.1239                 2.3198                 1.8683
 Frc consts  --      0.0706                 0.0857                 0.1063
 IR Inten    --      3.7430                 0.8211                 2.2045

                     13                     14                     15
                      A                      A                      A
 Frequencies --    326.2947               358.0024               384.5240
 Red. masses --      1.8598                 2.3490                 2.1186
 Frc consts  --      0.1167                 0.1774                 0.1846
 IR Inten    --      0.2454                 0.2507                 0.3135

                     16                     17                     18
                      A                      A                      A
 Frequencies --    407.1753               432.6708               444.4139
 Red. masses --      2.2830                 2.8747                 2.2753
 Frc consts  --      0.2230                 0.3171                 0.2648
 IR Inten    --      1.3416                 2.8950                 1.4792

                     19                     20                     21
                      A                      A                      A
 Frequencies --    462.6981               492.1431               514.8074
 Red. masses --      2.4842                 2.5080                 2.4885
 Frc consts  --      0.3134                 0.3579                 0.3886
 IR Inten    --      0.9610                 7.1662                 1.3609

                     22                     23                     24
                      A                      A                      A
 Frequencies --    555.7647               704.3387               770.3432
 Red. masses --      3.5910                 2.8227                 3.3194
 Frc consts  --      0.6535                 0.8250                 1.1606
 IR Inten    --      2.5917                 4.6038                 2.3335

                     25                     26                     27
                      A                      A                      A
 Frequencies --    771.2976               796.4383               817.1093
 Red. masses --      4.0866                 1.2808                 2.5108
 Frc consts  --      1.4324                 0.4787                 0.9877
 IR Inten    --      2.2344                 9.0684                 0.3355

                     28                     29                     30
                      A                      A                      A
 Frequencies --    827.3837               840.2695               845.1372
 Red. masses --      1.4869                 3.3939                 2.4932
 Frc consts  --      0.5997                 1.4118                 1.0492
 IR Inten    --      0.5208                12.9125                 2.8191

                     31                     32                     33
                      A                      A                      A
 Frequencies --    886.9613               890.1432               920.6117
 Red. masses --      2.3943                 2.2184                 1.9009
 Frc consts  --      1.1098                 1.0356                 0.9492
 IR Inten    --      0.5701                 7.9164                 0.3655

                     34                     35                     36
                      A                      A                      A
 Frequencies --    942.6026               944.6731               958.5781
 Red. masses --      2.2600                 2.0431                 2.2354
 Frc consts  --      1.1831                 1.0743                 1.2102
 IR Inten    --      0.4813                 3.7292                 5.1770

                     37                     38                     39
                      A                      A                      A
 Frequencies --    966.9369               974.3385               982.5335
 Red. masses --      1.9075                 2.2163                 2.5630
 Frc consts  --      1.0508                 1.2396                 1.4578
 IR Inten    --      0.6091                 0.8926                16.3230

                     40                     41                     42
                      A                      A                      A
 Frequencies --    985.9850               988.7210               994.4790
 Red. masses --      1.5501                 1.6679                 1.6980
 Frc consts  --      0.8879                 0.9606                 0.9894
 IR Inten    --      2.1631                 4.7572                 0.7286

                     43                     44                     45
                      A                      A                      A
 Frequencies --   1015.7527              1035.4296              1046.9270
 Red. masses --      2.0355                 1.6001                 8.9424
 Frc consts  --      1.2374                 1.0107                 5.7748
 IR Inten    --      7.1243                 0.7290                58.9597

                     46                     47                     48
                      A                      A                      A
 Frequencies --   1061.3540              1071.5731              1079.6925
 Red. masses --      2.1815                 2.0220                 2.1846
 Frc consts  --      1.4479                 1.3680                 1.5004
 IR Inten    --     18.1151                 1.5735                 2.2892

                     49                     50                     51
                      A                      A                      A
 Frequencies --   1091.8141              1128.9615              1136.9845
 Red. masses --      1.6703                 1.7011                 3.3720
 Frc consts  --      1.1732                 1.2774                 2.5683
 IR Inten    --      3.4026                 7.0063               148.3872

                     52                     53                     54
                      A                      A                      A
 Frequencies --   1149.3333              1162.1202              1169.6491
 Red. masses --      1.0622                 1.2054                 1.2216
 Frc consts  --      0.8267                 0.9592                 0.9847
 IR Inten    --      0.6603                 0.1400                 3.3084

                     55                     56                     57
                      A                      A                      A
 Frequencies --   1178.7883              1187.0724              1206.1667
 Red. masses --      1.1296                 2.7013                 2.1816
 Frc consts  --      0.9248                 2.2428                 1.8700
 IR Inten    --      3.8782                26.2328                 1.9245

                     58                     59                     60
                      A                      A                      A
 Frequencies --   1208.5219              1221.5601              1255.8691
 Red. masses --      1.4580                 2.2113                 1.3980
 Frc consts  --      1.2547                 1.9441                 1.2991
 IR Inten    --      3.0029                 1.2468                 6.8305

                     61                     62                     63
                      A                      A                      A
 Frequencies --   1276.4791              1287.9234              1294.6159
 Red. masses --      1.3742                 1.8948                 1.4275
 Frc consts  --      1.3193                 1.8518                 1.4097
 IR Inten    --      4.9428                 8.7651                 0.1550

                     64                     65                     66
                      A                      A                      A
 Frequencies --   1299.4473              1317.2674              1322.2751
 Red. masses --      1.4473                 1.3216                 1.2804
 Frc consts  --      1.4398                 1.3511                 1.3190
 IR Inten    --      4.1018                 8.6625                 5.2731

                     67                     68                     69
                      A                      A                      A
 Frequencies --   1324.4026              1339.7737              1343.0430
 Red. masses --      1.3650                 1.4311                 1.3195
 Frc consts  --      1.4106                 1.5135                 1.4023
 IR Inten    --      9.1291                 0.4652                 4.9714

                     70                     71                     72
                      A                      A                      A
 Frequencies --   1349.1000              1352.7915              1364.2342
 Red. masses --      1.3484                 1.4938                 1.4789
 Frc consts  --      1.4460                 1.6107                 1.6217
 IR Inten    --      1.2870                 0.6885                 1.7382

                     73                     74                     75
                      A                      A                      A
 Frequencies --   1372.6585              1391.0596              1396.3824
 Red. masses --      1.4581                 1.4256                 1.4705
 Frc consts  --      1.6187                 1.6254                 1.6893
 IR Inten    --      1.6373                 3.9102                 0.1928

                     76                     77                     78
                      A                      A                      A
 Frequencies --   1404.8815              1426.7799              1439.3744
 Red. masses --      1.4978                 1.3603                 1.2718
 Frc consts  --      1.7418                 1.6316                 1.5524
 IR Inten    --      1.4667                22.2551                10.4028

                     79                     80                     81
                      A                      A                      A
 Frequencies --   1445.7099              1515.1325              1520.1878
 Red. masses --      1.3362                 1.0709                 1.0831
 Frc consts  --      1.6454                 1.4485                 1.4747
 IR Inten    --      1.4433                 2.5034                 0.5535

                     82                     83                     84
                      A                      A                      A
 Frequencies --   1524.0168              1527.1832              1529.4237
 Red. masses --      1.0909                 1.0793                 1.0849
 Frc consts  --      1.4928                 1.4831                 1.4952
 IR Inten    --      2.7593                 5.7806                 4.5582

                     85                     86                     87
                      A                      A                      A
 Frequencies --   1529.7944              1538.3053              1540.3460
 Red. masses --      1.0537                 1.0891                 1.0796
 Frc consts  --      1.4528                 1.5184                 1.5093
 IR Inten    --      2.3615                 1.0259                 4.8926

                     88                     89                     90
                      A                      A                      A
 Frequencies --   1547.9504              1553.7818              1565.5779
 Red. masses --      1.0592                 1.1010                 1.1102
 Frc consts  --      1.4953                 1.5662                 1.6033
 IR Inten    --      1.2261                 2.4301                 3.0974

                     91                     92                     93
                      A                      A                      A
 Frequencies --   3006.6463              3012.0003              3015.0060
 Red. masses --      1.0668                 1.0682                 1.0604
 Frc consts  --      5.6822                 5.7097                 5.6794
 IR Inten    --     50.0238                29.3921               101.5574

                     94                     95                     96
                      A                      A                      A
 Frequencies --   3027.1617              3041.5205              3045.8676
 Red. masses --      1.0609                 1.0668                 1.0780
 Frc consts  --      5.7280                 5.8148                 5.8924
 IR Inten    --     38.8439                15.1752                20.0390

                     97                     98                     99
                      A                      A                      A
 Frequencies --   3048.3672              3058.4309              3059.4142
 Red. masses --      1.0404                 1.0602                 1.0592
 Frc consts  --      5.6964                 5.8427                 5.8414
 IR Inten    --     19.1021                38.8127                28.1432

                    100                    101                    102
                      A                      A                      A
 Frequencies --   3064.2173              3067.3065              3069.7339
 Red. masses --      1.0627                 1.1061                 1.0997
 Frc consts  --      5.8789                 6.1314                 6.1058
 IR Inten    --     26.0429                15.1334                77.2936

                    103                    104                    105
                      A                      A                      A
 Frequencies --   3070.1127              3082.5237              3092.3952
 Red. masses --      1.0736                 1.0983                 1.0943
 Frc consts  --      5.9622                 6.1486                 6.1658
 IR Inten    --     55.3957                22.9443                44.6559

                    106                    107                    108
                      A                      A                      A
 Frequencies --   3094.3769              3098.4519              3101.9530
 Red. masses --      1.1033                 1.0859                 1.1020
 Frc consts  --      6.2244                 6.1421                 6.2474
 IR Inten    --     10.2172                74.7816                 6.4560

                    109                    110                    111
                      A                      A                      A
 Frequencies --   3104.2332              3108.1155              3109.6337
 Red. masses --      1.1027                 1.1006                 1.0920
 Frc consts  --      6.2608                 6.2644                 6.2217
 IR Inten    --      6.1690               104.2540                33.9551

                    112                    113                    114
                      A                      A                      A
 Frequencies --   3112.2888              3121.2677              3133.3447
 Red. masses --      1.0997                 1.0996                 1.1019
 Frc consts  --      6.2762                 6.3117                 6.3741
 IR Inten    --     41.7330                59.0672                31.6676

 - Thermochemistry -
 -------------------
 Temperature   298.150 Kelvin.  Pressure   1.00000 Atm.
 Atom     1 has atomic number  6 and mass  12.00000

 Molecular mass:   224.17763 amu.
 Principal axes and moments of inertia in atomic units:
                           1         2         3
     Eigenvalues --  1638.222836947.176357503.29919
           X            0.99991   0.01355  -0.00145
           Y           -0.01352   0.99972   0.01966
           Z            0.00171  -0.01964   0.99981
 This molecule is an asymmetric top.
 Rotational symmetry number  1.
 Warning -- assumption of classical behavior for rotation
           may cause significant error
 Rotational temperatures (Kelvin)      0.05287     0.01247     0.01154
 Rotational constants (GHZ):           1.10165     0.25978     0.24053
 Zero-point vibrational energy     961147.5 (Joules/Mol)
                                  229.71977 (Kcal/Mol)
 Warning -- explicit consideration of  22 degrees of freedom as
           vibrations may cause significant error
 Vibrational temperatures:     42.66    53.97    73.34   104.20   124.97
          (Kelvin)            143.81   214.38   249.53   307.59   341.66
                              360.23   447.01   469.47   515.09   553.24
                              585.83   622.52   639.41   665.72   708.08
                              740.69   799.62  1013.39  1108.35  1109.73
                             1145.90  1175.64  1190.42  1208.96  1215.96
                             1276.14  1280.72  1324.55  1356.19  1359.17
                             1379.18  1391.21  1401.86  1413.65  1418.61
                             1422.55  1430.83  1461.44  1489.75  1506.29
                             1527.05  1541.75  1553.44  1570.88  1624.32
                             1635.87  1653.63  1672.03  1682.86  1696.01
                             1707.93  1735.40  1738.79  1757.55  1806.92
                             1836.57  1853.03  1862.66  1869.61  1895.25
                             1902.46  1905.52  1927.64  1932.34  1941.05
                             1946.37  1962.83  1974.95  2001.42  2009.08
                             2021.31  2052.82  2070.94  2080.05  2179.94
                             2187.21  2192.72  2197.28  2200.50  2201.03
                             2213.28  2216.21  2227.16  2235.55  2252.52
                             4325.89  4333.60  4337.92  4355.41  4376.07
                             4382.32  4385.92  4400.40  4401.81  4408.73
                             4413.17  4416.66  4417.21  4435.06  4449.27
                             4452.12  4457.98  4463.02  4466.30  4471.88
                             4474.07  4477.89  4490.81  4508.18

 Zero-point correction=                           0.366082 (Hartree/Particle)
 Thermal correction to Energy=                    0.381558
 Thermal correction to Enthalpy=                  0.382502
 Thermal correction to Gibbs Free Energy=         0.321935
 Sum of electronic and zero-point Energies=           -698.036967
 Sum of electronic and thermal Energies=              -698.021491
 Sum of electronic and thermal Enthalpies=            -698.020546
 Sum of electronic and thermal Free Energies=         -698.081114

                     E (Thermal)             CV                S
                      KCal/Mol        Cal/Mol-Kelvin    Cal/Mol-Kelvin
 Total                  239.431             60.638            127.474
 Electronic               0.000              0.000              0.000
 Translational            0.889              2.981             42.124
 Rotational               0.889              2.981             32.812
 Vibrational            237.654             54.677             52.537
 Vibration     1          0.593              1.984              5.853
 Vibration     2          0.594              1.982              5.386
 Vibration     3          0.595              1.977              4.779
 Vibration     4          0.599              1.967              4.086
 Vibration     5          0.601              1.958              3.730
 Vibration     6          0.604              1.949              3.455
 Vibration     7          0.618              1.904              2.685
 Vibration     8          0.627              1.875              2.398
 Vibration     9          0.644              1.820              2.011
 Vibration    10          0.656              1.783              1.822
 Vibration    11          0.663              1.762              1.728
 Vibration    12          0.700              1.653              1.359
 Vibration    13          0.710              1.623              1.278
 Vibration    14          0.733              1.559              1.131
 Vibration    15          0.753              1.503              1.021
 Vibration    16          0.772              1.455              0.937
 Vibration    17          0.794              1.399              0.850
 Vibration    18          0.804              1.373              0.813
 Vibration    19          0.820              1.333              0.758
 Vibration    20          0.848              1.267              0.678
 Vibration    21          0.870              1.217              0.622
 Vibration    22          0.911              1.127              0.532

 Optimization completed.
    -- Stationary point found.
 Normal termination of Gaussian 16 at Fri Dec 11 00:21:59 2020.

 ----------------------------------------------------------------------
 # B3LYP/6-311++G(d,p) empiricaldispersion=gd3bj scf=xqc pop=npa geom=c
 heck
 ----------------------------------------------------------------------

 --------------------------------------
 CID_59649199_JID_6620_Energie_neutraal
 --------------------------------------
 Structure from the checkpoint file:  "JID_6620.chk"
 Charge =  0 Multiplicity = 1

 SCF Done:  E(RB3LYP) =  -698.595284373     A.U. after   14 cycles
 Normal termination of Gaussian 16 at Fri Dec 11 00:30:18 2020.

 ----------------------------------------------------------------------
 # B3LYP/6-311++G(d,p) empiricaldispersion=gd3bj scf=xqc pop=npa geom=c
 heck
 ----------------------------------------------------------------------

 ------------------------------------
 CID_59649199_JID_6620_Energie_kation
 ------------------------------------
 Structure from the checkpoint file:  "JID_6620.chk"
 Charge =  1 Multiplicity = 2

 SCF Done:  E(UB3LYP) =  -698.271555582     A.U. after   26 cycles
 Normal termination of Gaussian 16 at Fri Dec 11 00:52:09 2020.
 Gaussian 16:  ES64L-G16RevA.03 25-Dec-2016

 ----------------------------------------------------------------------
 # B3LYP/6-311++G(d,p) empiricaldispersion=gd3bj scf=xqc pop=npa geom=c
 heck
 ----------------------------------------------------------------------

 -----------------------------------
 CID_59649199_JID_6620_Energie_anion
 -----------------------------------
 Structure from the checkpoint file:  "JID_6620.chk"
 Charge = -1 Multiplicity = 2

                         Standard orientation:
 ---------------------------------------------------------------------
 Center     Atomic      Atomic             Coordinates (Angstroms)
 Number     Number       Type             X           Y           Z
 ---------------------------------------------------------------------
      1          6           0        3.718637    2.085961    0.179279
      2          6           0        3.076881    0.899085    0.901896
      3          6           0        2.503277   -0.168751   -0.036196
      4          6           0        3.577223   -1.060950   -0.706309
      5          8           0        3.238994   -2.192008    0.124098
      6          6           0        2.116912   -1.483130    0.689884
      7          6           0        1.490180    0.398798   -1.033649
      8          8           0        0.532825    1.279626   -0.470216
      9          6           0       -0.394294    0.698269    0.444109
     10          6           0       -1.387713   -0.250685   -0.217175
     11          6           0       -2.262255    0.421101   -1.324029
     12          6           0       -3.703578    0.057496   -0.904822
     13          6           0       -4.072576    0.891886    0.344291
     14          6           0       -3.233611    0.222870    1.480098
     15          6           0       -2.445628   -0.875990    0.731549
     16          6           0       -3.502288   -1.345270   -0.291526
     17          1           0        4.482695    1.756184   -0.535839
     18          1           0        4.205169    2.758279    0.893833
     19          1           0        2.967598    2.665564   -0.365928
     20          1           0        3.816550    0.415356    1.553595
     21          1           0        2.275884    1.264590    1.555316
     22          1           0        3.404975   -1.271675   -1.772088
     23          1           0        4.618945   -0.743846   -0.570257
     24          1           0        2.156878   -1.453926    1.786695
     25          1           0        1.161013   -1.926363    0.378053
     26          1           0        2.019617    1.003426   -1.777488
     27          1           0        1.007460   -0.427484   -1.577241
     28          1           0        0.132381    0.192064    1.268123
     29          1           0       -0.916910    1.557644    0.873502
     30          1           0       -0.825956   -1.083631   -0.657199
     31          1           0       -2.100338    1.503477   -1.369071
     32          1           0       -2.021698    0.019061   -2.314022
     33          1           0       -4.433992    0.130883   -1.715281
     34          1           0       -3.829175    1.951296    0.209491
     35          1           0       -5.145205    0.827896    0.556994
     36          1           0       -2.594700    0.931678    2.014080
     37          1           0       -3.886848   -0.238614    2.228661
     38          1           0       -2.034045   -1.647866    1.388951
     39          1           0       -4.406400   -1.749049    0.178598
     40          1           0       -3.115461   -2.080027   -1.006941
 ---------------------------------------------------------------------

 SCF Done:  E(UB3LYP) =  -698.582397589     A.U. after   33 cycles
 SCF Done:  E(UB3LYP) =  -698.582397588     a.u. after    1 cycles

 The electronic state is 2-A.
 Alpha  occ. eigenvalues --  -19.03360 -19.03216 -10.13096 -10.12888 -10.12646
 Alpha  occ. eigenvalues --  -10.12178 -10.09895 -10.08165 -10.07753 -10.07632
 Alpha  occ. eigenvalues --  -10.07420 -10.07162 -10.06863 -10.06791 -10.06547
 Alpha  occ. eigenvalues --  -10.06493  -0.95853  -0.94424  -0.77877  -0.72227
 Alpha  occ. eigenvalues --   -0.66936  -0.64458  -0.63464  -0.61508  -0.60845
 Alpha  occ. eigenvalues --   -0.58860  -0.54266  -0.52791  -0.49760  -0.46198
 Alpha  occ. eigenvalues --   -0.45386  -0.43211  -0.41878  -0.41288  -0.40834
 Alpha  occ. eigenvalues --   -0.39247  -0.38796  -0.37503  -0.36010  -0.35835
 Alpha  occ. eigenvalues --   -0.33992  -0.32416  -0.31750  -0.30990  -0.30148
 Alpha  occ. eigenvalues --   -0.29154  -0.28424  -0.27661  -0.26952  -0.26525
 Alpha  occ. eigenvalues --   -0.25455  -0.25192  -0.24792  -0.24014  -0.23660
 Alpha  occ. eigenvalues --   -0.22576  -0.21959  -0.21775  -0.19930  -0.19727
 Alpha  occ. eigenvalues --   -0.16966  -0.16686   0.04057
 Alpha virt. eigenvalues --    0.05632   0.06672   0.07083   0.07775   0.07854
 Alpha virt. eigenvalues --    0.08217   0.09240   0.09528   0.09772   0.09987
 Alpha virt. eigenvalues --    0.10146   0.10590   0.11245   0.12048   0.12495

  Beta  occ. eigenvalues --  -19.03358 -19.03214 -10.13077 -10.12875 -10.12629
  Beta  occ. eigenvalues --  -10.12169 -10.09896 -10.08152 -10.07745 -10.07624
  Beta  occ. eigenvalues --  -10.07413 -10.07137 -10.06846 -10.06776 -10.06525
  Beta  occ. eigenvalues --  -10.06481  -0.95848  -0.94417  -0.77849  -0.72213
  Beta  occ. eigenvalues --   -0.66913  -0.64430  -0.63435  -0.61478  -0.60809
  Beta  occ. eigenvalues --   -0.58825  -0.54226  -0.52747  -0.49720  -0.46151
  Beta  occ. eigenvalues --   -0.45342  -0.43177  -0.41843  -0.41251  -0.40807
  Beta  occ. eigenvalues --   -0.39224  -0.38776  -0.37483  -0.35988  -0.35812
  Beta  occ. eigenvalues --   -0.33974  -0.32388  -0.31729  -0.30966  -0.30117
  Beta  occ. eigenvalues --   -0.29118  -0.28400  -0.27634  -0.26933  -0.26501
  Beta  occ. eigenvalues --   -0.25429  -0.25166  -0.24766  -0.23986  -0.23634
  Beta  occ. eigenvalues --   -0.22554  -0.21935  -0.21752  -0.19904  -0.19706
  Beta  occ. eigenvalues --   -0.16956  -0.16674
  Beta virt. eigenvalues --    0.05976   0.06532   0.07283   0.07472   0.08276
  Beta virt. eigenvalues --    0.08395   0.08535   0.09604   0.09775   0.10125
  Beta virt. eigenvalues --    0.10394   0.10475   0.10876   0.11288   0.12299

 Mulliken charges and spin densities:
               1          2
     1  C    0.477743  -1.080072
     2  C   -0.789984   0.601580
     3  C   -0.596768   1.256219
     4  C    0.892888  -1.250542
     5  O   -0.201421   0.036024
     6  C    0.025667  -0.348652
     7  C    0.468892  -1.437549
     8  O    0.073365   0.026247
     9  C   -1.694085   0.503226
    10  C    1.968530  -1.399891
    11  C    0.286516  -0.910642
    12  C   -0.782292   1.248640
    13  C    0.772381  -1.341769
    14  C   -0.086626  -0.470117
    15  C   -1.028535   1.453679
    16  C    0.674991  -1.434067
    17  H   -0.131810   0.265121
    18  H   -0.207225   0.350742
    19  H    0.000744   0.180184
    20  H   -0.121640   0.297457
    21  H    0.047122   0.099298
    22  H   -0.163270   0.322512
    23  H    0.003827   0.160497
    24  H   -0.019666   0.189520
    25  H   -0.000401   0.197689
    26  H    0.078866   0.091394
    27  H   -0.030803   0.222694
    28  H    0.102734   0.082447
    29  H   -0.003225   0.187142
    30  H    0.501588  -0.307319
    31  H    0.179728   0.002425
    32  H   -0.218882   0.372065
    33  H   -0.317854   0.552002
    34  H    0.040248   0.084361
    35  H   -0.143276   0.301921
    36  H    0.028015   0.079044
    37  H   -0.369699   0.535770
    38  H   -0.191998   0.439607
    39  H   -0.301677   0.477092
    40  H   -0.222711   0.364020
 Sum of Mulliken charges =  -1.00000   1.00000

 Dipole moment (field-independent basis, Debye):
    X=              2.2429    Y=              1.6075    Z=              0.0884  Tot=              2.7608
 Quadrupole moment (field-independent basis, Debye-Ang):
   XX=           -204.5633   YY=           -146.4151   ZZ=           -141.2379
   XY=             -7.0441   XZ=              1.7938   YZ=             -0.3771

 Summary of Natural Population Analysis:

                                       Natural Population
                Natural  -----------------------------------------------
    Atom  No    Charge         Core      Valence    Rydberg      Total
 -----------------------------------------------------------------------
      C    1   -0.28958      0.99966     2.28445    0.00547     3.28958
      C    2   -0.18983      0.99959     2.17996    0.01027     3.18983
      C    3   -0.07572      0.99954     2.06460    0.01159     3.07572
      C    4    0.00209      0.99957     1.98536    0.01297     2.99791
      O    5   -0.30602      0.99991     3.29774    0.00837     4.30602
      C    6    0.00089      0.99957     1.98836    0.01119     2.99911
      C    7   -0.00938      0.99950     1.99543    0.01445     3.00938
      O    8   -0.30164      0.99989     3.29253    0.00922     4.30164
      C    9   -0.00532      0.99952     1.99440    0.01141     3.00532
      C   10   -0.12743      0.99958     2.11701    0.01084     3.12743
      C   11   -0.18932      0.99962     2.17941    0.01029     3.18932
      C   12   -0.11207      0.99960     2.10078    0.01169     3.11207
      C   13   -0.19221      0.99963     2.18392    0.00866     3.19221
      C   14   -0.19540      0.99963     2.18705    0.00872     3.19540
      C   15   -0.10739      0.99959     2.09580    0.01200     3.10739
      C   16   -0.18914      0.99962     2.18021    0.00931     3.18914
      H   17    0.09528      0.00000     0.40349    0.00122     0.40472
      H   18    0.10030      0.00000     0.39882    0.00088     0.39970
      H   19    0.10224      0.00000     0.39662    0.00115     0.39776
      H   20    0.09750      0.00000     0.40118    0.00132     0.40250
      H   21    0.10213      0.00000     0.39665    0.00122     0.39787
      H   22    0.08319      0.00000     0.41521    0.00161     0.41681
      H   23    0.08532      0.00000     0.41310    0.00157     0.41468
      H   24    0.08443      0.00000     0.41403    0.00154     0.41557
      H   25    0.08506      0.00000     0.41299    0.00195     0.41494
      H   26    0.09443      0.00000     0.40426    0.00131     0.40557
      H   27    0.08564      0.00000     0.41272    0.00164     0.41436
      H   28    0.07882      0.00000     0.41883    0.00235     0.42118
      H   29    0.09140      0.00000     0.40712    0.00148     0.40860
      H   30    0.09964      0.00000     0.39828    0.00208     0.40036
      H   31    0.09958      0.00000     0.39902    0.00139     0.40042
      H   32    0.10167      0.00000     0.39717    0.00116     0.39833
      H   33    0.10122      0.00000     0.39762    0.00116     0.39878
      H   34    0.09572      0.00000     0.40322    0.00106     0.40428
      H   35    0.10007      0.00000     0.39873    0.00120     0.39993
      H   36    0.09727      0.00000     0.40162    0.00111     0.40273
      H   37    0.10145      0.00000     0.39718    0.00137     0.39855
      H   38    0.10338      0.00000     0.39541    0.00121     0.39662
      H   39    0.10091      0.00000     0.39766    0.00142     0.39909
      H   40    0.10082      0.00000     0.39782    0.00136     0.39918
 =======================================================================
   * Total *    0.00000     15.99402    45.80577    0.20021    62.00000

 Normal termination of Gaussian 16 at Fri Dec 11 01:19:34 2020.
