 Gaussian 16, Revision A.03,

 -----------------------------------------------------------
 # opt freq B3LYP/6-31G(d) empiricaldispersion=gd3bj scf=xqc
 -----------------------------------------------------------

 ------------------------------
 CID_86073467_JID_7974_neutraal
 ------------------------------
 Symbolic Z-matrix:
 Charge =  0 Multiplicity = 1

 SCF Done:  E(RB3LYP) =  -841.845864024     A.U. after   15 cycles
 SCF Done:  E(RB3LYP) =  -841.849083234     A.U. after   14 cycles
 SCF Done:  E(RB3LYP) =  -841.842421362     A.U. after   13 cycles
 SCF Done:  E(RB3LYP) =  -841.851209893     A.U. after   13 cycles
 SCF Done:  E(RB3LYP) =  -841.851961119     A.U. after   12 cycles
 SCF Done:  E(RB3LYP) =  -841.852296302     A.U. after   12 cycles
 SCF Done:  E(RB3LYP) =  -841.852629408     A.U. after   12 cycles
 SCF Done:  E(RB3LYP) =  -841.852907502     A.U. after   11 cycles
 SCF Done:  E(RB3LYP) =  -841.853015989     A.U. after   12 cycles
 SCF Done:  E(RB3LYP) =  -841.853035395     A.U. after   10 cycles
 SCF Done:  E(RB3LYP) =  -841.853050878     A.U. after    9 cycles
 SCF Done:  E(RB3LYP) =  -841.853051720     A.U. after    8 cycles
 SCF Done:  E(RB3LYP) =  -841.853051999     A.U. after    8 cycles
 SCF Done:  E(RB3LYP) =  -841.853052154     A.U. after    8 cycles
 SCF Done:  E(RB3LYP) =  -841.853052339     A.U. after    8 cycles
 SCF Done:  E(RB3LYP) =  -841.853052368     A.U. after    8 cycles
 Optimization completed.
    -- Stationary point found.
 Normal termination of Gaussian 16 at Fri Dec 11 13:31:05 2020.

 --------------------------------------------------------------------
 #N Geom=AllCheck Guess=TCheck SCRF=Check GenChk RB3LYP/6-31G(d) Freq
 --------------------------------------------------------------------

 Structure from the checkpoint file:  "JID_7974.chk"
 ------------------------------
 CID_86073467_JID_7974_neutraal
 ------------------------------
 Charge =  0 Multiplicity = 1

 SCF Done:  E(RB3LYP) =  -841.853052368     A.U. after    1 cycles

  Exact polarizability: 181.127   5.345 146.322  -0.956  -6.420  92.168
 Approx polarizability: 226.262  11.816 239.193  -5.889 -26.087 152.926

                      1                      2                      3
                      A                      A                      A
 Frequencies --     25.3272                61.3565                63.7088
 Red. masses --      6.4940                 4.5427                 3.1854
 Frc consts  --      0.0025                 0.0101                 0.0076
 IR Inten    --      3.5677                 0.3145                 0.6792

                      4                      5                      6
                      A                      A                      A
 Frequencies --     75.4932                85.9146               101.4080
 Red. masses --      4.1598                 3.4262                 2.7966
 Frc consts  --      0.0140                 0.0149                 0.0169
 IR Inten    --      1.1802                 0.2743                 2.9516

                      7                      8                      9
                      A                      A                      A
 Frequencies --    134.0942               137.2701               146.4980
 Red. masses --      1.7449                 1.4094                 1.3507
 Frc consts  --      0.0185                 0.0156                 0.0171
 IR Inten    --      4.3184                 1.1766                 1.5168

                     10                     11                     12
                      A                      A                      A
 Frequencies --    194.0387               195.5382               232.7830
 Red. masses --      4.1706                 3.8802                 3.4958
 Frc consts  --      0.0925                 0.0874                 0.1116
 IR Inten    --      2.4513                 5.0496                 1.5765

                     13                     14                     15
                      A                      A                      A
 Frequencies --    252.4817               282.9679               305.1063
 Red. masses --      5.1488                 4.5964                 4.3495
 Frc consts  --      0.1934                 0.2168                 0.2386
 IR Inten    --      0.3256                 7.4538                 5.1691

                     16                     17                     18
                      A                      A                      A
 Frequencies --    313.9834               320.6840               336.5873
 Red. masses --      4.0821                 2.6959                 4.1140
 Frc consts  --      0.2371                 0.1633                 0.2746
 IR Inten    --      4.5724                 4.1754                 3.9304

                     19                     20                     21
                      A                      A                      A
 Frequencies --    383.5944               386.0499               548.1033
 Red. masses --      4.6190                 6.8030                 4.1154
 Frc consts  --      0.4004                 0.5974                 0.7284
 IR Inten    --      0.7465                18.0544                 6.6266

                     22                     23                     24
                      A                      A                      A
 Frequencies --    569.8539               594.7182               617.7143
 Red. masses --      3.4727                 6.6380                 4.3991
 Frc consts  --      0.6644                 1.3833                 0.9890
 IR Inten    --      0.8917                11.2014                 1.6407

                     25                     26                     27
                      A                      A                      A
 Frequencies --    660.0413               692.9444               765.2780
 Red. masses --      4.7783                 5.3683                 6.2499
 Frc consts  --      1.2265                 1.5187                 2.1565
 IR Inten    --      4.5382                 4.5478                17.9735

                     28                     29                     30
                      A                      A                      A
 Frequencies --    777.2758               792.0849               803.1683
 Red. masses --      4.6833                 4.2204                 5.5889
 Frc consts  --      1.6671                 1.5601                 2.1242
 IR Inten    --     15.0098                18.2348                 8.0059

                     31                     32                     33
                      A                      A                      A
 Frequencies --    835.5964               870.0810               919.0486
 Red. masses --      4.4899                 1.5135                 2.0804
 Frc consts  --      1.8471                 0.6751                 1.0353
 IR Inten    --      2.5790                18.8838                 2.1284

                     34                     35                     36
                      A                      A                      A
 Frequencies --    947.8887               962.0753               994.3762
 Red. masses --      3.9633                 2.8707                 5.4625
 Frc consts  --      2.0981                 1.5655                 3.1823
 IR Inten    --     41.3007                 4.9142                 2.9733

                     37                     38                     39
                      A                      A                      A
 Frequencies --   1017.4925              1037.7364              1073.5506
 Red. masses --      1.7311                 3.6658                 3.6485
 Frc consts  --      1.0560                 2.3259                 2.4775
 IR Inten    --      7.7555                15.0333                27.5209

                     40                     41                     42
                      A                      A                      A
 Frequencies --   1095.2695              1106.8404              1111.2267
 Red. masses --      2.7566                 3.7262                 3.1652
 Frc consts  --      1.9483                 2.6896                 2.3028
 IR Inten    --      5.7635                48.7099                 7.8693

                     43                     44                     45
                      A                      A                      A
 Frequencies --   1127.7391              1178.2042              1183.8299
 Red. masses --      4.4838                 2.1064                 1.6499
 Frc consts  --      3.3598                 1.7228                 1.3624
 IR Inten    --    124.0476                23.6585                31.1105

                     46                     47                     48
                      A                      A                      A
 Frequencies --   1184.8664              1189.4089              1211.4427
 Red. masses --      1.2832                 2.1432                 1.3784
 Frc consts  --      1.0614                 1.7864                 1.1919
 IR Inten    --      0.4814                43.3287                25.2552

                     49                     50                     51
                      A                      A                      A
 Frequencies --   1222.9360              1224.5340              1227.3221
 Red. masses --      1.4560                 1.4864                 1.3799
 Frc consts  --      1.2829                 1.3132                 1.2247
 IR Inten    --     15.1905                33.3282                18.4119

                     52                     53                     54
                      A                      A                      A
 Frequencies --   1252.4299              1281.6374              1311.1916
 Red. masses --      1.3025                 1.6092                 1.5134
 Frc consts  --      1.2037                 1.5574                 1.5330
 IR Inten    --      6.9032                98.4634                28.8995

                     55                     56                     57
                      A                      A                      A
 Frequencies --   1323.2540              1345.6706              1359.9426
 Red. masses --      6.0136                 1.3712                 1.5140
 Frc consts  --      6.2040                 1.4630                 1.6497
 IR Inten    --    638.7607                13.4062                14.1417

                     58                     59                     60
                      A                      A                      A
 Frequencies --   1384.3310              1396.1533              1431.8181
 Red. masses --      1.7949                 1.9967                 1.7421
 Frc consts  --      2.0266                 2.2932                 2.1042
 IR Inten    --     20.2702                17.2994                20.8373

                     61                     62                     63
                      A                      A                      A
 Frequencies --   1490.1634              1491.0325              1504.2899
 Red. masses --      1.2245                 1.2185                 1.0951
 Frc consts  --      1.6021                 1.5960                 1.4600
 IR Inten    --     16.0722                14.7900                 4.1982

                     64                     65                     66
                      A                      A                      A
 Frequencies --   1512.0847              1512.4657              1523.3845
 Red. masses --      1.0494                 1.0493                 1.0479
 Frc consts  --      1.4137                 1.4143                 1.4328
 IR Inten    --      9.1623                 1.6890                10.0515

                     67                     68                     69
                      A                      A                      A
 Frequencies --   1524.4349              1525.1383              1545.2286
 Red. masses --      1.0843                 1.0468                 1.0955
 Frc consts  --      1.4846                 1.4346                 1.5412
 IR Inten    --      2.1661                 7.2276                 1.5144

                     70                     71                     72
                      A                      A                      A
 Frequencies --   1643.4551              1735.7046              1792.8269
 Red. masses --      9.1616                 8.3980                11.6816
 Frc consts  --     14.5793                14.9066                22.1222
 IR Inten    --     80.5131                18.4915               306.5332

                     73                     74                     75
                      A                      A                      A
 Frequencies --   1812.6104              2983.5915              2990.7727
 Red. masses --     11.8616                 1.0740                 1.0741
 Frc consts  --     22.9616                 5.6331                 5.6606
 IR Inten    --    161.5009                30.5083                27.1584

                     76                     77                     78
                      A                      A                      A
 Frequencies --   2994.7086              3010.7512              3073.8515
 Red. masses --      1.0752                 1.0743                 1.0297
 Frc consts  --      5.6813                 5.7373                 5.7325
 IR Inten    --     35.6403                54.3227                15.8132

                     79                     80                     81
                      A                      A                      A
 Frequencies --   3075.4335              3076.8656              3122.5966
 Red. masses --      1.0299                 1.0911                 1.0899
 Frc consts  --      5.7395                 6.0859                 6.2614
 IR Inten    --     49.3128                24.5828                 5.6574

                     82                     83                     84
                      A                      A                      A
 Frequencies --   3130.0989              3148.9010              3150.2662
 Red. masses --      1.0936                 1.1068                 1.1070
 Frc consts  --      6.3129                 6.4660                 6.4726
 IR Inten    --     40.9360                31.2383                 8.4663

                     85                     86                     87
                      A                      A                      A
 Frequencies --   3182.3584              3184.1303              3204.3451
 Red. masses --      1.1071                 1.1071                 1.0915
 Frc consts  --      6.6061                 6.6135                 6.6030
 IR Inten    --     13.6977                15.8967                 8.8998

 - Thermochemistry -
 -------------------
 Temperature   298.150 Kelvin.  Pressure   1.00000 Atm.
 Atom     1 has atomic number  6 and mass  12.00000

 Molecular mass:   238.08412 amu.
 Principal axes and moments of inertia in atomic units:
                           1         2         3
     Eigenvalues --  2178.811205846.085407494.75176
           X            0.99999  -0.00340   0.00272
           Y            0.00336   0.99987   0.01546
           Z           -0.00277  -0.01545   0.99988
 This molecule is an asymmetric top.
 Rotational symmetry number  1.
 Warning -- assumption of classical behavior for rotation
           may cause significant error
 Rotational temperatures (Kelvin)      0.03975     0.01482     0.01156
 Rotational constants (GHZ):           0.82831     0.30871     0.24080
 Zero-point vibrational energy     655586.2 (Joules/Mol)
                                  156.68886 (Kcal/Mol)
 Warning -- explicit consideration of  24 degrees of freedom as
           vibrations may cause significant error
 Vibrational temperatures:     36.44    88.28    91.66   108.62   123.61
          (Kelvin)            145.90   192.93   197.50   210.78   279.18
                              281.34   334.92   363.26   407.13   438.98
                              451.75   461.39   484.27   551.91   555.44
                              788.60   819.89   855.67   888.75   949.65
                              996.99  1101.06  1118.33  1139.63  1155.58
                             1202.24  1251.85  1322.31  1363.80  1384.21
                             1430.69  1463.94  1493.07  1544.60  1575.85
                             1592.50  1598.81  1622.57  1695.17  1703.27
                             1704.76  1711.29  1743.00  1759.53  1761.83
                             1765.84  1801.97  1843.99  1886.51  1903.87
                             1936.12  1956.65  1991.74  2008.75  2060.07
                             2144.01  2145.26  2164.34  2175.55  2176.10
                             2191.81  2193.32  2194.33  2223.24  2364.57
                             2497.29  2579.48  2607.94  4292.72  4303.05
                             4308.72  4331.80  4422.59  4424.86  4426.92
                             4492.72  4503.51  4530.57  4532.53  4578.70
                             4581.25  4610.34

 Zero-point correction=                           0.249700 (Hartree/Particle)
 Thermal correction to Energy=                    0.266134
 Thermal correction to Enthalpy=                  0.267078
 Thermal correction to Gibbs Free Energy=         0.204393
 Sum of electronic and zero-point Energies=           -841.603353
 Sum of electronic and thermal Energies=              -841.586918
 Sum of electronic and thermal Enthalpies=            -841.585974
 Sum of electronic and thermal Free Energies=         -841.648660

                     E (Thermal)             CV                S
                      KCal/Mol        Cal/Mol-Kelvin    Cal/Mol-Kelvin
 Total                  167.002             59.251            131.932
 Electronic               0.000              0.000              0.000
 Translational            0.889              2.981             42.304
 Rotational               0.889              2.981             32.923
 Vibrational            165.224             53.289             56.705
 Vibration     1          0.593              1.985              6.165
 Vibration     2          0.597              1.973              4.413
 Vibration     3          0.597              1.972              4.339
 Vibration     4          0.599              1.965              4.005
 Vibration     5          0.601              1.959              3.751
 Vibration     6          0.604              1.948              3.427
 Vibration     7          0.613              1.919              2.886
 Vibration     8          0.614              1.916              2.842
 Vibration     9          0.617              1.906              2.717
 Vibration    10          0.635              1.848              2.189
 Vibration    11          0.636              1.846              2.175
 Vibration    12          0.654              1.791              1.857
 Vibration    13          0.664              1.759              1.713
 Vibration    14          0.682              1.705              1.516
 Vibration    15          0.696              1.664              1.389
 Vibration    16          0.702              1.647              1.341
 Vibration    17          0.706              1.634              1.307
 Vibration    18          0.717              1.602              1.228
 Vibration    19          0.753              1.505              1.025
 Vibration    20          0.755              1.500              1.015
 Vibration    21          0.903              1.144              0.548
 Vibration    22          0.926              1.096              0.505
 Vibration    23          0.952              1.043              0.459
 Vibration    24          0.977              0.994              0.420

 Optimization completed.
    -- Stationary point found.
 Normal termination of Gaussian 16 at Fri Dec 11 13:42:10 2020.

 ----------------------------------------------------------------------
 # B3LYP/6-311++G(d,p) empiricaldispersion=gd3bj scf=xqc pop=npa geom=c
 heck
 ----------------------------------------------------------------------

 --------------------------------------
 CID_86073467_JID_7974_Energie_neutraal
 --------------------------------------
 Structure from the checkpoint file:  "JID_7974.chk"
 Charge =  0 Multiplicity = 1

 SCF Done:  E(RB3LYP) =  -842.094160630     A.U. after   16 cycles
 Normal termination of Gaussian 16 at Fri Dec 11 13:47:34 2020.

 ----------------------------------------------------------------------
 # B3LYP/6-311++G(d,p) empiricaldispersion=gd3bj scf=xqc pop=npa geom=c
 heck
 ----------------------------------------------------------------------

 ------------------------------------
 CID_86073467_JID_7974_Energie_kation
 ------------------------------------
 Structure from the checkpoint file:  "JID_7974.chk"
 Charge =  1 Multiplicity = 2

 SCF Done:  E(UB3LYP) =  -841.790838634     A.U. after   23 cycles
 Normal termination of Gaussian 16 at Fri Dec 11 13:58:17 2020.
 Gaussian 16:  ES64L-G16RevA.03 25-Dec-2016

 ----------------------------------------------------------------------
 # B3LYP/6-311++G(d,p) empiricaldispersion=gd3bj scf=xqc pop=npa geom=c
 heck
 ----------------------------------------------------------------------

 -----------------------------------
 CID_86073467_JID_7974_Energie_anion
 -----------------------------------
 Structure from the checkpoint file:  "JID_7974.chk"
 Charge = -1 Multiplicity = 2

                         Standard orientation:
 ---------------------------------------------------------------------
 Center     Atomic      Atomic             Coordinates (Angstroms)
 Number     Number       Type             X           Y           Z
 ---------------------------------------------------------------------
      1          6           0       -3.525769   -1.800486   -0.780865
      2          8           0       -2.291458   -1.070225   -0.771812
      3          6           0       -1.357551   -1.535591    0.087921
      4          8           0       -1.481043   -2.569131    0.716940
      5          6           0       -0.138956   -0.694340    0.131916
      6          6           0       -0.135875    0.657698    0.022264
      7          6           0        1.124198    1.408478    0.050852
      8          6           0        2.283327    0.752461   -0.089501
      9          6           0        3.708673    1.240050   -0.040723
     10          8           0        4.516550    0.075205   -0.223005
     11          6           0        3.746506   -1.059724    0.175182
     12          6           0        2.320763   -0.743974   -0.294048
     13          6           0        1.161580   -1.425166    0.422472
     14          6           0       -1.370877    1.492922   -0.109795
     15          8           0       -1.487439    2.394490   -0.912394
     16          8           0       -2.295794    1.190069    0.823403
     17          6           0       -3.527073    1.918989    0.711235
     18          1           0       -4.139538   -1.326399   -1.547005
     19          1           0       -4.011831   -1.737132    0.196844
     20          1           0       -3.348347   -2.851365   -1.021943
     21          1           0        1.073725    2.487136    0.164152
     22          1           0        3.957207    1.953038   -0.835469
     23          1           0        3.926247    1.722421    0.926602
     24          1           0        4.191232   -1.940343   -0.293856
     25          1           0        3.769458   -1.189158    1.270494
     26          1           0        2.256193   -0.939094   -1.377378
     27          1           0        1.330342   -1.403222    1.511336
     28          1           0        1.074889   -2.478121    0.143747
     29          1           0       -3.344237    2.994768    0.768776
     30          1           0       -4.014601    1.690988   -0.240704
     31          1           0       -4.140932    1.585316    1.547891
 ---------------------------------------------------------------------

 SCF Done:  E(UB3LYP) =  -842.121240998     A.U. after   23 cycles

 The electronic state is 2-A.
 Alpha  occ. eigenvalues --  -19.03173 -19.02096 -19.00638 -18.96394 -18.94804
 Alpha  occ. eigenvalues --  -10.14978 -10.13257 -10.11078 -10.10508 -10.09741
 Alpha  occ. eigenvalues --  -10.09596 -10.04470 -10.03284 -10.02250 -10.02007
 Alpha  occ. eigenvalues --  -10.01963 -10.01166  -0.97159  -0.95857  -0.92235
 Alpha  occ. eigenvalues --   -0.87950  -0.86626  -0.70934  -0.64592  -0.63403
 Alpha  occ. eigenvalues --   -0.61111  -0.59402  -0.57989  -0.51209  -0.48714
 Alpha  occ. eigenvalues --   -0.46950  -0.43900  -0.42766  -0.39339  -0.39268
 Alpha  occ. eigenvalues --   -0.36873  -0.36545  -0.35113  -0.34778  -0.33787
 Alpha  occ. eigenvalues --   -0.33407  -0.33151  -0.30972  -0.29978  -0.29412
 Alpha  occ. eigenvalues --   -0.28552  -0.28034  -0.26705  -0.25859  -0.25698
 Alpha  occ. eigenvalues --   -0.24082  -0.23370  -0.22481  -0.21508  -0.19763
 Alpha  occ. eigenvalues --   -0.18532  -0.17983  -0.16790  -0.16447  -0.14482
 Alpha  occ. eigenvalues --   -0.13801  -0.12786  -0.07852   0.03194
 Alpha virt. eigenvalues --    0.07752   0.08943   0.09175   0.10111   0.10863
 Alpha virt. eigenvalues --    0.11158   0.11416   0.12451   0.12634   0.12821
 Alpha virt. eigenvalues --    0.13283   0.13719   0.14392   0.14665   0.14985

  Beta  occ. eigenvalues --  -19.03124 -19.02029 -19.00637 -18.96262 -18.94561
  Beta  occ. eigenvalues --  -10.14907 -10.13125 -10.11076 -10.10509 -10.09730
  Beta  occ. eigenvalues --  -10.09627 -10.04488 -10.03290 -10.02314 -10.01702
  Beta  occ. eigenvalues --  -10.01603 -10.00803  -0.97008  -0.95638  -0.92215
  Beta  occ. eigenvalues --   -0.87740  -0.86248  -0.70479  -0.64203  -0.63084
  Beta  occ. eigenvalues --   -0.60929  -0.59189  -0.57799  -0.51057  -0.48180
  Beta  occ. eigenvalues --   -0.46765  -0.43720  -0.42520  -0.39118  -0.39060
  Beta  occ. eigenvalues --   -0.36646  -0.36401  -0.34865  -0.34634  -0.33646
  Beta  occ. eigenvalues --   -0.33232  -0.32941  -0.30750  -0.29791  -0.29055
  Beta  occ. eigenvalues --   -0.28440  -0.27788  -0.26496  -0.25463  -0.25104
  Beta  occ. eigenvalues --   -0.23946  -0.23060  -0.22284  -0.21341  -0.19554
  Beta  occ. eigenvalues --   -0.18230  -0.17467  -0.15817  -0.15608  -0.14402
  Beta  occ. eigenvalues --   -0.13442  -0.12393  -0.05882
  Beta virt. eigenvalues --    0.07676   0.08904   0.09094   0.09391   0.10145
  Beta virt. eigenvalues --    0.10999   0.11155   0.11419   0.12462   0.12654
  Beta virt. eigenvalues --    0.12813   0.13236   0.13702   0.14583   0.14800

 Mulliken charges and spin densities:
               1          2
     1  C   -0.234706  -0.010852
     2  O   -0.035931   0.008699
     3  C   -0.561234   0.041192
     4  O   -0.328870   0.082959
     5  C    0.802733   0.300865
     6  C    0.433476   0.227807
     7  C   -0.368401  -0.039758
     8  C   -0.160465   0.261931
     9  C   -0.278426  -0.026834
    10  O   -0.151830   0.001819
    11  C   -0.557253  -0.001247
    12  C    0.922932  -0.032215
    13  C   -1.408750  -0.003859
    14  C   -0.547579   0.024898
    15  O   -0.281200   0.043313
    16  O    0.045016   0.002424
    17  C   -0.251409  -0.003319
    18  H    0.118211   0.004412
    19  H    0.158516   0.007433
    20  H    0.154169   0.002395
    21  H    0.131946   0.001060
    22  H    0.136012   0.018354
    23  H    0.123709   0.028458
    24  H    0.142821   0.006689
    25  H    0.113774   0.000495
    26  H    0.174378   0.013587
    27  H    0.135871   0.022350
    28  H    0.140738   0.006864
    29  H    0.155570   0.000626
    30  H    0.158498   0.004188
    31  H    0.117681   0.005264
 Sum of Mulliken charges =  -1.00000   1.00000

 Dipole moment (field-independent basis, Debye):
    X=             -2.0860    Y=              0.2961    Z=              0.4541  Tot=              2.1553
 Quadrupole moment (field-independent basis, Debye-Ang):
   XX=           -129.4066   YY=           -124.1409   ZZ=           -111.0320
   XY=             -3.2871   XZ=              1.6898   YZ=             10.2588

 Summary of Natural Population Analysis:

                                       Natural Population
                Natural  -----------------------------------------------
    Atom  No    Charge         Core      Valence    Rydberg      Total
 -----------------------------------------------------------------------
      C    1   -0.10684      0.99961     2.09835    0.00887     3.10684
      O    2   -0.27639      0.99986     3.26716    0.00937     4.27639
      C    3    0.41413      0.99961     1.56238    0.02388     2.58587
      O    4   -0.30702      0.99987     3.30093    0.00621     4.30702
      C    5    0.02477      0.99941     1.96650    0.00932     2.97523
      C    6   -0.01033      0.99939     2.00091    0.01003     3.01033
      C    7   -0.12816      0.99945     2.11967    0.00904     3.12816
      C    8    0.06593      0.99951     1.92597    0.00859     2.93407
      C    9   -0.01952      0.99955     2.00971    0.01027     3.01952
      O   10   -0.30816      0.99990     3.29790    0.01036     4.30816
      C   11    0.00057      0.99958     1.98891    0.01093     2.99943
      C   12   -0.12997      0.99956     2.12190    0.00852     3.12997
      C   13   -0.18939      0.99960     2.18115    0.00864     3.18939
      C   14    0.42083      0.99963     1.55505    0.02449     2.57917
      O   15   -0.30937      0.99987     3.30304    0.00647     4.30937
      O   16   -0.27344      0.99986     3.26446    0.00913     4.27344
      C   17   -0.10758      0.99961     2.09916    0.00881     3.10758
      H   18    0.08282      0.00000     0.41632    0.00087     0.41718
      H   19    0.08533      0.00000     0.41341    0.00126     0.41467
      H   20    0.08784      0.00000     0.41086    0.00130     0.41216
      H   21    0.09685      0.00000     0.40157    0.00158     0.40315
      H   22    0.08908      0.00000     0.40961    0.00131     0.41092
      H   23    0.08085      0.00000     0.41759    0.00156     0.41915
      H   24    0.08366      0.00000     0.41516    0.00118     0.41634
      H   25    0.07228      0.00000     0.42607    0.00165     0.42772
      H   26    0.10066      0.00000     0.39703    0.00231     0.39934
      H   27    0.09890      0.00000     0.39949    0.00161     0.40110
      H   28    0.10308      0.00000     0.39579    0.00113     0.39692
      H   29    0.08761      0.00000     0.41112    0.00127     0.41239
      H   30    0.08686      0.00000     0.41189    0.00125     0.41314
      H   31    0.08415      0.00000     0.41503    0.00083     0.41585
 =======================================================================
   * Total *    0.00000     16.99387    45.80409    0.20204    63.00000

 Normal termination of Gaussian 16 at Fri Dec 11 14:08:41 2020.
