 Gaussian 16, Revision A.03,

 -----------------------------------------------------------
 # opt freq B3LYP/6-31G(d) empiricaldispersion=gd3bj scf=xqc
 -----------------------------------------------------------

 -------------------------------
 CID_136385390_JID_3363_neutraal
 -------------------------------
 Symbolic Z-matrix:
 Charge =  0 Multiplicity = 1

 SCF Done:  E(RB3LYP) =  -676.783800146     A.U. after   17 cycles
 SCF Done:  E(RB3LYP) =  -676.792200061     A.U. after   14 cycles
 SCF Done:  E(RB3LYP) =  -676.793690357     A.U. after   13 cycles
 SCF Done:  E(RB3LYP) =  -676.794123048     A.U. after   13 cycles
 SCF Done:  E(RB3LYP) =  -676.794291931     A.U. after   13 cycles
 SCF Done:  E(RB3LYP) =  -676.794360379     A.U. after   12 cycles
 SCF Done:  E(RB3LYP) =  -676.794421984     A.U. after   13 cycles
 SCF Done:  E(RB3LYP) =  -676.794499523     A.U. after   13 cycles
 SCF Done:  E(RB3LYP) =  -676.794605702     A.U. after   14 cycles
 SCF Done:  E(RB3LYP) =  -676.794722576     A.U. after   14 cycles
 SCF Done:  E(RB3LYP) =  -676.808548282     A.U. after   12 cycles
 SCF Done:  E(RB3LYP) =  -676.808743175     A.U. after   13 cycles
 SCF Done:  E(RB3LYP) =  -676.808766744     A.U. after   12 cycles
 SCF Done:  E(RB3LYP) =  -676.808773747     A.U. after   10 cycles
 SCF Done:  E(RB3LYP) =  -676.808775399     A.U. after    9 cycles
 SCF Done:  E(RB3LYP) =  -676.808775823     A.U. after    8 cycles
 Optimization completed.
    -- Stationary point found.
 Normal termination of Gaussian 16 at Wed Dec  9 23:07:32 2020.

 --------------------------------------------------------------------
 #N Geom=AllCheck Guess=TCheck SCRF=Check GenChk RB3LYP/6-31G(d) Freq
 --------------------------------------------------------------------

 Structure from the checkpoint file:  "JID_3363.chk"
 -------------------------------
 CID_136385390_JID_3363_neutraal
 -------------------------------
 Charge =  0 Multiplicity = 1

 SCF Done:  E(RB3LYP) =  -676.808775823     A.U. after    1 cycles

  Exact polarizability: 163.269   6.108 117.215  -0.638  -0.518  38.201
 Approx polarizability: 323.444  22.008 241.428  -1.870  -3.138  59.934

                      1                      2                      3
                      A                      A                      A
 Frequencies --    113.1890               128.5073               186.1348
 Red. masses --      8.3678                 5.0610                 8.2272
 Frc consts  --      0.0632                 0.0492                 0.1679
 IR Inten    --      0.3376                 0.4310                 0.8637

                      4                      5                      6
                      A                      A                      A
 Frequencies --    216.9288               247.5937               264.7234
 Red. masses --      3.1968                 1.4508                 5.2479
 Frc consts  --      0.0886                 0.0524                 0.2167
 IR Inten    --      4.3161                53.9339                 4.8402

                      7                      8                      9
                      A                      A                      A
 Frequencies --    308.2432               339.0599               366.6598
 Red. masses --      4.6136                 3.6698                 4.6300
 Frc consts  --      0.2583                 0.2486                 0.3667
 IR Inten    --      0.2838                 1.3155                11.2245

                     10                     11                     12
                      A                      A                      A
 Frequencies --    406.0618               412.8438               453.0369
 Red. masses --      7.2480                 7.8907                 8.0995
 Frc consts  --      0.7041                 0.7924                 0.9794
 IR Inten    --      0.9976                 4.9960                 9.5144

                     13                     14                     15
                      A                      A                      A
 Frequencies --    502.4682               505.4144               523.3454
 Red. masses --      1.8451                 2.3360                 4.3788
 Frc consts  --      0.2745                 0.3516                 0.7066
 IR Inten    --      6.1188                 4.4377                23.8304

                     16                     17                     18
                      A                      A                      A
 Frequencies --    547.3915               575.0297               591.7509
 Red. masses --      2.2730                 1.7445                 8.0905
 Frc consts  --      0.4013                 0.3399                 1.6692
 IR Inten    --     82.7058                25.9258                 4.6255

                     19                     20                     21
                      A                      A                      A
 Frequencies --    636.4905               657.6005               672.4057
 Red. masses --      3.5100                 4.0911                 5.4131
 Frc consts  --      0.8378                 1.0423                 1.4420
 IR Inten    --     78.0111                65.5424                27.7805

                     22                     23                     24
                      A                      A                      A
 Frequencies --    701.9438               704.5182               785.5344
 Red. masses --      5.5693                 1.8245                 1.7616
 Frc consts  --      1.6168                 0.5336                 0.6405
 IR Inten    --     22.6418               187.5515                52.4884

                     25                     26                     27
                      A                      A                      A
 Frequencies --    794.0333               847.1418               856.2252
 Red. masses --      4.2314                 1.5419                 5.9856
 Frc consts  --      1.5718                 0.6520                 2.5854
 IR Inten    --     92.3951               282.8673                61.2948

                     28                     29                     30
                      A                      A                      A
 Frequencies --    929.6352              1030.2680              1118.6309
 Red. masses --      4.2894                 5.5241                 2.1467
 Frc consts  --      2.1841                 3.4547                 1.5827
 IR Inten    --     33.2933                90.8584                 2.4454

                     31                     32                     33
                      A                      A                      A
 Frequencies --   1152.1533              1193.4032              1252.4467
 Red. masses --      1.6545                 3.1148                 2.4748
 Frc consts  --      1.2940                 2.6137                 2.2873
 IR Inten    --      9.1559                85.4441                46.6495

                     34                     35                     36
                      A                      A                      A
 Frequencies --   1283.4883              1328.3868              1381.7803
 Red. masses --      2.8012                 3.5327                 1.5316
 Frc consts  --      2.7188                 3.6729                 1.7229
 IR Inten    --     19.1622                24.0367               116.2084

                     37                     38                     39
                      A                      A                      A
 Frequencies --   1442.9467              1454.8930              1545.1385
 Red. masses --      6.1345                 3.9827                 6.4919
 Frc consts  --      7.5255                 4.9669                 9.1318
 IR Inten    --     61.3166               108.2382               249.6015

                     40                     41                     42
                      A                      A                      A
 Frequencies --   1573.6800              1610.7035              1656.2067
 Red. masses --      6.2508                 5.3003                 2.2270
 Frc consts  --      9.1205                 8.1018                 3.5992
 IR Inten    --     81.5175               267.0723                46.4942

                     43                     44                     45
                      A                      A                      A
 Frequencies --   1683.0769              1688.6771              1728.4871
 Red. masses --      2.4820                 1.1775                 4.2819
 Frc consts  --      4.1425                 1.9783                 7.5373
 IR Inten    --     40.5830               107.5481               196.7873

                     46                     47                     48
                      A                      A                      A
 Frequencies --   3226.6681              3493.7180              3534.5211
 Red. masses --      1.0915                 1.0514                 1.0491
 Frc consts  --      6.6952                 7.5614                 7.7217
 IR Inten    --      3.6931                10.3229                32.1953

                     49                     50                     51
                      A                      A                      A
 Frequencies --   3599.3108              3601.5388              3646.8974
 Red. masses --      1.0677                 1.0918                 1.0972
 Frc consts  --      8.1495                 8.3437                 8.5981
 IR Inten    --     97.8706                16.5488                22.7738

 - Thermochemistry -
 -------------------
 Temperature   298.150 Kelvin.  Pressure   1.00000 Atm.
 Atom     1 has atomic number  6 and mass  12.00000

 Molecular mass:   182.04399 amu.
 Principal axes and moments of inertia in atomic units:
                           1         2         3
     Eigenvalues --  1264.827342533.023463791.15318
           X            0.99992   0.01269   0.00021
           Y           -0.01269   0.99991   0.00452
           Z           -0.00015  -0.00452   0.99999
 This molecule is an asymmetric top.
 Rotational symmetry number  1.
 Warning -- assumption of classical behavior for rotation
           may cause significant error
 Rotational temperatures (Kelvin)      0.06848     0.03419     0.02285
 Rotational constants (GHZ):           1.42687     0.71248     0.47604
 Zero-point vibrational energy     355894.6 (Joules/Mol)
                                   85.06085 (Kcal/Mol)
 Warning -- explicit consideration of  18 degrees of freedom as
           vibrations may cause significant error
 Vibrational temperatures:    162.85   184.89   267.81   312.11   356.23
          (Kelvin)            380.88   443.49   487.83   527.54   584.23
                              593.99   651.82   722.94   727.18   752.98
                              787.57   827.34   851.40   915.77   946.14
                              967.44  1009.94  1013.64  1130.21  1142.44
                             1218.85  1231.92  1337.54  1482.33  1609.46
                             1657.69  1717.04  1801.99  1846.65  1911.25
                             1988.07  2076.08  2093.27  2223.11  2264.17
                             2317.44  2382.91  2421.57  2429.63  2486.91
                             4642.46  5026.68  5085.39  5178.61  5181.81
                             5247.07

 Zero-point correction=                           0.135553 (Hartree/Particle)
 Thermal correction to Energy=                    0.146147
 Thermal correction to Enthalpy=                  0.147091
 Thermal correction to Gibbs Free Energy=         0.100087
 Sum of electronic and zero-point Energies=           -676.673223
 Sum of electronic and thermal Energies=              -676.662629
 Sum of electronic and thermal Enthalpies=            -676.661685
 Sum of electronic and thermal Free Energies=         -676.708689

                     E (Thermal)             CV                S
                      KCal/Mol        Cal/Mol-Kelvin    Cal/Mol-Kelvin
 Total                   91.709             42.484             98.928
 Electronic               0.000              0.000              0.000
 Translational            0.889              2.981             41.504
 Rotational               0.889              2.981             30.875
 Vibrational             89.931             36.523             26.550
 Vibration     1          0.607              1.939              3.213
 Vibration     2          0.611              1.925              2.968
 Vibration     3          0.632              1.859              2.266
 Vibration     4          0.646              1.815              1.985
 Vibration     5          0.661              1.767              1.748
 Vibration     6          0.671              1.738              1.630
 Vibration     7          0.698              1.658              1.372
 Vibration     8          0.719              1.597              1.217
 Vibration     9          0.740              1.541              1.094
 Vibration    10          0.771              1.457              0.941
 Vibration    11          0.777              1.442              0.917
 Vibration    12          0.812              1.354              0.787
 Vibration    13          0.858              1.245              0.652
 Vibration    14          0.861              1.238              0.645
 Vibration    15          0.878              1.198              0.602
 Vibration    16          0.903              1.145              0.550
 Vibration    17          0.931              1.085              0.495
 Vibration    18          0.949              1.049              0.464

 Optimization completed.
    -- Stationary point found.
 Normal termination of Gaussian 16 at Wed Dec  9 23:11:56 2020.

 ----------------------------------------------------------------------
 # B3LYP/6-311++G(d,p) empiricaldispersion=gd3bj scf=xqc pop=npa geom=c
 heck
 ----------------------------------------------------------------------

 ---------------------------------------
 CID_136385390_JID_3363_Energie_neutraal
 ---------------------------------------
 Structure from the checkpoint file:  "JID_3363.chk"
 Charge =  0 Multiplicity = 1

 SCF Done:  E(RB3LYP) =  -677.015602943     A.U. after   16 cycles
 Normal termination of Gaussian 16 at Wed Dec  9 23:13:25 2020.

 ----------------------------------------------------------------------
 # B3LYP/6-311++G(d,p) empiricaldispersion=gd3bj scf=xqc pop=npa geom=c
 heck
 ----------------------------------------------------------------------

 -------------------------------------
 CID_136385390_JID_3363_Energie_kation
 -------------------------------------
 Structure from the checkpoint file:  "JID_3363.chk"
 Charge =  1 Multiplicity = 2

 SCF Done:  E(UB3LYP) =  -676.732876525     A.U. after   26 cycles
 Normal termination of Gaussian 16 at Wed Dec  9 23:16:35 2020.
 Gaussian 16:  ES64L-G16RevA.03 25-Dec-2016

 ----------------------------------------------------------------------
 # B3LYP/6-311++G(d,p) empiricaldispersion=gd3bj scf=xqc pop=npa geom=c
 heck
 ----------------------------------------------------------------------

 ------------------------------------
 CID_136385390_JID_3363_Energie_anion
 ------------------------------------
 Structure from the checkpoint file:  "JID_3363.chk"
 Charge = -1 Multiplicity = 2

                         Standard orientation:
 ---------------------------------------------------------------------
 Center     Atomic      Atomic             Coordinates (Angstroms)
 Number     Number       Type             X           Y           Z
 ---------------------------------------------------------------------
      1          6           0       -0.772548   -1.782575    0.016253
      2          6           0       -1.785666   -0.842963   -0.005268
      3          6           0       -1.531545    0.592755    0.012197
      4          6           0       -0.243646    1.068493   -0.006603
      5          6           0        0.787577    0.100428   -0.018186
      6          7           0        2.100687    0.303303   -0.017195
      7          8           0        2.711338   -0.983650    0.014160
      8          7           0        1.722256   -1.956523    0.035531
      9          6           0        0.563137   -1.304467    0.020768
     10          8           0        2.789379    1.339570   -0.030505
     11          8           0        0.023730    2.402889   -0.004782
     12          7           0       -2.643533    1.455237   -0.017881
     13          7           0       -3.127205   -1.192987    0.005670
     14          1           0       -0.982992   -2.845572    0.006812
     15          1           0        0.996135    2.515672   -0.014360
     16          1           0       -2.355762    2.428963   -0.021556
     17          1           0       -3.281151    1.289952    0.758158
     18          1           0       -3.320574   -2.162913   -0.209368
     19          1           0       -3.720531   -0.549808   -0.508511
 ---------------------------------------------------------------------

 SCF Done:  E(UB3LYP) =  -677.043936761     A.U. after   26 cycles

 The electronic state is 2-A.
 Alpha  occ. eigenvalues --  -19.04585 -19.02112 -18.96369 -14.30125 -14.19854
 Alpha  occ. eigenvalues --  -14.19552 -14.17842 -10.09000 -10.07359 -10.05847
 Alpha  occ. eigenvalues --  -10.05803 -10.05590 -10.01798  -1.02621  -0.93434
 Alpha  occ. eigenvalues --   -0.91911  -0.81310  -0.77139  -0.72878  -0.69305
 Alpha  occ. eigenvalues --   -0.63887  -0.59090  -0.51633  -0.49209  -0.47031
 Alpha  occ. eigenvalues --   -0.41521  -0.41154  -0.39130  -0.36763  -0.36353
 Alpha  occ. eigenvalues --   -0.36112  -0.33983  -0.31676  -0.29954  -0.28040
 Alpha  occ. eigenvalues --   -0.25998  -0.25385  -0.24712  -0.23422  -0.22961
 Alpha  occ. eigenvalues --   -0.18749  -0.17939  -0.17666  -0.12047  -0.11057
 Alpha  occ. eigenvalues --   -0.08714  -0.05061   0.03696
 Alpha virt. eigenvalues --    0.07636   0.09283   0.11185   0.12077   0.13218
 Alpha virt. eigenvalues --    0.14023   0.15393   0.15929   0.17174   0.17542
 Alpha virt. eigenvalues --    0.18652   0.19309   0.19554   0.20389   0.20861

  Beta  occ. eigenvalues --  -19.04158 -19.02042 -18.95975 -14.29286 -14.19825
  Beta  occ. eigenvalues --  -14.19551 -14.17418 -10.08810 -10.07182 -10.05902
  Beta  occ. eigenvalues --  -10.05786 -10.05638 -10.01740  -1.01629  -0.93215
  Beta  occ. eigenvalues --   -0.91153  -0.81156  -0.77086  -0.72577  -0.68468
  Beta  occ. eigenvalues --   -0.63501  -0.58763  -0.51145  -0.48929  -0.46777
  Beta  occ. eigenvalues --   -0.41402  -0.40939  -0.38805  -0.36619  -0.36133
  Beta  occ. eigenvalues --   -0.33772  -0.33595  -0.31461  -0.29654  -0.27301
  Beta  occ. eigenvalues --   -0.25759  -0.25119  -0.23672  -0.22993  -0.21164
  Beta  occ. eigenvalues --   -0.18523  -0.17468  -0.16727  -0.11655  -0.09637
  Beta  occ. eigenvalues --   -0.07635  -0.02751
  Beta virt. eigenvalues --    0.07603   0.09200   0.10515   0.11165   0.12191
  Beta virt. eigenvalues --    0.13243   0.13991   0.15899   0.16816   0.17387
  Beta virt. eigenvalues --    0.18245   0.18798   0.19378   0.19716   0.20553

 Mulliken charges and spin densities:
               1          2
     1  C    0.508305   0.027090
     2  C   -0.178296   0.103894
     3  C   -0.311625   0.047032
     4  C   -0.119614   0.105708
     5  C    0.331937  -0.015601
     6  N   -0.557507   0.256921
     7  O    0.334304   0.106593
     8  N   -0.472483   0.189462
     9  C   -0.405704  -0.027657
    10  O   -0.240429   0.158344
    11  O   -0.303392   0.015284
    12  N   -0.470204   0.001304
    13  N   -0.423956   0.014081
    14  H    0.118976  -0.004547
    15  H    0.258480  -0.003239
    16  H    0.268073  -0.000571
    17  H    0.215407   0.008522
    18  H    0.225121   0.004923
    19  H    0.222606   0.012457
 Sum of Mulliken charges =  -1.00000   1.00000

 Dipole moment (field-independent basis, Debye):
    X=             -6.8895    Y=              1.1303    Z=              0.0198  Tot=              6.9816
 Quadrupole moment (field-independent basis, Debye-Ang):
   XX=           -106.3183   YY=            -91.0979   ZZ=            -81.4757
   XY=              3.9366   XZ=              0.0522   YZ=              2.6576

 Summary of Natural Population Analysis:

                                       Natural Population
                Natural  -----------------------------------------------
    Atom  No    Charge         Core      Valence    Rydberg      Total
 -----------------------------------------------------------------------
      C    1   -0.15959      0.99950     2.15067    0.00941     3.15959
      C    2    0.11618      0.99953     1.87368    0.01061     2.88382
      C    3    0.02770      0.99946     1.96232    0.01052     2.97230
      C    4    0.17577      0.99931     1.81270    0.01221     2.82423
      C    5   -0.01721      0.99943     2.00817    0.00961     3.01721
      N    6    0.27696      0.99955     2.20392    0.01957     3.22304
      O    7   -0.07824      0.99990     3.06780    0.01054     4.07824
      N    8   -0.05006      0.99968     2.53397    0.01641     3.55006
      C    9    0.05188      0.99956     1.93488    0.01368     2.94812
      O   10   -0.23290      0.99990     3.22403    0.00898     4.23290
      O   11   -0.35401      0.99988     3.34725    0.00689     4.35401
      N   12   -0.42179      0.99973     2.91119    0.01087     3.92179
      N   13   -0.40537      0.99971     2.89586    0.00980     3.90537
      H   14    0.09279      0.00000     0.40480    0.00241     0.40721
      H   15    0.24882      0.00000     0.24802    0.00316     0.25118
      H   16    0.18680      0.00000     0.31163    0.00158     0.31320
      H   17    0.17664      0.00000     0.32115    0.00221     0.32336
      H   18    0.17907      0.00000     0.31954    0.00139     0.32093
      H   19    0.18656      0.00000     0.31140    0.00204     0.31344
 =======================================================================
   * Total *    0.00000     12.99513    33.84299    0.16188    47.00000

 Normal termination of Gaussian 16 at Wed Dec  9 23:19:46 2020.
