 Gaussian 16, Revision A.03,

 -----------------------------------------------------------
 # opt freq B3LYP/6-31G(d) empiricaldispersion=gd3bj scf=xqc
 -----------------------------------------------------------

 ------------------------------
 CID_84048302_JID_1618_neutraal
 ------------------------------
 Symbolic Z-matrix:
 Charge =  0 Multiplicity = 1

 SCF Done:  E(RB3LYP) =  -555.004221080     A.U. after   14 cycles
 SCF Done:  E(RB3LYP) =  -555.007959715     A.U. after   11 cycles
 SCF Done:  E(RB3LYP) =  -555.008718832     A.U. after   12 cycles
 SCF Done:  E(RB3LYP) =  -555.007889324     A.U. after   15 cycles
 SCF Done:  E(RB3LYP) =  -555.009964984     A.U. after   13 cycles
 SCF Done:  E(RB3LYP) =  -555.010256428     A.U. after   12 cycles
 SCF Done:  E(RB3LYP) =  -555.010561159     A.U. after   11 cycles
 SCF Done:  E(RB3LYP) =  -555.010884476     A.U. after   11 cycles
 SCF Done:  E(RB3LYP) =  -555.011097565     A.U. after   11 cycles
 SCF Done:  E(RB3LYP) =  -555.011174362     A.U. after   11 cycles
 SCF Done:  E(RB3LYP) =  -555.011215057     A.U. after    9 cycles
 SCF Done:  E(RB3LYP) =  -555.011215851     A.U. after    8 cycles
 SCF Done:  E(RB3LYP) =  -555.011216085     A.U. after    8 cycles
 SCF Done:  E(RB3LYP) =  -555.011216569     A.U. after    8 cycles
 SCF Done:  E(RB3LYP) =  -555.011216675     A.U. after    7 cycles
 Optimization completed.
    -- Stationary point found.
 Normal termination of Gaussian 16 at Tue Dec  8 20:30:46 2020.

 --------------------------------------------------------------------
 #N Geom=AllCheck Guess=TCheck SCRF=Check GenChk RB3LYP/6-31G(d) Freq
 --------------------------------------------------------------------

 Structure from the checkpoint file:  "JID_1618.chk"
 ------------------------------
 CID_84048302_JID_1618_neutraal
 ------------------------------
 Charge =  0 Multiplicity = 1

 SCF Done:  E(RB3LYP) =  -555.011216675     A.U. after    1 cycles

  Exact polarizability: 105.856   6.241  88.371   1.997  -2.634  68.527
 Approx polarizability: 121.519   4.720 130.793   2.295  -8.214 107.413

                      1                      2                      3
                      A                      A                      A
 Frequencies --     43.4841                88.4640               130.3584
 Red. masses --      4.5594                 3.4475                 2.5129
 Frc consts  --      0.0051                 0.0159                 0.0252
 IR Inten    --      1.3614                 0.6459                 1.2890

                      4                      5                      6
                      A                      A                      A
 Frequencies --    136.8325               143.7125               172.2371
 Red. masses --      1.1561                 3.5031                 3.5159
 Frc consts  --      0.0128                 0.0426                 0.0615
 IR Inten    --      0.4672                 0.9300                 5.9404

                      7                      8                      9
                      A                      A                      A
 Frequencies --    271.6121               292.3881               314.9710
 Red. masses --      3.9044                 3.3039                 2.3591
 Frc consts  --      0.1697                 0.1664                 0.1379
 IR Inten    --      0.1605                 6.0431                 6.1180

                     10                     11                     12
                      A                      A                      A
 Frequencies --    334.1069               388.5226               427.7271
 Red. masses --      3.1530                 3.8160                 3.6049
 Frc consts  --      0.2074                 0.3394                 0.3886
 IR Inten    --     11.3388                 5.6857                 7.0610

                     13                     14                     15
                      A                      A                      A
 Frequencies --    454.1752               505.9536               601.5379
 Red. masses --      4.7559                 2.0478                 2.2838
 Frc consts  --      0.5780                 0.3089                 0.4869
 IR Inten    --      4.3749                 3.3755                20.5890

                     16                     17                     18
                      A                      A                      A
 Frequencies --    641.1064               756.7520               785.0292
 Red. masses --      3.3766                 1.4101                 4.4669
 Frc consts  --      0.8177                 0.4758                 1.6219
 IR Inten    --     23.6718                47.1559                 9.5822

                     19                     20                     21
                      A                      A                      A
 Frequencies --    806.7113               878.7681               906.9313
 Red. masses --      2.6809                 2.8793                 2.4386
 Frc consts  --      1.0280                 1.3100                 1.1818
 IR Inten    --     16.2924                11.6537                10.9135

                     22                     23                     24
                      A                      A                      A
 Frequencies --    919.8616               942.3802               995.4676
 Red. masses --      2.6913                 2.2957                 2.7657
 Frc consts  --      1.3417                 1.2012                 1.6147
 IR Inten    --      6.6389                 3.4199                17.4185

                     25                     26                     27
                      A                      A                      A
 Frequencies --   1038.5004              1057.4692              1093.0557
 Red. masses --      2.9479                 3.1478                 2.3682
 Frc consts  --      1.8731                 2.0739                 1.6671
 IR Inten    --      1.4122                19.0778                22.1044

                     28                     29                     30
                      A                      A                      A
 Frequencies --   1118.0098              1144.5347              1186.2766
 Red. masses --      2.2338                 2.5006                 1.2756
 Frc consts  --      1.6451                 1.9300                 1.0576
 IR Inten    --      1.0955                36.0554                 1.1323

                     31                     32                     33
                      A                      A                      A
 Frequencies --   1197.9033              1217.7564              1220.1108
 Red. masses --      2.9491                 3.3098                 1.4940
 Frc consts  --      2.4934                 2.8919                 1.3104
 IR Inten    --     58.8306                88.6672                 5.9676

                     34                     35                     36
                      A                      A                      A
 Frequencies --   1253.6117              1266.3159              1291.9522
 Red. masses --      1.4015                 2.1892                 1.1679
 Frc consts  --      1.2977                 2.0683                 1.1486
 IR Inten    --     62.6078               344.1831                14.0339

                     37                     38                     39
                      A                      A                      A
 Frequencies --   1314.5065              1332.2050              1354.0867
 Red. masses --      1.4279                 1.2468                 1.3008
 Frc consts  --      1.4537                 1.3038                 1.4053
 IR Inten    --     33.0850                10.0840                78.2864

                     40                     41                     42
                      A                      A                      A
 Frequencies --   1383.4110              1398.0596              1413.4919
 Red. masses --      1.4744                 1.3486                 1.2915
 Frc consts  --      1.6625                 1.5530                 1.5203
 IR Inten    --     13.5561                 2.1182                 8.2648

                     43                     44                     45
                      A                      A                      A
 Frequencies --   1439.7553              1445.4496              1493.1933
 Red. masses --      1.3635                 1.2985                 1.2086
 Frc consts  --      1.6653                 1.5985                 1.5877
 IR Inten    --     11.7335                10.0410                10.4007

                     46                     47                     48
                      A                      A                      A
 Frequencies --   1494.3168              1510.6157              1512.8971
 Red. masses --      1.1065                 1.1622                 1.0490
 Frc consts  --      1.4557                 1.5625                 1.4147
 IR Inten    --      5.9971                 2.5875                 5.6342

                     49                     50                     51
                      A                      A                      A
 Frequencies --   1521.0814              1524.2654              1528.1988
 Red. masses --      1.2245                 1.0485                 1.0965
 Frc consts  --      1.6693                 1.4353                 1.5088
 IR Inten    --      8.6256                 7.7646                 1.2500

                     52                     53                     54
                      A                      A                      A
 Frequencies --   1537.4934              1816.9796              2860.5654
 Red. masses --      1.0966                11.3600                 1.0779
 Frc consts  --      1.5273                22.0967                 5.1968
 IR Inten    --      2.6927               202.4701                55.6605

                     55                     56                     57
                      A                      A                      A
 Frequencies --   2940.4145              2980.0534              3000.3159
 Red. masses --      1.0726                 1.0724                 1.0698
 Frc consts  --      5.4642                 5.6110                 5.6739
 IR Inten    --     36.9279                95.3075                85.8134

                     58                     59                     60
                      A                      A                      A
 Frequencies --   3067.5917              3077.2685              3078.7421
 Red. masses --      1.0627                 1.0883                 1.0299
 Frc consts  --      5.8920                 6.0719                 5.7515
 IR Inten    --      9.3360                29.8115                28.4222

                     61                     62                     63
                      A                      A                      A
 Frequencies --   3088.6849              3102.1893              3118.4035
 Red. masses --      1.0914                 1.0926                 1.1049
 Frc consts  --      6.1348                 6.1953                 6.3307
 IR Inten    --     56.3539                47.1172                21.5031

                     64                     65                     66
                      A                      A                      A
 Frequencies --   3154.7717              3186.6973              3535.2032
 Red. masses --      1.1076                 1.1074                 1.0746
 Frc consts  --      6.4950                 6.6259                 7.9126
 IR Inten    --     19.3471                15.7609                14.9020

 - Thermochemistry -
 -------------------
 Temperature   298.150 Kelvin.  Pressure   1.00000 Atm.
 Atom     1 has atomic number  6 and mass  12.00000

 Molecular mass:   159.08954 amu.
 Principal axes and moments of inertia in atomic units:
                           1         2         3
     Eigenvalues --   728.945122855.579973403.53064
           X            0.99981   0.01778   0.00762
           Y           -0.01782   0.99983   0.00427
           Z           -0.00755  -0.00440   0.99996
 This molecule is an asymmetric top.
 Rotational symmetry number  1.
 Warning -- assumption of classical behavior for rotation
           may cause significant error
 Rotational temperatures (Kelvin)      0.11882     0.03033     0.02545
 Rotational constants (GHZ):           2.47583     0.63201     0.53026
 Zero-point vibrational energy     545709.4 (Joules/Mol)
                                  130.42769 (Kcal/Mol)
 Warning -- explicit consideration of  15 degrees of freedom as
           vibrations may cause significant error
 Vibrational temperatures:     62.56   127.28   187.56   196.87   206.77
          (Kelvin)            247.81   390.79   420.68   453.17   480.71
                              559.00   615.40   653.46   727.95   865.48
                              922.41  1088.80  1129.48  1160.68  1264.35
                             1304.87  1323.48  1355.87  1432.26  1494.17
                             1521.46  1572.66  1608.57  1646.73  1706.79
                             1723.52  1752.08  1755.47  1803.67  1821.95
                             1858.83  1891.28  1916.75  1948.23  1990.42
                             2011.50  2033.70  2071.49  2079.68  2148.37
                             2149.99  2173.44  2176.72  2188.50  2193.08
                             2198.74  2212.11  2614.23  4115.72  4230.60
                             4287.63  4316.79  4413.58  4427.50  4429.62
                             4443.93  4463.36  4486.69  4539.01  4584.95
                             5086.37

 Zero-point correction=                           0.207850 (Hartree/Particle)
 Thermal correction to Energy=                    0.218775
 Thermal correction to Enthalpy=                  0.219719
 Thermal correction to Gibbs Free Energy=         0.170751
 Sum of electronic and zero-point Energies=           -554.803367
 Sum of electronic and thermal Energies=              -554.792442
 Sum of electronic and thermal Enthalpies=            -554.791498
 Sum of electronic and thermal Free Energies=         -554.840465

                     E (Thermal)             CV                S
                      KCal/Mol        Cal/Mol-Kelvin    Cal/Mol-Kelvin
 Total                  137.283             40.260            103.061
 Electronic               0.000              0.000              0.000
 Translational            0.889              2.981             41.102
 Rotational               0.889              2.981             30.339
 Vibrational            135.506             34.298             31.620
 Vibration     1          0.595              1.980              5.094
 Vibration     2          0.601              1.957              3.694
 Vibration     3          0.612              1.923              2.941
 Vibration     4          0.614              1.917              2.848
 Vibration     5          0.616              1.909              2.754
 Vibration     6          0.626              1.877              2.411
 Vibration     7          0.675              1.726              1.586
 Vibration     8          0.688              1.688              1.460
 Vibration     9          0.702              1.645              1.336
 Vibration    10          0.716              1.607              1.240
 Vibration    11          0.757              1.495              1.006
 Vibration    12          0.789              1.410              0.866
 Vibration    13          0.813              1.352              0.783
 Vibration    14          0.861              1.237              0.643
 Vibration    15          0.960              1.029              0.447

 Optimization completed.
    -- Stationary point found.
 Normal termination of Gaussian 16 at Tue Dec  8 20:35:27 2020.

 ----------------------------------------------------------------------
 # B3LYP/6-311++G(d,p) empiricaldispersion=gd3bj scf=xqc pop=npa geom=c
 heck
 ----------------------------------------------------------------------

 --------------------------------------
 CID_84048302_JID_1618_Energie_neutraal
 --------------------------------------
 Structure from the checkpoint file:  "JID_1618.chk"
 Charge =  0 Multiplicity = 1

 SCF Done:  E(RB3LYP) =  -555.179112933     A.U. after   14 cycles
 Normal termination of Gaussian 16 at Tue Dec  8 20:41:25 2020.

 ----------------------------------------------------------------------
 # B3LYP/6-311++G(d,p) empiricaldispersion=gd3bj scf=xqc pop=npa geom=c
 heck
 ----------------------------------------------------------------------

 ------------------------------------
 CID_84048302_JID_1618_Energie_kation
 ------------------------------------
 Structure from the checkpoint file:  "JID_1618.chk"
 Charge =  1 Multiplicity = 2

 SCF Done:  E(UB3LYP) =  -554.861747587     A.U. after   25 cycles
 Normal termination of Gaussian 16 at Tue Dec  8 20:49:34 2020.
 Gaussian 16:  ES64L-G16RevA.03 25-Dec-2016

 ----------------------------------------------------------------------
 # B3LYP/6-311++G(d,p) empiricaldispersion=gd3bj scf=xqc pop=npa geom=c
 heck
 ----------------------------------------------------------------------

 -----------------------------------
 CID_84048302_JID_1618_Energie_anion
 -----------------------------------
 Structure from the checkpoint file:  "JID_1618.chk"
 Charge = -1 Multiplicity = 2

                         Standard orientation:
 ---------------------------------------------------------------------
 Center     Atomic      Atomic             Coordinates (Angstroms)
 Number     Number       Type             X           Y           Z
 ---------------------------------------------------------------------
      1          6           0       -3.822506   -0.491059   -0.086502
      2          8           0       -2.423846   -0.696154    0.175553
      3          6           0       -1.644738    0.388971    0.011891
      4          8           0       -2.068379    1.472787   -0.331835
      5          6           0       -0.189281    0.113115    0.371336
      6          6           0        0.290139   -1.278062   -0.065640
      7          6           0        1.764437   -1.547317    0.252714
      8          8           0        2.635773   -0.829857   -0.602993
      9          6           0        3.013362    0.475953   -0.199633
     10          6           0        1.916421    1.319318    0.468125
     11          7           0        0.623862    1.181452   -0.187847
     12          1           0       -4.296815   -1.455765    0.093205
     13          1           0       -3.973053   -0.172517   -1.120834
     14          1           0       -4.228725    0.271075    0.583393
     15          1           0       -0.165647    0.127786    1.484528
     16          1           0       -0.328500   -2.035202    0.428295
     17          1           0        0.156269   -1.384873   -1.147381
     18          1           0        1.977012   -2.606486    0.070845
     19          1           0        1.983590   -1.350736    1.314812
     20          1           0        3.336825    0.965929   -1.123208
     21          1           0        3.879248    0.431933    0.483704
     22          1           0        2.236909    2.366316    0.413686
     23          1           0        1.852856    1.069293    1.543816
     24          1           0        0.087615    2.043358   -0.149480
 ---------------------------------------------------------------------

 SCF Done:  E(UB3LYP) =  -555.163604982     A.U. after   33 cycles
 SCF Done:  E(UB3LYP) =  -555.163604982     a.u. after    1 cycles

 The electronic state is 2-A.
 Alpha  occ. eigenvalues --  -19.07117 -19.02082 -19.01509 -14.19862 -10.20091
 Alpha  occ. eigenvalues --  -10.12025 -10.11706 -10.11497 -10.11350 -10.09600
 Alpha  occ. eigenvalues --  -10.06829  -1.01209  -0.93554  -0.92457  -0.81470
 Alpha  occ. eigenvalues --   -0.69790  -0.64272  -0.61845  -0.59240  -0.50893
 Alpha  occ. eigenvalues --   -0.48125  -0.46505  -0.43684  -0.40897  -0.38798
 Alpha  occ. eigenvalues --   -0.37832  -0.37628  -0.37123  -0.34959  -0.33233
 Alpha  occ. eigenvalues --   -0.33085  -0.31683  -0.29079  -0.27848  -0.27203
 Alpha  occ. eigenvalues --   -0.26297  -0.25165  -0.24619  -0.21233  -0.21075
 Alpha  occ. eigenvalues --   -0.18761  -0.15581  -0.13318   0.04631
 Alpha virt. eigenvalues --    0.06340   0.07610   0.08127   0.08922   0.09663
 Alpha virt. eigenvalues --    0.09792   0.10332   0.11062   0.11402   0.11965
 Alpha virt. eigenvalues --    0.12528   0.12978   0.13961   0.15461   0.16102

  Beta  occ. eigenvalues --  -19.07109 -19.02077 -19.01494 -14.19843 -10.20066
  Beta  occ. eigenvalues --  -10.11968 -10.11682 -10.11484 -10.11335 -10.09568
  Beta  occ. eigenvalues --  -10.06820  -1.01179  -0.93541  -0.92429  -0.81444
  Beta  occ. eigenvalues --   -0.69752  -0.64208  -0.61802  -0.59177  -0.50820
  Beta  occ. eigenvalues --   -0.48062  -0.46444  -0.43648  -0.40841  -0.38747
  Beta  occ. eigenvalues --   -0.37788  -0.37577  -0.37089  -0.34925  -0.33195
  Beta  occ. eigenvalues --   -0.33022  -0.31622  -0.29032  -0.27790  -0.27158
  Beta  occ. eigenvalues --   -0.26262  -0.25130  -0.24586  -0.21189  -0.21050
  Beta  occ. eigenvalues --   -0.18739  -0.15542  -0.13233
  Beta virt. eigenvalues --    0.06999   0.07587   0.08290   0.08687   0.09347
  Beta virt. eigenvalues --    0.10062   0.10719   0.10831   0.11470   0.11742
  Beta virt. eigenvalues --    0.12467   0.12763   0.13425   0.14320   0.15659

 Mulliken charges and spin densities:
               1          2
     1  C    1.268405  -1.480003
     2  O   -0.177664   0.114016
     3  C   -0.448194   0.549651
     4  O   -0.299161   0.026090
     5  C    1.563618  -2.080711
     6  C   -1.012652   0.984581
     7  C    0.462498  -0.990810
     8  O   -0.173532   0.044737
     9  C    0.203648  -0.490860
    10  C    0.507216  -0.728028
    11  N   -0.379713   0.286452
    12  H   -0.755226   0.919746
    13  H   -0.251275   0.426550
    14  H   -0.426859   0.603063
    15  H   -0.448689   0.660525
    16  H    0.037451   0.111689
    17  H    0.170750   0.026481
    18  H   -0.251609   0.447643
    19  H   -0.054335   0.187971
    20  H    0.155970  -0.010175
    21  H   -0.235598   0.376416
    22  H   -0.420264   0.571237
    23  H   -0.204278   0.342425
    24  H    0.169494   0.101314
 Sum of Mulliken charges =  -1.00000   1.00000

 Dipole moment (field-independent basis, Debye):
    X=              3.7517    Y=              0.4494    Z=             -2.2194  Tot=              4.3821
 Quadrupole moment (field-independent basis, Debye-Ang):
   XX=           -143.2567   YY=           -104.5855   ZZ=            -98.4935
   XY=             -6.1236   XZ=             -1.3410   YZ=              0.2209

 Summary of Natural Population Analysis:

                                       Natural Population
                Natural  -----------------------------------------------
    Atom  No    Charge         Core      Valence    Rydberg      Total
 -----------------------------------------------------------------------
      C    1   -0.10278      0.99959     2.09426    0.00893     3.10278
      O    2   -0.27592      0.99986     3.26646    0.00960     4.27592
      C    3    0.41769      0.99966     1.55741    0.02524     2.58231
      O    4   -0.30937      0.99987     3.30383    0.00567     4.30937
      C    5   -0.05056      0.99955     2.03747    0.01354     3.05056
      C    6   -0.20384      0.99960     2.19392    0.01032     3.20384
      C    7   -0.01241      0.99957     1.99932    0.01351     3.01241
      O    8   -0.30268      0.99988     3.29330    0.00949     4.30268
      C    9   -0.00682      0.99957     1.99392    0.01332     3.00682
      C   10   -0.10623      0.99963     2.09515    0.01145     3.10623
      N   11   -0.34152      0.99971     2.82979    0.01202     3.84152
      H   12    0.09560      0.00000     0.40153    0.00287     0.40440
      H   13    0.09155      0.00000     0.40699    0.00146     0.40845
      H   14    0.09276      0.00000     0.40548    0.00176     0.40724
      H   15    0.09541      0.00000     0.40178    0.00281     0.40459
      H   16    0.10906      0.00000     0.38931    0.00164     0.39094
      H   17    0.10258      0.00000     0.39594    0.00148     0.39742
      H   18    0.09028      0.00000     0.40851    0.00120     0.40972
      H   19    0.08095      0.00000     0.41727    0.00178     0.41905
      H   20    0.08694      0.00000     0.41172    0.00134     0.41306
      H   21    0.07642      0.00000     0.42223    0.00135     0.42358
      H   22    0.10075      0.00000     0.39799    0.00126     0.39925
      H   23    0.08232      0.00000     0.41486    0.00282     0.41768
      H   24    0.18983      0.00000     0.30737    0.00280     0.31017
 =======================================================================
   * Total *    0.00000     10.99650    31.84581    0.15769    43.00000

 Normal termination of Gaussian 16 at Tue Dec  8 20:59:23 2020.
