 Gaussian 16, Revision A.03,

 -----------------------------------------------------------
 # opt freq B3LYP/6-31G(d) empiricaldispersion=gd3bj scf=xqc
 -----------------------------------------------------------

 ------------------------------
 CID_153243274_JID_592_neutraal
 ------------------------------
 Symbolic Z-matrix:
 Charge =  0 Multiplicity = 1

 SCF Done:  E(RB3LYP) =  -389.379269031     A.U. after   13 cycles
 SCF Done:  E(RB3LYP) =  -389.406827966     A.U. after   11 cycles
 SCF Done:  E(RB3LYP) =  -389.420610418     A.U. after   11 cycles
 SCF Done:  E(RB3LYP) =  -389.423474524     A.U. after   10 cycles
 SCF Done:  E(RB3LYP) =  -389.424772448     A.U. after   10 cycles
 SCF Done:  E(RB3LYP) =  -389.424867756     A.U. after    9 cycles
 SCF Done:  E(RB3LYP) =  -389.424887933     A.U. after    8 cycles
 SCF Done:  E(RB3LYP) =  -389.424890147     A.U. after    7 cycles
 Optimization completed.
    -- Stationary point found.
 Normal termination of Gaussian 16 at Tue Dec  8 12:13:20 2020.

 --------------------------------------------------------------------
 #N Geom=AllCheck Guess=TCheck SCRF=Check GenChk RB3LYP/6-31G(d) Freq
 --------------------------------------------------------------------

 Structure from the checkpoint file:  "JID_592.chk"
 ------------------------------
 CID_153243274_JID_592_neutraal
 ------------------------------
 Charge =  0 Multiplicity = 1

 SCF Done:  E(RB3LYP) =  -389.424890147     A.U. after    1 cycles

  Exact polarizability: 107.946  -0.786  88.774  -0.355  -0.002  82.203
 Approx polarizability: 134.556  -1.209 133.051  -0.549  -1.003 130.892

                      1                      2                      3
                      A                      A                      A
 Frequencies --    136.6928               194.3674               256.5897
 Red. masses --      2.7808                 2.7237                 2.5217
 Frc consts  --      0.0306                 0.0606                 0.0978
 IR Inten    --      0.0594                 0.1643                 0.1025

                      4                      5                      6
                      A                      A                      A
 Frequencies --    315.0368               348.1681               373.4268
 Red. masses --      2.6698                 2.3501                 3.0359
 Frc consts  --      0.1561                 0.1678                 0.2494
 IR Inten    --      0.6865                 0.0737                 0.5616

                      7                      8                      9
                      A                      A                      A
 Frequencies --    447.5816               512.6584               543.8198
 Red. masses --      2.3115                 2.9801                 2.7103
 Frc consts  --      0.2728                 0.4615                 0.4723
 IR Inten    --      0.2077                 0.2304                 0.6745

                     10                     11                     12
                      A                      A                      A
 Frequencies --    574.9513               706.8150               755.7002
 Red. masses --      3.5631                 2.5946                 2.3321
 Frc consts  --      0.6940                 0.7637                 0.7847
 IR Inten    --      1.0350                 4.1167                 3.0065

                     13                     14                     15
                      A                      A                      A
 Frequencies --    764.8139               772.4147               821.3476
 Red. masses --      2.3454                 2.5116                 1.7150
 Frc consts  --      0.8083                 0.8829                 0.6817
 IR Inten    --      3.9739                 6.2020                 1.6344

                     16                     17                     18
                      A                      A                      A
 Frequencies --    859.0876               879.1005               911.5807
 Red. masses --      1.2748                 2.0878                 1.7443
 Frc consts  --      0.5543                 0.9506                 0.8540
 IR Inten    --      5.2579                 9.0480                 2.5855

                     19                     20                     21
                      A                      A                      A
 Frequencies --    918.0848               931.4407               980.1366
 Red. masses --      2.2414                 2.2421                 1.5752
 Frc consts  --      1.1131                 1.1461                 0.8916
 IR Inten    --      0.3949                 6.5416                 0.8809

                     22                     23                     24
                      A                      A                      A
 Frequencies --   1008.5549              1017.3172              1031.1908
 Red. masses --      1.6304                 1.7775                 1.8179
 Frc consts  --      0.9771                 1.0839                 1.1389
 IR Inten    --      1.1944                 1.7582                 3.2806

                     25                     26                     27
                      A                      A                      A
 Frequencies --   1059.8637              1061.2855              1072.7766
 Red. masses --      1.3316                 1.5546                 1.6254
 Frc consts  --      0.8813                 1.0316                 1.1021
 IR Inten    --      0.1119                 1.3328                 0.7492

                     28                     29                     30
                      A                      A                      A
 Frequencies --   1083.8726              1095.1585              1122.7793
 Red. masses --      1.7019                 1.3829                 1.7417
 Frc consts  --      1.1780                 0.9772                 1.2937
 IR Inten    --      2.3162                 3.9997                 0.9736

                     31                     32                     33
                      A                      A                      A
 Frequencies --   1136.6734              1152.0555              1156.6445
 Red. masses --      1.1779                 2.0883                 1.6958
 Frc consts  --      0.8967                 1.6330                 1.3367
 IR Inten    --      0.6389                 2.8847                 1.7901

                     34                     35                     36
                      A                      A                      A
 Frequencies --   1170.0451              1195.4898              1208.5350
 Red. masses --      1.7215                 1.5453                 1.9438
 Frc consts  --      1.3885                 1.3012                 1.6727
 IR Inten    --      2.0847                 1.8626                 0.3343

                     37                     38                     39
                      A                      A                      A
 Frequencies --   1245.3947              1248.2523              1274.7774
 Red. masses --      1.4876                 1.4267                 1.4625
 Frc consts  --      1.3594                 1.3097                 1.4002
 IR Inten    --      1.6691                 0.4395                 1.3418

                     40                     41                     42
                      A                      A                      A
 Frequencies --   1298.8295              1303.8892              1332.1330
 Red. masses --      1.4486                 1.4732                 1.7644
 Frc consts  --      1.4398                 1.4757                 1.8448
 IR Inten    --      2.6666                 1.1610                 0.9153

                     43                     44                     45
                      A                      A                      A
 Frequencies --   1343.3939              1385.9476              1387.6129
 Red. masses --      1.5630                 1.6381                 1.4825
 Frc consts  --      1.6620                 1.8539                 1.6819
 IR Inten    --      1.1314                 3.1725                 0.4255

                     46                     47                     48
                      A                      A                      A
 Frequencies --   1416.0523              1433.6071              1448.0970
 Red. masses --      1.5522                 1.3719                 1.5416
 Frc consts  --      1.8338                 1.6613                 1.9046
 IR Inten    --      7.2564                14.1018                 0.4988

                     49                     50                     51
                      A                      A                      A
 Frequencies --   1518.2145              1519.2026              1527.9391
 Red. masses --      1.2101                 1.2073                 1.1109
 Frc consts  --      1.6434                 1.6417                 1.5281
 IR Inten    --      3.1512                 1.2891                 6.1767

                     52                     53                     54
                      A                      A                      A
 Frequencies --   1532.1538              3017.4299              3024.7908
 Red. masses --      1.1163                 1.0817                 1.0752
 Frc consts  --      1.5440                 5.8027                 5.7962
 IR Inten    --      0.3077                 4.8451                22.7640

                     55                     56                     57
                      A                      A                      A
 Frequencies --   3028.5774              3042.4110              3064.6474
 Red. masses --      1.0667                 1.0619                 1.1040
 Frc consts  --      5.7647                 5.7913                 6.1092
 IR Inten    --     52.2138                52.1780                46.6379

                     58                     59                     60
                      A                      A                      A
 Frequencies --   3082.0280              3114.4701              3137.1747
 Red. masses --      1.1043                 1.0580                 1.0548
 Frc consts  --      6.1802                 6.0466                 6.1166
 IR Inten    --     37.3660                28.4658                23.6917

                     61                     62                     63
                      A                      A                      A
 Frequencies --   3144.2169              3157.1880              3176.1389
 Red. masses --      1.0882                 1.0906                 1.0912
 Frc consts  --      6.3384                 6.4049                 6.4854
 IR Inten    --     18.4702                35.9419                26.3121

                     64                     65                     66
                      A                      A                      A
 Frequencies --   3192.6971              3205.7995              3212.9145
 Red. masses --      1.0991                 1.1063                 1.1159
 Frc consts  --      6.6010                 6.6991                 6.7868
 IR Inten    --      8.5244                41.1399                23.4691

 - Thermochemistry -
 -------------------
 Temperature   298.150 Kelvin.  Pressure   1.00000 Atm.
 Atom     1 has atomic number  6 and mass  12.00000

 Molecular mass:   134.10955 amu.
 Principal axes and moments of inertia in atomic units:
                           1         2         3
     Eigenvalues --   627.727041659.310191932.46803
           X            1.00000  -0.00114  -0.00122
           Y            0.00116   0.99992   0.01294
           Z            0.00121  -0.01294   0.99992
 This molecule is an asymmetric top.
 Rotational symmetry number  1.
 Warning -- assumption of classical behavior for rotation
           may cause significant error
 Rotational temperatures (Kelvin)      0.13798     0.05220     0.04482
 Rotational constants (GHZ):           2.87504     1.08765     0.93390
 Zero-point vibrational energy     570571.1 (Joules/Mol)
                                  136.36977 (Kcal/Mol)
 Warning -- explicit consideration of  10 degrees of freedom as
           vibrations may cause significant error
 Vibrational temperatures:    196.67   279.65   369.18   453.27   500.94
          (Kelvin)            537.28   643.97   737.60   782.44   827.23
                             1016.95  1087.28  1100.40  1111.33  1181.74
                             1236.04  1264.83  1311.56  1320.92  1340.14
                             1410.20  1451.09  1463.69  1483.65  1524.91
                             1526.95  1543.49  1559.45  1575.69  1615.43
                             1635.42  1657.55  1664.15  1683.43  1720.04
                             1738.81  1791.85  1795.96  1834.12  1868.73
                             1876.01  1916.64  1932.84  1994.07  1996.47
                             2037.38  2062.64  2083.49  2184.37  2185.79
                             2198.36  2204.43  4341.41  4352.00  4357.45
                             4377.35  4409.34  4434.35  4481.03  4513.69
                             4523.83  4542.49  4569.76  4593.58  4612.43
                             4622.67

 Zero-point correction=                           0.217319 (Hartree/Particle)
 Thermal correction to Energy=                    0.225089
 Thermal correction to Enthalpy=                  0.226033
 Thermal correction to Gibbs Free Energy=         0.185295
 Sum of electronic and zero-point Energies=           -389.207571
 Sum of electronic and thermal Energies=              -389.199801
 Sum of electronic and thermal Enthalpies=            -389.198857
 Sum of electronic and thermal Free Energies=         -389.239595

                     E (Thermal)             CV                S
                      KCal/Mol        Cal/Mol-Kelvin    Cal/Mol-Kelvin
 Total                  141.245             33.580             85.740
 Electronic               0.000              0.000              0.000
 Translational            0.889              2.981             40.593
 Rotational               0.889              2.981             29.089
 Vibrational            139.468             27.619             16.059
 Vibration     1          0.614              1.917              2.850
 Vibration     2          0.635              1.848              2.186
 Vibration     3          0.666              1.752              1.685
 Vibration     4          0.702              1.645              1.336
 Vibration     5          0.726              1.579              1.174
 Vibration     6          0.745              1.527              1.066
 Vibration     7          0.807              1.366              0.803
 Vibration     8          0.868              1.222              0.627
 Vibration     9          0.899              1.153              0.557
 Vibration    10          0.931              1.085              0.495

                           ! Non-Optimized Parameters !
 Normal termination of Gaussian 16 at Tue Dec  8 12:18:21 2020.

 ----------------------------------------------------------------------
 # B3LYP/6-311++G(d,p) empiricaldispersion=gd3bj scf=xqc pop=npa geom=c
 heck
 ----------------------------------------------------------------------

 --------------------------------------
 CID_153243274_JID_592_Energie_neutraal
 --------------------------------------
 Structure from the checkpoint file:  "JID_592.chk"
 Charge =  0 Multiplicity = 1

 SCF Done:  E(RB3LYP) =  -389.523600008     A.U. after   13 cycles
 Normal termination of Gaussian 16 at Tue Dec  8 12:23:48 2020.

 ----------------------------------------------------------------------
 # B3LYP/6-311++G(d,p) empiricaldispersion=gd3bj scf=xqc pop=npa geom=c
 heck
 ----------------------------------------------------------------------

 ------------------------------------
 CID_153243274_JID_592_Energie_kation
 ------------------------------------
 Structure from the checkpoint file:  "JID_592.chk"
 Charge =  1 Multiplicity = 2

 SCF Done:  E(UB3LYP) =  -389.206627790     A.U. after   22 cycles
 Normal termination of Gaussian 16 at Tue Dec  8 12:30:57 2020.
 Gaussian 16:  ES64L-G16RevA.03 25-Dec-2016

 ----------------------------------------------------------------------
 # B3LYP/6-311++G(d,p) empiricaldispersion=gd3bj scf=xqc pop=npa geom=c
 heck
 ----------------------------------------------------------------------

 -----------------------------------
 CID_153243274_JID_592_Energie_anion
 -----------------------------------
 Structure from the checkpoint file:  "JID_592.chk"
 Charge = -1 Multiplicity = 2

                         Standard orientation:
 ---------------------------------------------------------------------
 Center     Atomic      Atomic             Coordinates (Angstroms)
 Number     Number       Type             X           Y           Z
 ---------------------------------------------------------------------
      1          6           0        2.393797    0.002809    0.944393
      2          6           0        1.946840   -0.682926   -0.323680
      3          6           0        1.877127    0.847525   -0.196470
      4          6           0        0.526233    1.595283   -0.112650
      5          6           0       -0.522427    0.601603   -0.584779
      6          6           0       -0.456224   -0.730871    0.190297
      7          6           0        0.686025   -1.563182   -0.364231
      8          6           0       -1.982059   -0.873594   -0.009802
      9          6           0       -2.052639    0.582979   -0.512116
     10          6           0       -2.620442    0.203248    0.826647
     11          1           0        3.456263    0.027464    1.173483
     12          1           0        1.762543   -0.084309    1.825432
     13          1           0        2.753952   -1.050416   -0.954787
     14          1           0        2.643724    1.377163   -0.757473
     15          1           0        0.326506    1.931644    0.913001
     16          1           0        0.563208    2.490900   -0.743838
     17          1           0       -0.279285    0.357825   -1.628173
     18          1           0       -0.261679   -0.568275    1.258999
     19          1           0        0.478440   -1.847585   -1.404585
     20          1           0        0.853832   -2.491555    0.198969
     21          1           0       -2.524284   -1.744824   -0.364383
     22          1           0       -2.697463    0.988968   -1.287073
     23          1           0       -2.146200    0.519937    1.755851
     24          1           0       -3.706941    0.195828    0.868925
 ---------------------------------------------------------------------

 SCF Done:  E(UB3LYP) =  -389.503767004     A.U. after   30 cycles

 The electronic state is 2-A.
 Alpha  occ. eigenvalues --  -10.07552 -10.07295 -10.07013 -10.06976 -10.06964
 Alpha  occ. eigenvalues --  -10.06538 -10.06484 -10.06418 -10.06109 -10.06037
 Alpha  occ. eigenvalues --   -0.79887  -0.75579  -0.65993  -0.63915  -0.55532
 Alpha  occ. eigenvalues --   -0.52877  -0.48540  -0.46810  -0.44275  -0.42159
 Alpha  occ. eigenvalues --   -0.40356  -0.37835  -0.34923  -0.33332  -0.32797
 Alpha  occ. eigenvalues --   -0.31514  -0.29496  -0.27601  -0.26323  -0.25176
 Alpha  occ. eigenvalues --   -0.23988  -0.20545  -0.20191  -0.18244  -0.17426
 Alpha  occ. eigenvalues --   -0.17128  -0.14465   0.04849
 Alpha virt. eigenvalues --    0.06545   0.07775   0.07853   0.09121   0.09427
 Alpha virt. eigenvalues --    0.09499   0.10801   0.11309   0.11956   0.12223
 Alpha virt. eigenvalues --    0.12628   0.13808   0.14867   0.15667   0.16316

  Beta  occ. eigenvalues --  -10.07540 -10.07281 -10.06999 -10.06961 -10.06948
  Beta  occ. eigenvalues --  -10.06535 -10.06471 -10.06411 -10.06097 -10.06021
  Beta  occ. eigenvalues --   -0.79861  -0.75539  -0.65968  -0.63890  -0.55494
  Beta  occ. eigenvalues --   -0.52845  -0.48495  -0.46764  -0.44237  -0.42118
  Beta  occ. eigenvalues --   -0.40293  -0.37778  -0.34887  -0.33311  -0.32773
  Beta  occ. eigenvalues --   -0.31477  -0.29467  -0.27563  -0.26292  -0.25153
  Beta  occ. eigenvalues --   -0.23952  -0.20510  -0.20168  -0.18221  -0.17401
  Beta  occ. eigenvalues --   -0.17105  -0.14444
  Beta virt. eigenvalues --    0.07240   0.07929   0.08235   0.08426   0.09902
  Beta virt. eigenvalues --    0.10209   0.10226   0.11159   0.11492   0.12704
  Beta virt. eigenvalues --    0.12882   0.13099   0.14166   0.15042   0.15695

 Mulliken charges and spin densities:
               1          2
     1  C    0.734882  -1.305122
     2  C   -0.142136   0.331921
     3  C    0.181887  -0.044029
     4  C   -0.037244  -0.766564
     5  C    0.514150  -0.405624
     6  C   -0.159553   0.216113
     7  C    1.004513  -1.797984
     8  C   -0.033028   0.113282
     9  C   -0.158922   0.105883
    10  C    0.876605  -1.521973
    11  H   -0.425084   0.588229
    12  H   -0.052406   0.179096
    13  H   -0.722070   0.956161
    14  H   -0.588539   0.813484
    15  H    0.112973   0.044233
    16  H   -0.186975   0.315399
    17  H   -0.012939   0.189097
    18  H    0.125985  -0.011629
    19  H   -0.049052   0.193688
    20  H   -0.044991   0.185795
    21  H   -0.606530   0.801011
    22  H   -0.789658   0.996982
    23  H   -0.036883   0.160393
    24  H   -0.504984   0.662158
 Sum of Mulliken charges =  -1.00000   1.00000

 Dipole moment (field-independent basis, Debye):
    X=             -0.4519    Y=             -0.1834    Z=              3.2625  Tot=              3.2987
 Quadrupole moment (field-independent basis, Debye-Ang):
   XX=           -143.5509   YY=            -98.2144   ZZ=            -94.2134
   XY=             -0.6990   XZ=              0.4941   YZ=              1.1194

 Summary of Natural Population Analysis:

                                       Natural Population
                Natural  -----------------------------------------------
    Atom  No    Charge         Core      Valence    Rydberg      Total
 -----------------------------------------------------------------------
      C    1   -0.19809      0.99959     2.18896    0.00954     3.19809
      C    2   -0.10693      0.99959     2.09562    0.01172     3.10693
      C    3   -0.10970      0.99959     2.09857    0.01153     3.10970
      C    4   -0.19102      0.99959     2.18163    0.00980     3.19102
      C    5   -0.09803      0.99955     2.08645    0.01203     3.09803
      C    6   -0.10871      0.99957     2.09846    0.01068     3.10871
      C    7   -0.18412      0.99959     2.17521    0.00932     3.18412
      C    8   -0.10232      0.99956     2.09044    0.01232     3.10232
      C    9   -0.10223      0.99957     2.09022    0.01244     3.10223
      C   10   -0.19867      0.99960     2.18870    0.01037     3.19867
      H   11    0.10395      0.00000     0.39464    0.00141     0.39605
      H   12    0.09656      0.00000     0.40230    0.00114     0.40344
      H   13    0.10534      0.00000     0.39207    0.00259     0.39466
      H   14    0.10553      0.00000     0.39211    0.00236     0.39447
      H   15    0.09415      0.00000     0.40439    0.00146     0.40585
      H   16    0.10162      0.00000     0.39722    0.00116     0.39838
      H   17    0.09632      0.00000     0.40132    0.00237     0.40368
      H   18    0.08977      0.00000     0.40765    0.00259     0.41023
      H   19    0.09940      0.00000     0.39894    0.00167     0.40060
      H   20    0.09617      0.00000     0.40273    0.00110     0.40383
      H   21    0.10508      0.00000     0.39342    0.00151     0.39492
      H   22    0.10335      0.00000     0.39462    0.00202     0.39665
      H   23    0.09557      0.00000     0.40309    0.00135     0.40443
      H   24    0.10702      0.00000     0.39145    0.00152     0.39298
 =======================================================================
   * Total *    0.00000      9.99579    26.87023    0.13398    37.00000

 Normal termination of Gaussian 16 at Tue Dec  8 12:40:02 2020.
