 Gaussian 16, Revision A.03,

 -----------------------------------------------------------
 # opt freq B3LYP/6-31G(d) empiricaldispersion=gd3bj scf=xqc
 -----------------------------------------------------------

 ------------------------------
 CID_62480130_JID_4111_neutraal
 ------------------------------
 Symbolic Z-matrix:
 Charge =  0 Multiplicity = 1

 SCF Done:  E(RB3LYP) =  -594.907966348     A.U. after   14 cycles
 SCF Done:  E(RB3LYP) =  -594.912508831     A.U. after   12 cycles
 SCF Done:  E(RB3LYP) =  -594.910640439     A.U. after   13 cycles
 SCF Done:  E(RB3LYP) =  -594.912452519     A.U. after   11 cycles
 SCF Done:  E(RB3LYP) =  -594.913482623     A.U. after    9 cycles
 SCF Done:  E(RB3LYP) =  -594.914045228     A.U. after   12 cycles
 SCF Done:  E(RB3LYP) =  -594.914946906     A.U. after   12 cycles
 SCF Done:  E(RB3LYP) =  -594.915466757     A.U. after   11 cycles
 SCF Done:  E(RB3LYP) =  -594.915914605     A.U. after   12 cycles
 SCF Done:  E(RB3LYP) =  -594.916147061     A.U. after   12 cycles
 SCF Done:  E(RB3LYP) =  -594.916427918     A.U. after    8 cycles
 SCF Done:  E(RB3LYP) =  -594.916429448     A.U. after    9 cycles
 SCF Done:  E(RB3LYP) =  -594.916430635     A.U. after    8 cycles
 SCF Done:  E(RB3LYP) =  -594.916432441     A.U. after    9 cycles
 SCF Done:  E(RB3LYP) =  -594.916433233     A.U. after    8 cycles
 SCF Done:  E(RB3LYP) =  -594.916433342     A.U. after    7 cycles
 Optimization completed.
    -- Stationary point found.
 Normal termination of Gaussian 16 at Thu Dec 10 09:23:50 2020.

 --------------------------------------------------------------------
 #N Geom=AllCheck Guess=TCheck SCRF=Check GenChk RB3LYP/6-31G(d) Freq
 --------------------------------------------------------------------

 Structure from the checkpoint file:  "JID_4111.chk"
 ------------------------------
 CID_62480130_JID_4111_neutraal
 ------------------------------
 Charge =  0 Multiplicity = 1

 SCF Done:  E(RB3LYP) =  -594.916433342     A.U. after    1 cycles

  Exact polarizability: 153.940  -3.814 128.450   6.979   6.300 100.567
 Approx polarizability: 197.406  -3.804 193.520  15.551  14.677 157.562

                      1                      2                      3
                      A                      A                      A
 Frequencies --     33.1596                41.2759                57.0869
 Red. masses --      3.5164                 4.1625                 3.1204
 Frc consts  --      0.0023                 0.0042                 0.0060
 IR Inten    --      0.4881                 0.1919                 0.4318

                      4                      5                      6
                      A                      A                      A
 Frequencies --     72.4501               102.3577               133.6545
 Red. masses --      2.1804                 2.9060                 2.6689
 Frc consts  --      0.0067                 0.0179                 0.0281
 IR Inten    --      0.0929                 1.5644                 0.3355

                      7                      8                      9
                      A                      A                      A
 Frequencies --    139.2571               186.3559               213.4365
 Red. masses --      1.2258                 2.2755                 4.1137
 Frc consts  --      0.0140                 0.0466                 0.1104
 IR Inten    --      0.2169                 3.9020                 1.4563

                     10                     11                     12
                      A                      A                      A
 Frequencies --    258.9097               290.6891               315.4066
 Red. masses --      3.0464                 2.5945                 2.0641
 Frc consts  --      0.1203                 0.1292                 0.1210
 IR Inten    --      2.9724                 4.1549                 0.5497

                     13                     14                     15
                      A                      A                      A
 Frequencies --    364.3405               416.1343               460.6017
 Red. masses --      2.2422                 2.6493                 2.1109
 Frc consts  --      0.1754                 0.2703                 0.2639
 IR Inten    --      3.7979                 4.0384                 1.1417

                     16                     17                     18
                      A                      A                      A
 Frequencies --    536.7750               579.6316               639.0755
 Red. masses --      2.2059                 2.6902                 4.4556
 Frc consts  --      0.3745                 0.5325                 1.0722
 IR Inten    --      1.4219                 0.0202                 1.9690

                     19                     20                     21
                      A                      A                      A
 Frequencies --    662.3723               668.3652               689.9197
 Red. masses --      2.6644                 3.6733                 4.7956
 Frc consts  --      0.6887                 0.9668                 1.3449
 IR Inten    --      2.0309                 6.3244                 9.0162

                     22                     23                     24
                      A                      A                      A
 Frequencies --    721.5530               779.3799               789.0720
 Red. masses --      2.9732                 1.2089                 1.5494
 Frc consts  --      0.9120                 0.4326                 0.5684
 IR Inten    --      4.5570                36.4764                 5.6483

                     25                     26                     27
                      A                      A                      A
 Frequencies --    816.4326               823.8206               849.6893
 Red. masses --      2.0375                 2.0010                 1.2796
 Frc consts  --      0.8002                 0.8001                 0.5443
 IR Inten    --      2.6349                 0.6679                 1.0969

                     28                     29                     30
                      A                      A                      A
 Frequencies --    873.0012               884.6912               909.0654
 Red. masses --      2.8757                 1.5832                 2.6151
 Frc consts  --      1.2913                 0.7301                 1.2733
 IR Inten    --      6.2530                36.9674                18.2026

                     31                     32                     33
                      A                      A                      A
 Frequencies --    926.1100               941.7910               987.9164
 Red. masses --      2.6019                 4.5518                 2.0560
 Frc consts  --      1.3148                 2.3787                 1.1823
 IR Inten    --     50.9901                13.2874                25.7556

                     34                     35                     36
                      A                      A                      A
 Frequencies --   1006.4761              1012.3460              1023.4735
 Red. masses --      1.6078                 2.3477                 1.5846
 Frc consts  --      0.9596                 1.4176                 0.9780
 IR Inten    --     20.4085                 1.7995                 4.2786

                     37                     38                     39
                      A                      A                      A
 Frequencies --   1033.7800              1063.9902              1075.2761
 Red. masses --      1.6041                 1.9229                 1.4602
 Frc consts  --      1.0101                 1.2825                 0.9948
 IR Inten    --     14.9078                 5.5831                 1.5731

                     40                     41                     42
                      A                      A                      A
 Frequencies --   1092.2108              1107.6138              1113.6492
 Red. masses --      2.5943                 1.5567                 1.8331
 Frc consts  --      1.8234                 1.1252                 1.3395
 IR Inten    --     13.5210                16.8505                 2.7113

                     43                     44                     45
                      A                      A                      A
 Frequencies --   1146.9723              1167.0116              1189.0060
 Red. masses --      2.1988                 1.6416                 2.3778
 Frc consts  --      1.7043                 1.3172                 1.9806
 IR Inten    --     10.4328                14.0133                 4.9159

                     46                     47                     48
                      A                      A                      A
 Frequencies --   1224.5251              1238.3239              1251.2824
 Red. masses --      1.2953                 1.3962                 1.6529
 Frc consts  --      1.1444                 1.2615                 1.5248
 IR Inten    --      2.0437                 4.1826                 4.2086

                     49                     50                     51
                      A                      A                      A
 Frequencies --   1268.1224              1285.1769              1297.6507
 Red. masses --      1.5283                 1.3207                 1.4012
 Frc consts  --      1.4480                 1.2852                 1.3902
 IR Inten    --      2.1375                 1.0481                 1.0911

                     52                     53                     54
                      A                      A                      A
 Frequencies --   1319.6105              1327.9126              1343.8491
 Red. masses --      2.0948                 1.4180                 1.2427
 Frc consts  --      2.1493                 1.4732                 1.3222
 IR Inten    --     43.1107                 7.5192                 5.1561

                     55                     56                     57
                      A                      A                      A
 Frequencies --   1362.2200              1386.7459              1397.9516
 Red. masses --      1.3351                 1.3704                 1.4280
 Frc consts  --      1.4597                 1.5527                 1.6442
 IR Inten    --      1.0656                 8.5604                 3.1254

                     58                     59                     60
                      A                      A                      A
 Frequencies --   1400.7960              1408.5545              1422.7536
 Red. masses --      1.3991                 1.7172                 1.7486
 Frc consts  --      1.6175                 2.0074                 2.0855
 IR Inten    --     32.1297                 3.7402                 4.7478

                     61                     62                     63
                      A                      A                      A
 Frequencies --   1433.6825              1437.9061              1471.3578
 Red. masses --      1.3760                 1.3227                 2.2788
 Frc consts  --      1.6664                 1.6113                 2.9066
 IR Inten    --      1.4005                 6.9284                72.7131

                     64                     65                     66
                      A                      A                      A
 Frequencies --   1488.6629              1507.8548              1512.2366
 Red. masses --      1.2148                 1.0758                 1.4774
 Frc consts  --      1.5862                 1.4412                 1.9906
 IR Inten    --      4.8112                 5.0868                 2.6151

                     67                     68                     69
                      A                      A                      A
 Frequencies --   1515.8280              1518.6192              1519.2817
 Red. masses --      1.1000                 1.1131                 1.0893
 Frc consts  --      1.4892                 1.5125                 1.4815
 IR Inten    --      4.3894                 5.9611                 4.6957

                     70                     71                     72
                      A                      A                      A
 Frequencies --   1524.8748              1529.0368              1543.9401
 Red. masses --      1.2160                 1.0930                 1.1109
 Frc consts  --      1.6659                 1.5056                 1.5602
 IR Inten    --      7.7636                 4.3796                 2.9236

                     73                     74                     75
                      A                      A                      A
 Frequencies --   1549.5271              1584.6575              3019.3858
 Red. masses --      1.9723                 4.9932                 1.0836
 Frc consts  --      2.7902                 7.3875                 5.8207
 IR Inten    --     13.0401                18.7741                17.7471

                     76                     77                     78
                      A                      A                      A
 Frequencies --   3037.2761              3039.2628              3050.1145
 Red. masses --      1.0435                 1.0603                 1.0657
 Frc consts  --      5.6718                 5.7706                 5.8414
 IR Inten    --     16.6102                23.5419                32.5917

                     79                     80                     81
                      A                      A                      A
 Frequencies --   3055.5617              3061.0991              3072.4842
 Red. masses --      1.0683                 1.0650                 1.0634
 Frc consts  --      5.8765                 5.8797                 5.9147
 IR Inten    --     40.7234                40.9006                42.4636

                     82                     83                     84
                      A                      A                      A
 Frequencies --   3077.1298              3082.4597              3084.3372
 Red. masses --      1.0949                 1.1004                 1.0689
 Frc consts  --      6.1084                 6.1603                 5.9913
 IR Inten    --     18.5374                24.3113                40.8493

                     85                     86                     87
                      A                      A                      A
 Frequencies --   3095.1737              3105.1831              3110.6918
 Red. masses --      1.1009                 1.0961                 1.1013
 Frc consts  --      6.2140                 6.2268                 6.2784
 IR Inten    --     17.9883                18.2942                25.2738

                     88                     89                     90
                      A                      A                      A
 Frequencies --   3124.6247              3136.2962              3161.0822
 Red. masses --      1.1057                 1.1002                 1.0965
 Frc consts  --      6.3604                 6.3759                 6.4554
 IR Inten    --     62.1782                34.8522                 5.8492

                     91                     92                     93
                      A                      A                      A
 Frequencies --   3255.6008              3280.0749              3460.0094
 Red. masses --      1.0913                 1.1054                 1.0726
 Frc consts  --      6.8146                 7.0068                 7.5654
 IR Inten    --     11.2931                11.0961                 3.6272

 - Thermochemistry -
 -------------------
 Temperature   298.150 Kelvin.  Pressure   1.00000 Atm.
 Atom     1 has atomic number  6 and mass  12.00000

 Molecular mass:   193.15790 amu.
 Principal axes and moments of inertia in atomic units:
                           1         2         3
     Eigenvalues --  1144.506635147.083105701.09221
           X            0.99991  -0.01312  -0.00188
           Y            0.01313   0.99990   0.00433
           Z            0.00182  -0.00435   0.99999
 This molecule is an asymmetric top.
 Rotational symmetry number  1.
 Warning -- assumption of classical behavior for rotation
           may cause significant error
 Rotational temperatures (Kelvin)      0.07568     0.01683     0.01519
 Rotational constants (GHZ):           1.57687     0.35063     0.31656
 Zero-point vibrational energy     781020.1 (Joules/Mol)
                                  186.66830 (Kcal/Mol)
 Warning -- explicit consideration of  17 degrees of freedom as
           vibrations may cause significant error
 Vibrational temperatures:     47.71    59.39    82.14   104.24   147.27
          (Kelvin)            192.30   200.36   268.12   307.09   372.51
                              418.24   453.80   524.20   598.72   662.70
                              772.30   833.96   919.49   953.01   961.63
                              992.64  1038.15  1121.35  1135.30  1174.66
                             1185.29  1222.51  1256.05  1272.87  1307.94
                             1332.47  1355.03  1421.39  1448.09  1456.54
                             1472.55  1487.38  1530.84  1547.08  1571.45
                             1593.61  1602.29  1650.24  1679.07  1710.71
                             1761.82  1781.67  1800.32  1824.55  1849.08
                             1867.03  1898.63  1910.57  1933.50  1959.93
                             1995.22  2011.34  2015.43  2026.60  2047.03
                             2062.75  2068.83  2116.96  2141.85  2169.47
                             2175.77  2180.94  2184.95  2185.91  2193.95
                             2199.94  2221.39  2229.42  2279.97  4344.22
                             4369.96  4372.82  4388.43  4396.27  4404.24
                             4420.62  4427.30  4434.97  4437.67  4453.26
                             4467.67  4475.59  4495.64  4512.43  4548.09
                             4684.08  4719.30  4978.18

 Zero-point correction=                           0.297475 (Hartree/Particle)
 Thermal correction to Energy=                    0.311239
 Thermal correction to Enthalpy=                  0.312183
 Thermal correction to Gibbs Free Energy=         0.255384
 Sum of electronic and zero-point Energies=           -594.618958
 Sum of electronic and thermal Energies=              -594.605194
 Sum of electronic and thermal Enthalpies=            -594.604250
 Sum of electronic and thermal Free Energies=         -594.661049

                     E (Thermal)             CV                S
                      KCal/Mol        Cal/Mol-Kelvin    Cal/Mol-Kelvin
 Total                  195.306             52.001            119.544
 Electronic               0.000              0.000              0.000
 Translational            0.889              2.981             41.680
 Rotational               0.889              2.981             31.885
 Vibrational            193.528             46.040             45.979
 Vibration     1          0.594              1.983              5.631
 Vibration     2          0.594              1.981              5.197
 Vibration     3          0.596              1.975              4.555
 Vibration     4          0.599              1.967              4.086
 Vibration     5          0.604              1.947              3.409
 Vibration     6          0.613              1.920              2.893
 Vibration     7          0.615              1.914              2.814
 Vibration     8          0.632              1.859              2.264
 Vibration     9          0.644              1.820              2.014
 Vibration    10          0.668              1.748              1.669
 Vibration    11          0.687              1.691              1.470
 Vibration    12          0.703              1.644              1.334
 Vibration    13          0.738              1.546              1.104
 Vibration    14          0.779              1.435              0.905
 Vibration    15          0.818              1.337              0.764
 Vibration    16          0.892              1.169              0.572
 Vibration    17          0.936              1.075              0.486

                           ! Non-Optimized Parameters !
 Normal termination of Gaussian 16 at Thu Dec 10 09:32:56 2020.

 ----------------------------------------------------------------------
 # B3LYP/6-311++G(d,p) empiricaldispersion=gd3bj scf=xqc pop=npa geom=c
 heck
 ----------------------------------------------------------------------

 --------------------------------------
 CID_62480130_JID_4111_Energie_neutraal
 --------------------------------------
 Structure from the checkpoint file:  "JID_4111.chk"
 Charge =  0 Multiplicity = 1

 SCF Done:  E(RB3LYP) =  -595.079117461     A.U. after   14 cycles
 Normal termination of Gaussian 16 at Thu Dec 10 09:36:36 2020.

 ----------------------------------------------------------------------
 # B3LYP/6-311++G(d,p) empiricaldispersion=gd3bj scf=xqc pop=npa geom=c
 heck
 ----------------------------------------------------------------------

 ------------------------------------
 CID_62480130_JID_4111_Energie_kation
 ------------------------------------
 Structure from the checkpoint file:  "JID_4111.chk"
 Charge =  1 Multiplicity = 2

 SCF Done:  E(UB3LYP) =  -594.791610945     A.U. after   21 cycles
 Normal termination of Gaussian 16 at Thu Dec 10 09:43:56 2020.
 Gaussian 16:  ES64L-G16RevA.03 25-Dec-2016

 ----------------------------------------------------------------------
 # B3LYP/6-311++G(d,p) empiricaldispersion=gd3bj scf=xqc pop=npa geom=c
 heck
 ----------------------------------------------------------------------

 -----------------------------------
 CID_62480130_JID_4111_Energie_anion
 -----------------------------------
 Structure from the checkpoint file:  "JID_4111.chk"
 Charge = -1 Multiplicity = 2

                         Standard orientation:
 ---------------------------------------------------------------------
 Center     Atomic      Atomic             Coordinates (Angstroms)
 Number     Number       Type             X           Y           Z
 ---------------------------------------------------------------------
      1          6           0        3.673487   -1.471801   -0.237271
      2          6           0        3.024215   -0.140795   -0.045066
      3          7           0        3.590471    0.909552    0.521298
      4          6           0        2.642889    1.911152    0.481459
      5          6           0        1.492577    1.466678   -0.117607
      6          7           0        1.744434    0.146822   -0.459747
      7          6           0        0.785803   -0.766253   -1.059597
      8          6           0       -0.031368   -1.569654   -0.027556
      9          6           0       -0.691651   -0.747962    1.092788
     10          6           0       -2.001706   -0.021896    0.769277
     11          6           0       -3.248091   -0.916799    0.569223
     12          6           0       -4.228787   -0.017699   -0.226844
     13          6           0       -3.367614    1.218764   -0.626074
     14          7           0       -1.955231    0.846554   -0.425929
     15          1           0        4.691828   -1.410743    0.150969
     16          1           0        3.725286   -1.759629   -1.295419
     17          1           0        3.148977   -2.274528    0.296813
     18          1           0        2.848619    2.894192    0.882933
     19          1           0        0.528042    1.912540   -0.314508
     20          1           0        0.144179   -0.170217   -1.711354
     21          1           0        1.331790   -1.461423   -1.705231
     22          1           0       -0.775474   -2.166168   -0.573043
     23          1           0        0.648027   -2.292101    0.440496
     24          1           0       -0.903115   -1.423935    1.930878
     25          1           0        0.035929   -0.019956    1.465504
     26          1           0       -2.209456    0.650198    1.614368
     27          1           0       -2.980009   -1.808128   -0.011802
     28          1           0       -3.663424   -1.266025    1.520193
     29          1           0       -4.613947   -0.535701   -1.111163
     30          1           0       -5.094893    0.277774    0.373769
     31          1           0       -3.529869    1.550774   -1.655399
     32          1           0       -3.591064    2.066187    0.032280
     33          1           0       -1.697658    0.253975   -1.216034
 ---------------------------------------------------------------------

 SCF Done:  E(UB3LYP) =  -595.069793851     A.U. after   31 cycles

 The electronic state is 2-A.
 Alpha  occ. eigenvalues --  -14.26463 -14.19942 -14.18925 -10.12668 -10.11450
 Alpha  occ. eigenvalues --  -10.09782 -10.09161 -10.09032 -10.08045 -10.07913
 Alpha  occ. eigenvalues --  -10.07496 -10.07001 -10.06582 -10.06351  -0.91551
 Alpha  occ. eigenvalues --   -0.82468  -0.78638  -0.69349  -0.67676  -0.65782
 Alpha  occ. eigenvalues --   -0.63774  -0.59649  -0.57956  -0.52915  -0.50116
 Alpha  occ. eigenvalues --   -0.48863  -0.47103  -0.44356  -0.41933  -0.39086
 Alpha  occ. eigenvalues --   -0.37605  -0.36820  -0.36394  -0.34734  -0.33907
 Alpha  occ. eigenvalues --   -0.33392  -0.33062  -0.31003  -0.30385  -0.29937
 Alpha  occ. eigenvalues --   -0.29160  -0.28196  -0.27203  -0.27088  -0.25014
 Alpha  occ. eigenvalues --   -0.23911  -0.23557  -0.22626  -0.21518  -0.17353
 Alpha  occ. eigenvalues --   -0.17008  -0.14355  -0.12492   0.04167
 Alpha virt. eigenvalues --    0.06502   0.06986   0.07886   0.08539   0.09038
 Alpha virt. eigenvalues --    0.09236   0.09768   0.10482   0.10754   0.10956
 Alpha virt. eigenvalues --    0.11971   0.12134   0.12463   0.13367   0.13422

  Beta  occ. eigenvalues --  -14.26464 -14.19917 -14.18923 -10.12662 -10.11417
  Beta  occ. eigenvalues --  -10.09778 -10.09142 -10.09027 -10.08043 -10.07882
  Beta  occ. eigenvalues --  -10.07460 -10.06995 -10.06559 -10.06325  -0.91544
  Beta  occ. eigenvalues --   -0.82425  -0.78624  -0.69310  -0.67650  -0.65727
  Beta  occ. eigenvalues --   -0.63731  -0.59608  -0.57908  -0.52849  -0.50102
  Beta  occ. eigenvalues --   -0.48803  -0.47049  -0.44308  -0.41891  -0.39045
  Beta  occ. eigenvalues --   -0.37555  -0.36775  -0.36359  -0.34701  -0.33867
  Beta  occ. eigenvalues --   -0.33363  -0.33015  -0.30972  -0.30355  -0.29911
  Beta  occ. eigenvalues --   -0.29133  -0.28160  -0.27150  -0.27048  -0.24973
  Beta  occ. eigenvalues --   -0.23871  -0.23522  -0.22589  -0.21480  -0.17346
  Beta  occ. eigenvalues --   -0.16992  -0.14315  -0.12467
  Beta virt. eigenvalues --    0.06563   0.07242   0.07835   0.08230   0.08764
  Beta virt. eigenvalues --    0.09375   0.09738   0.10351   0.10797   0.11030
  Beta virt. eigenvalues --    0.11209   0.12214   0.12402   0.12743   0.13514

 Mulliken charges and spin densities:
               1          2
     1  C    1.127308  -1.790755
     2  C   -0.947492   0.881336
     3  N   -0.128821   0.026261
     4  C   -0.093798  -0.125391
     5  C   -0.025541  -0.020141
     6  N    0.144849  -0.024511
     7  C   -1.104465   0.716849
     8  C    2.259578  -2.683911
     9  C   -0.167571   0.038556
    10  C   -0.882858   0.826587
    11  C    0.374439  -0.904053
    12  C    0.503737  -0.801099
    13  C   -0.073670  -0.297664
    14  N    0.110329  -0.103651
    15  H    0.172608  -0.004473
    16  H   -0.146895   0.308673
    17  H   -0.255588   0.400503
    18  H    0.134711   0.010534
    19  H    0.065141   0.148616
    20  H   -0.720718   0.910853
    21  H   -0.551201   0.735418
    22  H   -0.664227   0.812466
    23  H    0.097153   0.073225
    24  H   -0.218212   0.397050
    25  H    0.208321   0.013160
    26  H   -0.033082   0.206389
    27  H    0.062667   0.090309
    28  H   -0.161395   0.304810
    29  H   -0.332735   0.470516
    30  H   -0.087177   0.209119
    31  H   -0.346683   0.509860
    32  H    0.090862   0.061076
    33  H    0.590427  -0.396517
 Sum of Mulliken charges =  -1.00000   1.00000

 Dipole moment (field-independent basis, Debye):
    X=              1.0655    Y=              3.6666    Z=              3.1205  Tot=              4.9312
 Quadrupole moment (field-independent basis, Debye-Ang):
   XX=           -163.7595   YY=           -129.1644   ZZ=           -125.7077
   XY=             -4.1824   XZ=             -6.6861   YZ=             -3.7965

 Summary of Natural Population Analysis:

                                       Natural Population
                Natural  -----------------------------------------------
    Atom  No    Charge         Core      Valence    Rydberg      Total
 -----------------------------------------------------------------------
      C    1   -0.30834      0.99963     2.30350    0.00520     3.30834
      C    2    0.19284      0.99961     1.78971    0.01784     2.80716
      N    3   -0.26628      0.99970     2.75704    0.00954     3.76628
      C    4   -0.04107      0.99958     2.02859    0.01290     3.04107
      C    5   -0.03996      0.99955     2.02905    0.01137     3.03996
      N    6   -0.21164      0.99962     2.70142    0.01060     3.71164
      C    7   -0.08220      0.99960     2.07004    0.01256     3.08220
      C    8   -0.19800      0.99961     2.18884    0.00955     3.19800
      C    9   -0.19509      0.99959     2.18630    0.00919     3.19509
      C   10   -0.00882      0.99959     1.99623    0.01300     3.00882
      C   11   -0.19994      0.99962     2.19240    0.00793     3.19994
      C   12   -0.20343      0.99965     2.19635    0.00743     3.20343
      C   13   -0.08913      0.99965     2.07857    0.01091     3.08913
      N   14   -0.34018      0.99976     2.82854    0.01188     3.84018
      H   15    0.11252      0.00000     0.38637    0.00112     0.38748
      H   16    0.10630      0.00000     0.39262    0.00108     0.39370
      H   17    0.10715      0.00000     0.39150    0.00134     0.39285
      H   18    0.09337      0.00000     0.40582    0.00081     0.40663
      H   19    0.11603      0.00000     0.38250    0.00147     0.38397
      H   20    0.09999      0.00000     0.39801    0.00200     0.40001
      H   21    0.10575      0.00000     0.39189    0.00236     0.39425
      H   22    0.10573      0.00000     0.39139    0.00288     0.39427
      H   23    0.10087      0.00000     0.39760    0.00153     0.39913
      H   24    0.10229      0.00000     0.39677    0.00094     0.39771
      H   25    0.10491      0.00000     0.39355    0.00154     0.39509
      H   26    0.08871      0.00000     0.41002    0.00127     0.41129
      H   27    0.09929      0.00000     0.39866    0.00204     0.40071
      H   28    0.09950      0.00000     0.39935    0.00115     0.40050
      H   29    0.10052      0.00000     0.39774    0.00174     0.39948
      H   30    0.09586      0.00000     0.40305    0.00109     0.40414
      H   31    0.09695      0.00000     0.40195    0.00110     0.40305
      H   32    0.08653      0.00000     0.41222    0.00124     0.41347
      H   33    0.16893      0.00000     0.32671    0.00436     0.33107
 =======================================================================
   * Total *    0.00000     13.99476    38.82429    0.18094    53.00000

 Normal termination of Gaussian 16 at Thu Dec 10 09:54:36 2020.
