 Gaussian 16, Revision A.03,

 -----------------------------------------------------------
 # opt freq B3LYP/6-31G(d) empiricaldispersion=gd3bj scf=xqc
 -----------------------------------------------------------

 -------------------------------
 CID_116327576_JID_7264_neutraal
 -------------------------------
 Symbolic Z-matrix:
 Charge =  0 Multiplicity = 1

 SCF Done:  E(RB3LYP) =  -759.795883739     A.U. after   13 cycles
 SCF Done:  E(RB3LYP) =  -759.807573201     A.U. after   12 cycles
 SCF Done:  E(RB3LYP) =  -759.810031560     A.U. after   11 cycles
 SCF Done:  E(RB3LYP) =  -759.811145546     A.U. after   12 cycles
 SCF Done:  E(RB3LYP) =  -759.811731022     A.U. after   11 cycles
 SCF Done:  E(RB3LYP) =  -759.812018651     A.U. after   12 cycles
 SCF Done:  E(RB3LYP) =  -759.812237809     A.U. after   10 cycles
 SCF Done:  E(RB3LYP) =  -759.812415018     A.U. after   11 cycles
 SCF Done:  E(RB3LYP) =  -759.812528735     A.U. after   11 cycles
 SCF Done:  E(RB3LYP) =  -759.812677437     A.U. after   10 cycles
 SCF Done:  E(RB3LYP) =  -759.812846754     A.U. after    9 cycles
 SCF Done:  E(RB3LYP) =  -759.812849819     A.U. after    9 cycles
 SCF Done:  E(RB3LYP) =  -759.812852298     A.U. after    9 cycles
 SCF Done:  E(RB3LYP) =  -759.812852640     A.U. after    7 cycles
 SCF Done:  E(RB3LYP) =  -759.812852683     A.U. after    7 cycles
 SCF Done:  E(RB3LYP) =  -759.812852706     A.U. after    6 cycles
 Optimization completed.
    -- Stationary point found.
 Normal termination of Gaussian 16 at Mon Dec 14 16:47:32 2020.

 --------------------------------------------------------------------
 #N Geom=AllCheck Guess=TCheck SCRF=Check GenChk RB3LYP/6-31G(d) Freq
 --------------------------------------------------------------------

 Structure from the checkpoint file:  "JID_7264.chk"
 -------------------------------
 CID_116327576_JID_7264_neutraal
 -------------------------------
 Charge =  0 Multiplicity = 1

 SCF Done:  E(RB3LYP) =  -759.812852706     A.U. after    1 cycles

  Exact polarizability: 206.347   8.697 157.717 -12.922   7.234 115.909
 Approx polarizability: 265.294  10.350 242.530 -24.191  18.131 162.770

                      1                      2                      3
                      A                      A                      A
 Frequencies --     19.7027                33.6331                51.0936
 Red. masses --      4.0350                 3.2504                 1.4605
 Frc consts  --      0.0009                 0.0022                 0.0022
 IR Inten    --      0.9707                 0.0989                 0.6447

                      4                      5                      6
                      A                      A                      A
 Frequencies --     67.3931                83.3977               119.8144
 Red. masses --      2.7117                 2.6384                 2.4721
 Frc consts  --      0.0073                 0.0108                 0.0209
 IR Inten    --      0.0303                 0.1728                 1.5912

                      7                      8                      9
                      A                      A                      A
 Frequencies --    130.1336               136.6318               147.7937
 Red. masses --      3.1052                 1.2883                 2.7947
 Frc consts  --      0.0310                 0.0142                 0.0360
 IR Inten    --      0.5844                 0.3120                 1.4020

                     10                     11                     12
                      A                      A                      A
 Frequencies --    175.6277               196.1739               200.3228
 Red. masses --      3.3564                 2.6687                 4.0815
 Frc consts  --      0.0610                 0.0605                 0.0965
 IR Inten    --      2.0443                 2.1684                 3.3428

                     13                     14                     15
                      A                      A                      A
 Frequencies --    214.6453               239.6514               245.6530
 Red. masses --      3.1628                 1.3622                 2.4161
 Frc consts  --      0.0859                 0.0461                 0.0859
 IR Inten    --      4.9776                 1.4697                 1.3369

                     16                     17                     18
                      A                      A                      A
 Frequencies --    261.7124               315.3219               372.9445
 Red. masses --      2.9429                 3.3712                 2.8185
 Frc consts  --      0.1188                 0.1975                 0.2310
 IR Inten    --      1.6917                 2.5035                 2.3900

                     19                     20                     21
                      A                      A                      A
 Frequencies --    405.4113               408.4869               416.9435
 Red. masses --      2.1308                 1.4917                 2.9944
 Frc consts  --      0.2063                 0.1466                 0.3067
 IR Inten    --    114.0937               231.2420                 5.9169

                     22                     23                     24
                      A                      A                      A
 Frequencies --    474.4066               516.7532               518.5109
 Red. masses --      2.8541                 1.2063                 1.0857
 Frc consts  --      0.3785                 0.1898                 0.1720
 IR Inten    --     11.5096                18.8848                58.3813

                     25                     26                     27
                      A                      A                      A
 Frequencies --    550.8015               575.6549               606.1296
 Red. masses --      4.2925                 2.8247                 5.0402
 Frc consts  --      0.7673                 0.5515                 1.0910
 IR Inten    --      0.5332                 0.5100                10.9915

                     28                     29                     30
                      A                      A                      A
 Frequencies --    619.0976               635.1529               727.1645
 Red. masses --      2.9425                 3.8891                10.4272
 Frc consts  --      0.6645                 0.9244                 3.2485
 IR Inten    --      8.0358                 9.4271                 0.6984

                     31                     32                     33
                      A                      A                      A
 Frequencies --    732.2692               746.0089               759.0768
 Red. masses --     11.3722                 1.8561                 2.5145
 Frc consts  --      3.5928                 0.6086                 0.8536
 IR Inten    --      1.9290                 0.7274                 7.3999

                     34                     35                     36
                      A                      A                      A
 Frequencies --    797.4852               818.7297               867.9550
 Red. masses --      1.2112                12.3066                 3.3763
 Frc consts  --      0.4538                 4.8604                 1.4986
 IR Inten    --      0.7611                55.7011                 2.8200

                     37                     38                     39
                      A                      A                      A
 Frequencies --    905.2954               938.8067               943.7056
 Red. masses --      2.2297                 2.7485                 2.2437
 Frc consts  --      1.0766                 1.4273                 1.1773
 IR Inten    --      1.4620                13.9778                 2.0740

                     40                     41                     42
                      A                      A                      A
 Frequencies --    957.6693               974.5100               991.9182
 Red. masses --      1.7758                 2.2990                13.0005
 Frc consts  --      0.9596                 1.2864                 7.5364
 IR Inten    --      1.2974                 6.3118                 3.9504

                     43                     44                     45
                      A                      A                      A
 Frequencies --   1003.8320              1036.1282              1052.2387
 Red. masses --      1.2297                 2.1437                 1.9099
 Frc consts  --      0.7301                 1.3560                 1.2459
 IR Inten    --      1.4211                28.5788                24.1031

                     46                     47                     48
                      A                      A                      A
 Frequencies --   1089.8994              1094.9027              1111.9178
 Red. masses --      2.0291                 1.3511                 2.8552
 Frc consts  --      1.4201                 0.9543                 2.0798
 IR Inten    --     57.6823                 4.3062                30.2129

                     49                     50                     51
                      A                      A                      A
 Frequencies --   1145.8608              1150.9154              1164.3192
 Red. masses --      1.2141                 1.9083                 2.6185
 Frc consts  --      0.9392                 1.4893                 2.0915
 IR Inten    --      0.0075                20.3893                 5.5107

                     52                     53                     54
                      A                      A                      A
 Frequencies --   1168.4896              1192.6563              1211.5879
 Red. masses --      2.1440                 1.3531                 1.5710
 Frc consts  --      1.7248                 1.1340                 1.3587
 IR Inten    --      1.1132                 2.0466                19.8091

                     55                     56                     57
                      A                      A                      A
 Frequencies --   1231.0210              1259.7905              1270.2077
 Red. masses --      2.1889                 1.3543                 1.3332
 Frc consts  --      1.9543                 1.2664                 1.2674
 IR Inten    --     65.9311                12.8334                 0.6701

                     58                     59                     60
                      A                      A                      A
 Frequencies --   1277.1362              1283.8479              1292.1831
 Red. masses --      1.1979                 3.3513                 1.4751
 Frc consts  --      1.1512                 3.2545                 1.4512
 IR Inten    --      0.5593                16.5067                 1.6874

                     61                     62                     63
                      A                      A                      A
 Frequencies --   1301.0134              1304.5819              1342.9972
 Red. masses --      4.4496                 1.3887                 5.0985
 Frc consts  --      4.4374                 1.3925                 5.4181
 IR Inten    --     74.5909                 4.1631                22.8122

                     64                     65                     66
                      A                      A                      A
 Frequencies --   1360.4201              1382.7268              1414.9063
 Red. masses --      1.4005                 1.5519                 1.9620
 Frc consts  --      1.5271                 1.7482                 2.3143
 IR Inten    --      4.8352                 1.3629               256.5167

                     67                     68                     69
                      A                      A                      A
 Frequencies --   1422.8165              1436.0488              1453.9907
 Red. masses --      1.5352                 1.3349                 1.1476
 Frc consts  --      1.8311                 1.6220                 1.4294
 IR Inten    --     56.5503                80.4101                16.7590

                     70                     71                     72
                      A                      A                      A
 Frequencies --   1462.2385              1501.7839              1510.8058
 Red. masses --      1.4845                 1.8069                 1.1097
 Frc consts  --      1.8701                 2.4011                 1.4924
 IR Inten    --    176.6933               251.9278                18.8695

                     73                     74                     75
                      A                      A                      A
 Frequencies --   1513.5012              1518.3089              1522.3863
 Red. masses --      1.0859                 1.1213                 1.0598
 Frc consts  --      1.4656                 1.5230                 1.4472
 IR Inten    --     42.1086                15.6901                 5.3840

                     76                     77                     78
                      A                      A                      A
 Frequencies --   1522.6319              1527.8049              1534.0961
 Red. masses --      1.4551                 1.0508                 1.0444
 Frc consts  --      1.9876                 1.4451                 1.4482
 IR Inten    --    124.4072                14.3490                13.5607

                     79                     80                     81
                      A                      A                      A
 Frequencies --   1538.4682              1545.8687              1580.9606
 Red. masses --      1.0676                 1.1459                 2.2330
 Frc consts  --      1.4887                 1.6133                 3.2884
 IR Inten    --     13.1817                 2.8710               131.5458

                     82                     83                     84
                      A                      A                      A
 Frequencies --   1604.8879              1627.1842              1634.1388
 Red. masses --      6.6964                 2.0627                 3.8382
 Frc consts  --     10.1620                 3.2178                 6.0389
 IR Inten    --    649.8856               351.9439              1127.5323

                     85                     86                     87
                      A                      A                      A
 Frequencies --   1679.4220              3018.5943              3023.9152
 Red. masses --      2.2500                 1.0401                 1.0837
 Frc consts  --      3.7390                 5.5840                 5.8383
 IR Inten    --    159.7681                29.3606                22.9098

                     88                     89                     90
                      A                      A                      A
 Frequencies --   3026.7214              3039.1197              3061.4002
 Red. masses --      1.0417                 1.0836                 1.1022
 Frc consts  --      5.6225                 5.8967                 6.0862
 IR Inten    --    187.5828                39.6711                75.1802

                     91                     92                     93
                      A                      A                      A
 Frequencies --   3061.7322              3062.6222              3064.5320
 Red. masses --      1.0431                 1.0565                 1.1047
 Frc consts  --      5.7614                 5.8383                 6.1124
 IR Inten    --     60.3693                43.0977                 0.1271

                     94                     95                     96
                      A                      A                      A
 Frequencies --   3066.8544              3081.0706              3106.1548
 Red. masses --      1.0603                 1.0657                 1.1080
 Frc consts  --      5.8757                 5.9607                 6.2988
 IR Inten    --     56.8108                36.8849                14.3822

                     97                     98                     99
                      A                      A                      A
 Frequencies --   3121.1024              3123.1341              3154.4417
 Red. masses --      1.1080                 1.1023                 1.1008
 Frc consts  --      6.3595                 6.3346                 6.4537
 IR Inten    --     41.1387                52.1861                20.4327

                    100                    101                    102
                      A                      A                      A
 Frequencies --   3180.3261              3201.5830              3202.7291
 Red. masses --      1.0977                 1.0945                 1.0938
 Frc consts  --      6.5417                 6.6102                 6.6101
 IR Inten    --      7.8447                 0.8850                 3.0937

                    103                    104                    105
                      A                      A                      A
 Frequencies --   3600.2449              3635.9096              3723.9007
 Red. masses --      1.0453                 1.0762                 1.1033
 Frc consts  --      7.9829                 8.3825                 9.0144
 IR Inten    --     48.0320                31.3649                32.1439

 - Thermochemistry -
 -------------------
 Temperature   298.150 Kelvin.  Pressure   1.00000 Atm.
 Atom     1 has atomic number  6 and mass  12.00000

 Molecular mass:   236.17494 amu.
 Principal axes and moments of inertia in atomic units:
                           1         2         3
     Eigenvalues --  2314.563136732.896587397.63006
           X            0.99995   0.00970  -0.00234
           Y           -0.00971   0.99994  -0.00517
           Z            0.00229   0.00519   0.99998
 This molecule is an asymmetric top.
 Rotational symmetry number  1.
 Warning -- assumption of classical behavior for rotation
           may cause significant error
 Rotational temperatures (Kelvin)      0.03742     0.01286     0.01171
 Rotational constants (GHZ):           0.77973     0.26805     0.24396
 Zero-point vibrational energy     847773.2 (Joules/Mol)
                                  202.62265 (Kcal/Mol)
 Warning -- explicit consideration of  28 degrees of freedom as
           vibrations may cause significant error
 Vibrational temperatures:     28.35    48.39    73.51    96.96   119.99
          (Kelvin)            172.39   187.23   196.58   212.64   252.69
                              282.25   288.22   308.83   344.80   353.44
                              376.55   453.68   536.58   583.30   587.72
                              599.89   682.57   743.49   746.02   792.48
                              828.24   872.09   890.74   913.84  1046.23
                             1053.57  1073.34  1092.14  1147.40  1177.97
                             1248.79  1302.52  1350.73  1357.78  1377.87
                             1402.10  1427.15  1444.29  1490.76  1513.94
                             1568.12  1575.32  1599.80  1648.64  1655.91
                             1675.20  1681.20  1715.97  1743.20  1771.16
                             1812.56  1827.55  1837.51  1847.17  1859.16
                             1871.87  1877.00  1932.27  1957.34  1989.44
                             2035.73  2047.12  2066.15  2091.97  2103.84
                             2160.73  2173.71  2177.59  2184.51  2190.37
                             2190.73  2198.17  2207.22  2213.51  2224.16
                             2274.65  2309.08  2341.16  2351.16  2416.31
                             4343.08  4350.74  4354.78  4372.62  4404.67
                             4405.15  4406.43  4409.18  4412.52  4432.97
                             4469.06  4490.57  4493.49  4538.54  4575.78
                             4606.36  4608.01  5179.95  5231.26  5357.86

 Zero-point correction=                           0.322900 (Hartree/Particle)
 Thermal correction to Energy=                    0.340805
 Thermal correction to Enthalpy=                  0.341749
 Thermal correction to Gibbs Free Energy=         0.275748
 Sum of electronic and zero-point Energies=           -759.489953
 Sum of electronic and thermal Energies=              -759.472047
 Sum of electronic and thermal Enthalpies=            -759.471103
 Sum of electronic and thermal Free Energies=         -759.537105

                     E (Thermal)             CV                S
                      KCal/Mol        Cal/Mol-Kelvin    Cal/Mol-Kelvin
 Total                  213.858             66.317            138.912
 Electronic               0.000              0.000              0.000
 Translational            0.889              2.981             42.280
 Rotational               0.889              2.981             33.111
 Vibrational            212.081             60.356             63.522
 Vibration     1          0.593              1.986              6.664
 Vibration     2          0.594              1.983              5.603
 Vibration     3          0.595              1.977              4.775
 Vibration     4          0.598              1.970              4.228
 Vibration     5          0.600              1.961              3.809
 Vibration     6          0.609              1.933              3.103
 Vibration     7          0.612              1.923              2.944
 Vibration     8          0.614              1.917              2.851
 Vibration     9          0.617              1.905              2.700
 Vibration    10          0.628              1.872              2.374
 Vibration    11          0.636              1.845              2.169
 Vibration    12          0.638              1.839              2.130
 Vibration    13          0.645              1.819              2.004
 Vibration    14          0.657              1.780              1.805
 Vibration    15          0.660              1.770              1.762
 Vibration    16          0.669              1.743              1.650
 Vibration    17          0.703              1.644              1.334
 Vibration    18          0.744              1.528              1.068
 Vibration    19          0.770              1.458              0.943
 Vibration    20          0.773              1.452              0.932
 Vibration    21          0.780              1.433              0.902
 Vibration    22          0.831              1.307              0.725
 Vibration    23          0.872              1.213              0.618
 Vibration    24          0.874              1.209              0.613
 Vibration    25          0.906              1.138              0.543
 Vibration    26          0.932              1.084              0.493
 Vibration    27          0.965              1.019              0.439
 Vibration    28          0.979              0.992              0.418

                           ! Non-Optimized Parameters !
 Normal termination of Gaussian 16 at Mon Dec 14 17:01:14 2020.

 ----------------------------------------------------------------------
 # B3LYP/6-311++G(d,p) empiricaldispersion=gd3bj scf=xqc pop=npa geom=c
 heck
 ----------------------------------------------------------------------

 ---------------------------------------
 CID_116327576_JID_7264_Energie_neutraal
 ---------------------------------------
 Structure from the checkpoint file:  "JID_7264.chk"
 Charge =  0 Multiplicity = 1

 SCF Done:  E(RB3LYP) =  -760.025319261     A.U. after   13 cycles
 Normal termination of Gaussian 16 at Mon Dec 14 17:07:15 2020.

 ----------------------------------------------------------------------
 # B3LYP/6-311++G(d,p) empiricaldispersion=gd3bj scf=xqc pop=npa geom=c
 heck
 ----------------------------------------------------------------------

 -------------------------------------
 CID_116327576_JID_7264_Energie_kation
 -------------------------------------
 Structure from the checkpoint file:  "JID_7264.chk"
 Charge =  1 Multiplicity = 2

 SCF Done:  E(UB3LYP) =  -759.740602061     A.U. after   28 cycles
 Normal termination of Gaussian 16 at Mon Dec 14 17:27:17 2020.
 Gaussian 16:  ES64L-G16RevA.03 25-Dec-2016

 ----------------------------------------------------------------------
 # B3LYP/6-311++G(d,p) empiricaldispersion=gd3bj scf=xqc pop=npa geom=c
 heck
 ----------------------------------------------------------------------

 ------------------------------------
 CID_116327576_JID_7264_Energie_anion
 ------------------------------------
 Structure from the checkpoint file:  "JID_7264.chk"
 Charge = -1 Multiplicity = 2

                         Standard orientation:
 ---------------------------------------------------------------------
 Center     Atomic      Atomic             Coordinates (Angstroms)
 Number     Number       Type             X           Y           Z
 ---------------------------------------------------------------------
      1          6           0        2.493072    0.818190   -2.113593
      2          6           0        2.401015   -0.474759   -1.296080
      3          6           0        3.305623   -0.441733   -0.056885
      4          6           0        3.039871    0.537905    1.119909
      5          6           0        3.497696   -0.579333    2.093438
      6          6           0        3.249879   -1.610684    0.961885
      7          7           0        1.020665   -0.880567   -1.008457
      8          6           0       -0.040528   -0.156344   -0.566882
      9          7           0       -1.186793   -0.855940   -0.450151
     10          6           0       -2.239566   -0.146649   -0.008343
     11          7           0       -2.212593    1.167573    0.303862
     12          6           0       -1.017216    1.743411    0.135013
     13          7           0        0.112579    1.148777   -0.284497
     14          7           0       -0.936633    3.081726    0.394034
     15          7           0       -3.428070   -0.801036    0.138686
     16          6           0       -3.565823   -2.213754   -0.155445
     17          6           0       -4.623520   -0.126110    0.604738
     18          1           0        2.155269    1.673891   -1.529126
     19          1           0        1.870533    0.751020   -3.011626
     20          1           0        3.532098    0.978841   -2.422635
     21          1           0        2.778876   -1.289555   -1.928806
     22          1           0        4.337067   -0.313430   -0.411926
     23          1           0        3.596451    1.480742    1.123129
     24          1           0        1.975568    0.760145    1.215044
     25          1           0        2.933268   -0.704550    3.022692
     26          1           0        4.561813   -0.496743    2.339711
     27          1           0        2.237979   -2.025457    1.020797
     28          1           0        3.965230   -2.431310    0.841999
     29          1           0        0.785154   -1.851062   -1.154724
     30          1           0       -1.686599    3.482018    0.937627
     31          1           0       -0.009991    3.462540    0.515012
     32          1           0       -3.885454   -2.761698    0.741942
     33          1           0       -4.323510   -2.368560   -0.935992
     34          1           0       -2.608785   -2.602210   -0.496335
     35          1           0       -4.397855    0.924480    0.773069
     36          1           0       -5.425091   -0.214466   -0.141491
     37          1           0       -4.979121   -0.579205    1.540769
 ---------------------------------------------------------------------

 SCF Done:  E(UB3LYP) =  -760.011765594     A.U. after   31 cycles

 The electronic state is 2-A.
 Alpha  occ. eigenvalues --  -14.24549 -14.23268 -14.23063 -14.19230 -14.19154
 Alpha  occ. eigenvalues --  -14.19090 -10.17782 -10.17710 -10.17672 -10.11678
 Alpha  occ. eigenvalues --  -10.10074 -10.10065 -10.07602 -10.07210 -10.06919
 Alpha  occ. eigenvalues --  -10.06277 -10.05929  -0.93010  -0.87127  -0.85956
 Alpha  occ. eigenvalues --   -0.80640  -0.77014  -0.75870  -0.74500  -0.66711
 Alpha  occ. eigenvalues --   -0.62851  -0.61196  -0.57680  -0.55966  -0.55504
 Alpha  occ. eigenvalues --   -0.52631  -0.49482  -0.47521  -0.45543  -0.43742
 Alpha  occ. eigenvalues --   -0.42185  -0.39440  -0.38894  -0.38248  -0.38022
 Alpha  occ. eigenvalues --   -0.36824  -0.35777  -0.34684  -0.34203  -0.31161
 Alpha  occ. eigenvalues --   -0.30994  -0.30701  -0.30609  -0.29427  -0.29006
 Alpha  occ. eigenvalues --   -0.28648  -0.27498  -0.26778  -0.26498  -0.25009
 Alpha  occ. eigenvalues --   -0.24076  -0.22347  -0.20776  -0.20556  -0.16449
 Alpha  occ. eigenvalues --   -0.16327  -0.15786  -0.13676  -0.13094   0.04032
 Alpha virt. eigenvalues --    0.05570   0.05950   0.07242   0.07547   0.07828
 Alpha virt. eigenvalues --    0.08596   0.08995   0.09487   0.09561   0.09985
 Alpha virt. eigenvalues --    0.10415   0.10555   0.10759   0.11444   0.11956

  Beta  occ. eigenvalues --  -14.24547 -14.23258 -14.23029 -14.19222 -14.19145
  Beta  occ. eigenvalues --  -14.19087 -10.17780 -10.17710 -10.17670 -10.11664
  Beta  occ. eigenvalues --  -10.10046 -10.10039 -10.07593 -10.07203 -10.06907
  Beta  occ. eigenvalues --  -10.06266 -10.05913  -0.93001  -0.87116  -0.85933
  Beta  occ. eigenvalues --   -0.80614  -0.76999  -0.75844  -0.74482  -0.66687
  Beta  occ. eigenvalues --   -0.62814  -0.61167  -0.57650  -0.55932  -0.55471
  Beta  occ. eigenvalues --   -0.52589  -0.49452  -0.47493  -0.45504  -0.43699
  Beta  occ. eigenvalues --   -0.42152  -0.39408  -0.38862  -0.38223  -0.37995
  Beta  occ. eigenvalues --   -0.36791  -0.35748  -0.34665  -0.34176  -0.31136
  Beta  occ. eigenvalues --   -0.30965  -0.30675  -0.30582  -0.29406  -0.28980
  Beta  occ. eigenvalues --   -0.28628  -0.27474  -0.26756  -0.26477  -0.24994
  Beta  occ. eigenvalues --   -0.24053  -0.22324  -0.20756  -0.20528  -0.16432
  Beta  occ. eigenvalues --   -0.16311  -0.15760  -0.13664  -0.13079
  Beta virt. eigenvalues --    0.05968   0.06447   0.06886   0.07515   0.07998
  Beta virt. eigenvalues --    0.08314   0.08960   0.09194   0.09545   0.10041
  Beta virt. eigenvalues --    0.10214   0.10649   0.10748   0.10982   0.11516

 Mulliken charges and spin densities:
               1          2
     1  C   -0.104352  -0.457907
     2  C   -0.321159   0.491078
     3  C    0.584272  -0.397251
     4  C   -0.270181  -0.064333
     5  C    0.146424  -0.512940
     6  C   -0.228547  -0.261183
     7  N   -0.460920   0.229917
     8  C   -0.263598  -0.225907
     9  N   -0.191566   0.007172
    10  C    0.767460  -0.817947
    11  N   -0.252362   0.016105
    12  C   -0.111544   0.250558
    13  N   -0.164865  -0.025211
    14  N   -0.387389   0.143185
    15  N   -0.125968   0.036575
    16  C    0.720962  -1.009572
    17  C    0.838256  -1.100847
    18  H    0.175775  -0.006923
    19  H    0.042040   0.104911
    20  H   -0.256979   0.406896
    21  H   -0.582507   0.749582
    22  H   -0.088098   0.280287
    23  H   -0.161767   0.316638
    24  H    0.160567   0.011548
    25  H    0.027366   0.109621
    26  H    0.081552   0.030937
    27  H    0.171275  -0.029938
    28  H   -0.256854   0.403810
    29  H    0.301680   0.060886
    30  H   -0.073222   0.345393
    31  H   -0.077267   0.341892
    32  H   -0.138966   0.278016
    33  H   -0.102279   0.235736
    34  H   -0.111704   0.296001
    35  H    0.053301   0.147874
    36  H   -0.142561   0.278210
    37  H   -0.196274   0.337130
 Sum of Mulliken charges =  -1.00000   1.00000

 Dipole moment (field-independent basis, Debye):
    X=              0.2402    Y=              0.2045    Z=              0.6586  Tot=              0.7303
 Quadrupole moment (field-independent basis, Debye-Ang):
   XX=           -193.4479   YY=           -151.2196   ZZ=           -138.9549
   XY=              0.0495   XZ=              8.2684   YZ=             -3.4646

 Summary of Natural Population Analysis:

                                       Natural Population
                Natural  -----------------------------------------------
    Atom  No    Charge         Core      Valence    Rydberg      Total
 -----------------------------------------------------------------------
      C    1   -0.29070      0.99964     2.28494    0.00612     3.29070
      C    2   -0.00568      0.99955     1.99264    0.01349     3.00568
      C    3   -0.10757      0.99958     2.09649    0.01150     3.10757
      C    4   -0.19241      0.99962     2.18427    0.00852     3.19241
      C    5   -0.18865      0.99965     2.18210    0.00690     3.18865
      C    6   -0.18860      0.99963     2.18095    0.00802     3.18860
      N    7   -0.30560      0.99965     2.79449    0.01147     3.80560
      C    8    0.32208      0.99960     1.66037    0.01795     2.67792
      N    9   -0.32495      0.99964     2.81610    0.00922     3.82495
      C   10    0.32491      0.99957     1.65856    0.01695     2.67509
      N   11   -0.32592      0.99963     2.81661    0.00967     3.82592
      C   12    0.31453      0.99963     1.66697    0.01888     2.68547
      N   13   -0.32681      0.99964     2.81795    0.00922     3.82681
      N   14   -0.38714      0.99970     2.87870    0.00875     3.88714
      N   15   -0.23837      0.99964     2.72918    0.00954     3.73837
      C   16   -0.17559      0.99964     2.16927    0.00668     3.17559
      C   17   -0.17541      0.99964     2.16914    0.00663     3.17541
      H   18    0.11263      0.00000     0.38576    0.00160     0.38737
      H   19    0.10036      0.00000     0.39880    0.00084     0.39964
      H   20    0.09825      0.00000     0.40080    0.00095     0.40175
      H   21    0.09778      0.00000     0.40032    0.00189     0.40222
      H   22    0.09798      0.00000     0.40044    0.00158     0.40202
      H   23    0.09499      0.00000     0.40392    0.00109     0.40501
      H   24    0.10871      0.00000     0.38927    0.00203     0.39129
      H   25    0.09337      0.00000     0.40571    0.00092     0.40663
      H   26    0.09215      0.00000     0.40659    0.00127     0.40785
      H   27    0.09821      0.00000     0.40025    0.00153     0.40179
      H   28    0.09502      0.00000     0.40388    0.00110     0.40498
      H   29    0.19846      0.00000     0.29898    0.00255     0.30154
      H   30    0.19521      0.00000     0.30257    0.00221     0.30479
      H   31    0.19527      0.00000     0.30270    0.00202     0.30473
      H   32    0.08983      0.00000     0.40834    0.00183     0.41017
      H   33    0.08931      0.00000     0.40893    0.00176     0.41069
      H   34    0.11780      0.00000     0.38051    0.00170     0.38220
      H   35    0.11756      0.00000     0.38061    0.00183     0.38244
      H   36    0.08917      0.00000     0.40906    0.00177     0.41083
      H   37    0.08979      0.00000     0.40832    0.00188     0.41021
 =======================================================================
   * Total *   -0.00000     16.99364    46.79448    0.21187    64.00000

 Normal termination of Gaussian 16 at Mon Dec 14 17:49:05 2020.
