 Gaussian 16, Revision A.03,

 -----------------------------------------------------------
 # opt freq B3LYP/6-31G(d) empiricaldispersion=gd3bj scf=xqc
 -----------------------------------------------------------

 ------------------------------
 CID_61263564_JID_8235_neutraal
 ------------------------------
 Symbolic Z-matrix:
 Charge =  0 Multiplicity = 1

 SCF Done:  E(RB3LYP) =  -913.264249215     A.U. after   15 cycles
 SCF Done:  E(RB3LYP) =  -913.270021363     A.U. after   13 cycles
 SCF Done:  E(RB3LYP) =  -913.267841965     A.U. after   13 cycles
 SCF Done:  E(RB3LYP) =  -913.271463710     A.U. after   13 cycles
 SCF Done:  E(RB3LYP) =  -913.273714977     A.U. after   13 cycles
 SCF Done:  E(RB3LYP) =  -913.274499358     A.U. after   13 cycles
 SCF Done:  E(RB3LYP) =  -913.274310176     A.U. after   15 cycles
 SCF Done:  E(RB3LYP) =  -913.275482323     A.U. after   13 cycles
 SCF Done:  E(RB3LYP) =  -913.276055647     A.U. after   13 cycles
 SCF Done:  E(RB3LYP) =  -913.277060480     A.U. after   13 cycles
 SCF Done:  E(RB3LYP) =  -913.285443266     A.U. after    8 cycles
 SCF Done:  E(RB3LYP) =  -913.285443447     A.U. after    8 cycles
 SCF Done:  E(RB3LYP) =  -913.285443469     A.U. after    8 cycles
 SCF Done:  E(RB3LYP) =  -913.285443500     A.U. after    7 cycles
 Optimization completed.
    -- Stationary point found.
 Normal termination of Gaussian 16 at Fri Dec 11 19:56:07 2020.

 --------------------------------------------------------------------
 #N Geom=AllCheck Guess=TCheck SCRF=Check GenChk RB3LYP/6-31G(d) Freq
 --------------------------------------------------------------------

 Structure from the checkpoint file:  "JID_8235.chk"
 ------------------------------
 CID_61263564_JID_8235_neutraal
 ------------------------------
 Charge =  0 Multiplicity = 1

 SCF Done:  E(RB3LYP) =  -913.285443500     A.U. after    1 cycles

  Exact polarizability: 162.524  -4.782 154.792  13.837   6.626  93.862
 Approx polarizability: 210.665  -1.449 255.450  31.937  20.388 151.707

                      1                      2                      3
                      A                      A                      A
 Frequencies --     19.9042                30.9736                44.8534
 Red. masses --      5.1563                 5.0481                 6.0797
 Frc consts  --      0.0012                 0.0029                 0.0072
 IR Inten    --      1.2522                 0.5034                 0.3343

                      4                      5                      6
                      A                      A                      A
 Frequencies --     59.6175                66.6395                88.8277
 Red. masses --      4.8431                 8.9658                 6.8006
 Frc consts  --      0.0101                 0.0235                 0.0316
 IR Inten    --      0.0284                 0.1880                 1.3156

                      7                      8                      9
                      A                      A                      A
 Frequencies --    100.0134               130.1039               178.5233
 Red. masses --      5.2653                 5.6032                 4.3021
 Frc consts  --      0.0310                 0.0559                 0.0808
 IR Inten    --      0.7903                 1.3139                 1.2325

                     10                     11                     12
                      A                      A                      A
 Frequencies --    191.2902               203.3076               218.0901
 Red. masses --      3.6902                 1.3967                 3.2985
 Frc consts  --      0.0796                 0.0340                 0.0924
 IR Inten    --      0.7941                 0.3651                 2.4403

                     13                     14                     15
                      A                      A                      A
 Frequencies --    244.4355               257.1141               274.9273
 Red. masses --      5.8104                 1.2013                 5.7382
 Frc consts  --      0.2045                 0.0468                 0.2555
 IR Inten    --     11.1875                 0.3419                 6.4903

                     16                     17                     18
                      A                      A                      A
 Frequencies --    295.2291               337.7262               341.7080
 Red. masses --      2.0483                 2.9112                 2.8195
 Frc consts  --      0.1052                 0.1956                 0.1940
 IR Inten    --      1.2934                 1.0688                 3.4045

                     19                     20                     21
                      A                      A                      A
 Frequencies --    406.7154               429.5385               435.4857
 Red. masses --      6.4907                 6.2234                 4.3411
 Frc consts  --      0.6326                 0.6765                 0.4851
 IR Inten    --      4.8640                 8.3017                 4.4250

                     22                     23                     24
                      A                      A                      A
 Frequencies --    528.4603               537.8609               557.3849
 Red. masses --      5.8633                 2.0632                 5.8454
 Frc consts  --      0.9648                 0.3517                 1.0700
 IR Inten    --     19.5648                 4.7117                15.9760

                     25                     26                     27
                      A                      A                      A
 Frequencies --    609.0243               613.5002               618.5375
 Red. masses --      3.0489                 3.1171                 1.4865
 Frc consts  --      0.6663                 0.6912                 0.3351
 IR Inten    --      7.2728                44.1168                72.5638

                     28                     29                     30
                      A                      A                      A
 Frequencies --    621.0645               646.7602               694.0913
 Red. masses --      3.3620                 3.3047                 1.3632
 Frc consts  --      0.7640                 0.8145                 0.3869
 IR Inten    --      8.4632                54.4376                52.3990

                     31                     32                     33
                      A                      A                      A
 Frequencies --    716.4347               732.1485               761.0910
 Red. masses --      1.8196                 3.8584                 1.5809
 Frc consts  --      0.5503                 1.2186                 0.5395
 IR Inten    --     82.5966                38.9750                 7.1963

                     34                     35                     36
                      A                      A                      A
 Frequencies --    769.0995               779.0049               783.8879
 Red. masses --      2.4869                 3.5327                 3.9040
 Frc consts  --      0.8667                 1.2631                 1.4134
 IR Inten    --     85.5112                 4.8358                54.5093

                     37                     38                     39
                      A                      A                      A
 Frequencies --    828.3013               848.0241               875.0283
 Red. masses --      1.3435                 2.9980                 1.3193
 Frc consts  --      0.5431                 1.2703                 0.5952
 IR Inten    --      8.1495                 5.7547                 2.9387

                     40                     41                     42
                      A                      A                      A
 Frequencies --    909.5470               913.1231               947.5339
 Red. masses --      5.2768                 2.8315                 4.1162
 Frc consts  --      2.5720                 1.3910                 2.1774
 IR Inten    --     18.3366                38.4509                 8.3582

                     43                     44                     45
                      A                      A                      A
 Frequencies --    951.7718              1027.2025              1044.3884
 Red. masses --      1.5736                 1.9717                 1.3078
 Frc consts  --      0.8399                 1.2258                 0.8405
 IR Inten    --      1.1025                 4.8362                 2.0320

                     46                     47                     48
                      A                      A                      A
 Frequencies --   1053.3155              1062.6320              1124.2436
 Red. masses --      1.3334                 1.9410                 2.0094
 Frc consts  --      0.8716                 1.2914                 1.4964
 IR Inten    --     23.2223                17.4279                 1.1429

                     49                     50                     51
                      A                      A                      A
 Frequencies --   1158.0196              1169.4112              1186.2654
 Red. masses --      3.6441                 3.4155                 3.3435
 Frc consts  --      2.8792                 2.7519                 2.7721
 IR Inten    --    114.7000               142.0391                 9.5543

                     52                     53                     54
                      A                      A                      A
 Frequencies --   1198.2170              1232.1960              1237.8846
 Red. masses --      2.5917                 3.0775                 1.8809
 Frc consts  --      2.1923                 2.7530                 1.6982
 IR Inten    --     28.9642                27.0317                63.3112

                     55                     56                     57
                      A                      A                      A
 Frequencies --   1266.6767              1271.1018              1274.1714
 Red. masses --      1.6361                 2.6003                 1.4063
 Frc consts  --      1.5466                 2.4754                 1.3452
 IR Inten    --     14.6172                14.8989                 5.1019

                     58                     59                     60
                      A                      A                      A
 Frequencies --   1322.7917              1380.2603              1388.2660
 Red. masses --      1.4790                 2.2327                 2.9136
 Frc consts  --      1.5248                 2.5061                 3.3084
 IR Inten    --     72.5874                28.5363               111.6762

                     61                     62                     63
                      A                      A                      A
 Frequencies --   1418.8861              1426.2317              1444.8933
 Red. masses --      2.9619                 1.2111                 3.0995
 Frc consts  --      3.5133                 1.4515                 3.8125
 IR Inten    --    328.0434                 7.9238               113.4919

                     64                     65                     66
                      A                      A                      A
 Frequencies --   1454.4095              1490.4144              1497.1181
 Red. masses --      1.2748                 1.5042                 1.8882
 Frc consts  --      1.5888                 1.9687                 2.4935
 IR Inten    --      4.9819                73.6834                27.5444

                     67                     68                     69
                      A                      A                      A
 Frequencies --   1514.4167              1515.6582              1520.0045
 Red. masses --      1.1061                 1.2546                 2.4753
 Frc consts  --      1.4946                 1.6981                 3.3696
 IR Inten    --      9.9950                28.2219                51.7432

                     70                     71                     72
                      A                      A                      A
 Frequencies --   1534.4152              1540.2649              1546.9732
 Red. masses --      1.0840                 1.1031                 1.1327
 Frc consts  --      1.5037                 1.5419                 1.5971
 IR Inten    --      4.6968                 1.3643                 2.0942

                     73                     74                     75
                      A                      A                      A
 Frequencies --   1618.6116              1771.2874              1782.1044
 Red. masses --      5.3921                10.1170                 7.7610
 Frc consts  --      8.3233                18.7016                14.5223
 IR Inten    --     22.4114               709.2735               111.6540

                     76                     77                     78
                      A                      A                      A
 Frequencies --   1841.6274              3011.0446              3074.3126
 Red. masses --      9.7342                 1.0725                 1.0347
 Frc consts  --     19.4515                 5.7291                 5.7620
 IR Inten    --    212.0274                42.1528                10.6893

                     79                     80                     81
                      A                      A                      A
 Frequencies --   3081.5288              3125.1522              3150.7658
 Red. masses --      1.0368                 1.0882                 1.1027
 Frc consts  --      5.8005                 6.2619                 6.4496
 IR Inten    --      9.7074                21.7359                 9.5410

                     82                     83                     84
                      A                      A                      A
 Frequencies --   3157.0603              3157.6531              3167.7238
 Red. masses --      1.1023                 1.1019                 1.1022
 Frc consts  --      6.4732                 6.4734                 6.5161
 IR Inten    --      9.6618                12.4050                18.6445

                     85                     86                     87
                      A                      A                      A
 Frequencies --   3268.7547              3282.7380              3303.4807
 Red. masses --      1.0907                 1.0971                 1.1049
 Frc consts  --      6.8663                 6.9660                 7.1043
 IR Inten    --      4.5892                 2.6381                 0.7193

                     88                     89                     90
                      A                      A                      A
 Frequencies --   3541.8906              3546.7027              3688.1258
 Red. masses --      1.0747                 1.0750                 1.0643
 Frc consts  --      7.9432                 7.9672                 8.5293
 IR Inten    --    137.5294                92.1593                80.7921

 - Thermochemistry -
 -------------------
 Temperature   298.150 Kelvin.  Pressure   1.00000 Atm.
 Atom     1 has atomic number  6 and mass  12.00000

 Molecular mass:   254.09027 amu.
 Principal axes and moments of inertia in atomic units:
                           1         2         3
     Eigenvalues --  2396.110958859.65558**********
           X            1.00000  -0.00121  -0.00167
           Y            0.00122   1.00000   0.00248
           Z            0.00167  -0.00248   1.00000
 This molecule is an asymmetric top.
 Rotational symmetry number  1.
 Warning -- assumption of classical behavior for rotation
           may cause significant error
 Rotational temperatures (Kelvin)      0.03615     0.00978     0.00822
 Rotational constants (GHZ):           0.75320     0.20370     0.17124
 Zero-point vibrational energy     666726.7 (Joules/Mol)
                                  159.35150 (Kcal/Mol)
 Warning -- explicit consideration of  27 degrees of freedom as
           vibrations may cause significant error
 Vibrational temperatures:     28.64    44.56    64.53    85.78    95.88
          (Kelvin)            127.80   143.90   187.19   256.86   275.22
                              292.51   313.78   351.69   369.93   395.56
                              424.77   485.91   491.64   585.17   618.01
                              626.57   760.34   773.86   801.95   876.25
                              882.69   889.94   893.57   930.54   998.64
                             1030.79  1053.40  1095.04  1106.56  1120.81
                             1127.84  1191.74  1220.12  1258.97  1308.64
                             1313.78  1363.29  1369.39  1477.92  1502.64
                             1515.49  1528.89  1617.54  1666.13  1682.52
                             1706.77  1723.97  1772.86  1781.04  1822.47
                             1828.83  1833.25  1903.20  1985.89  1997.41
                             2041.46  2052.03  2078.88  2092.57  2144.37
                             2154.02  2178.91  2180.69  2186.95  2207.68
                             2216.10  2225.75  2328.82  2548.49  2564.05
                             2649.69  4332.22  4423.25  4433.63  4496.40
                             4533.25  4542.31  4543.16  4557.65  4703.01
                             4723.13  4752.97  5095.99  5102.91  5306.39

 Zero-point correction=                           0.253943 (Hartree/Particle)
 Thermal correction to Energy=                    0.271661
 Thermal correction to Enthalpy=                  0.272606
 Thermal correction to Gibbs Free Energy=         0.206002
 Sum of electronic and zero-point Energies=           -913.031501
 Sum of electronic and thermal Energies=              -913.013782
 Sum of electronic and thermal Enthalpies=            -913.012838
 Sum of electronic and thermal Free Energies=         -913.079441

                     E (Thermal)             CV                S
                      KCal/Mol        Cal/Mol-Kelvin    Cal/Mol-Kelvin
 Total                  170.470             65.312            140.178
 Electronic               0.000              0.000              0.000
 Translational            0.889              2.981             42.498
 Rotational               0.889              2.981             33.769
 Vibrational            168.693             59.350             63.911
 Vibration     1          0.593              1.986              6.644
 Vibration     2          0.594              1.984              5.766
 Vibration     3          0.595              1.979              5.032
 Vibration     4          0.597              1.974              4.470
 Vibration     5          0.598              1.970              4.250
 Vibration     6          0.602              1.957              3.686
 Vibration     7          0.604              1.949              3.454
 Vibration     8          0.612              1.923              2.945
 Vibration     9          0.629              1.869              2.344
 Vibration    10          0.634              1.852              2.215
 Vibration    11          0.639              1.835              2.103
 Vibration    12          0.646              1.814              1.975
 Vibration    13          0.660              1.772              1.770
 Vibration    14          0.667              1.751              1.681
 Vibration    15          0.677              1.720              1.565
 Vibration    16          0.689              1.683              1.444
 Vibration    17          0.718              1.600              1.223
 Vibration    18          0.721              1.592              1.204
 Vibration    19          0.771              1.456              0.938
 Vibration    20          0.791              1.406              0.860
 Vibration    21          0.796              1.393              0.841
 Vibration    22          0.883              1.187              0.591
 Vibration    23          0.893              1.166              0.570
 Vibration    24          0.913              1.124              0.529
 Vibration    25          0.968              1.013              0.434
 Vibration    26          0.973              1.003              0.427
 Vibration    27          0.978              0.993              0.419

 Optimization completed.
    -- Stationary point found.
 Normal termination of Gaussian 16 at Fri Dec 11 20:07:20 2020.

 ----------------------------------------------------------------------
 # B3LYP/6-311++G(d,p) empiricaldispersion=gd3bj scf=xqc pop=npa geom=c
 heck
 ----------------------------------------------------------------------

 --------------------------------------
 CID_61263564_JID_8235_Energie_neutraal
 --------------------------------------
 Structure from the checkpoint file:  "JID_8235.chk"
 Charge =  0 Multiplicity = 1

 SCF Done:  E(RB3LYP) =  -913.564778494     A.U. after   15 cycles
 Normal termination of Gaussian 16 at Fri Dec 11 20:11:48 2020.

 ----------------------------------------------------------------------
 # B3LYP/6-311++G(d,p) empiricaldispersion=gd3bj scf=xqc pop=npa geom=c
 heck
 ----------------------------------------------------------------------

 ------------------------------------
 CID_61263564_JID_8235_Energie_kation
 ------------------------------------
 Structure from the checkpoint file:  "JID_8235.chk"
 Charge =  1 Multiplicity = 2

 SCF Done:  E(UB3LYP) =  -913.245217173     A.U. after   33 cycles
 SCF Done:  E(UB3LYP) =  -913.245217182     a.u. after    2 cycles
 Normal termination of Gaussian 16 at Fri Dec 11 20:39:03 2020.
 Gaussian 16:  ES64L-G16RevA.03 25-Dec-2016

 ----------------------------------------------------------------------
 # B3LYP/6-311++G(d,p) empiricaldispersion=gd3bj scf=xqc pop=npa geom=c
 heck
 ----------------------------------------------------------------------

 -----------------------------------
 CID_61263564_JID_8235_Energie_anion
 -----------------------------------
 Structure from the checkpoint file:  "JID_8235.chk"
 Charge = -1 Multiplicity = 2

                         Standard orientation:
 ---------------------------------------------------------------------
 Center     Atomic      Atomic             Coordinates (Angstroms)
 Number     Number       Type             X           Y           Z
 ---------------------------------------------------------------------
      1          6           0       -1.909903   -1.067055    1.358513
      2          6           0       -2.464904   -0.453128    0.051493
      3          6           0       -2.055214   -1.288528   -1.177370
      4          6           0       -3.998817   -0.462751    0.169386
      5          8           0       -4.696525    0.522917    0.259746
      6          8           0       -4.494771   -1.715713    0.196337
      7          7           0       -2.125348    0.965021   -0.080686
      8          6           0       -0.932295    1.610768   -0.214154
      9          8           0       -0.859038    2.829994   -0.107330
     10          6           0        0.314367    0.798466   -0.583980
     11          7           0        1.478004    1.635945   -0.415460
     12          6           0        2.708660    1.264559    0.066435
     13          8           0        3.499872    2.077264    0.527219
     14          6           0        3.062842   -0.172624   -0.043875
     15          6           0        2.677382   -1.218734   -0.845185
     16          6           0        3.505187   -2.330611   -0.499134
     17          6           0        4.332519   -1.882607    0.489235
     18          8           0        4.082393   -0.581669    0.771395
     19          1           0       -2.260167   -2.095509    1.477039
     20          1           0       -2.233685   -0.478463    2.221903
     21          1           0       -0.817317   -1.077327    1.343945
     22          1           0       -2.491966   -2.287171   -1.114188
     23          1           0       -2.399536   -0.808102   -2.097900
     24          1           0       -0.970370   -1.400839   -1.226664
     25          1           0       -5.460890   -1.627603    0.301678
     26          1           0       -2.899083    1.593425    0.117534
     27          1           0        0.400016   -0.103837    0.024714
     28          1           0        0.191774    0.470875   -1.627342
     29          1           0        1.252748    2.618309   -0.278972
     30          1           0        1.921895   -1.192510   -1.616509
     31          1           0        3.488833   -3.321369   -0.930557
     32          1           0        5.114757   -2.345516    1.071218
 ---------------------------------------------------------------------

 SCF Done:  E(UB3LYP) =  -913.568943810     A.U. after   33 cycles
 SCF Done:  E(UB3LYP) =  -913.568943810     a.u. after    1 cycles

 The electronic state is 2-A.
 Alpha  occ. eigenvalues --  -19.08837 -19.08493 -19.04140 -19.01015 -18.97334
 Alpha  occ. eigenvalues --  -14.25345 -14.22812 -10.22936 -10.19711 -10.16597
 Alpha  occ. eigenvalues --  -10.16383 -10.13169 -10.12635 -10.12243 -10.09421
 Alpha  occ. eigenvalues --  -10.08925 -10.08227 -10.07885  -1.03486  -1.01663
 Alpha  occ. eigenvalues --   -0.96429  -0.94721  -0.92615  -0.85114  -0.82306
 Alpha  occ. eigenvalues --   -0.71996  -0.70882  -0.66510  -0.64563  -0.62463
 Alpha  occ. eigenvalues --   -0.58684  -0.54371  -0.53107  -0.51128  -0.48667
 Alpha  occ. eigenvalues --   -0.46216  -0.44179  -0.43541  -0.41571  -0.40508
 Alpha  occ. eigenvalues --   -0.39611  -0.39270  -0.38623  -0.37173  -0.36317
 Alpha  occ. eigenvalues --   -0.35594  -0.34581  -0.34295  -0.33722  -0.33042
 Alpha  occ. eigenvalues --   -0.31531  -0.31319  -0.30979  -0.30281  -0.29493
 Alpha  occ. eigenvalues --   -0.28894  -0.28454  -0.27659  -0.27523  -0.24915
 Alpha  occ. eigenvalues --   -0.20942  -0.19443  -0.18674  -0.18085  -0.16024
 Alpha  occ. eigenvalues --   -0.15074  -0.14144   0.03373
 Alpha virt. eigenvalues --    0.04730   0.06251   0.06808   0.07469   0.08166
 Alpha virt. eigenvalues --    0.08508   0.09377   0.09641   0.10320   0.11123
 Alpha virt. eigenvalues --    0.11379   0.11519   0.12051   0.12141   0.12877

  Beta  occ. eigenvalues --  -19.08752 -19.08329 -19.04103 -19.01004 -18.97200
  Beta  occ. eigenvalues --  -14.25345 -14.22784 -10.22902 -10.19704 -10.16587
  Beta  occ. eigenvalues --  -10.16281 -10.13168 -10.12498 -10.12157 -10.09410
  Beta  occ. eigenvalues --  -10.08880 -10.08275 -10.07791  -1.03367  -1.01394
  Beta  occ. eigenvalues --   -0.96407  -0.94616  -0.92382  -0.85097  -0.82201
  Beta  occ. eigenvalues --   -0.71951  -0.70735  -0.66244  -0.64500  -0.62411
  Beta  occ. eigenvalues --   -0.58567  -0.54196  -0.52862  -0.51052  -0.48635
  Beta  occ. eigenvalues --   -0.46065  -0.44077  -0.43463  -0.41492  -0.40446
  Beta  occ. eigenvalues --   -0.39533  -0.39159  -0.38491  -0.37131  -0.35905
  Beta  occ. eigenvalues --   -0.35326  -0.34442  -0.34221  -0.33625  -0.32982
  Beta  occ. eigenvalues --   -0.31471  -0.31240  -0.30878  -0.30130  -0.29421
  Beta  occ. eigenvalues --   -0.28814  -0.28244  -0.27439  -0.27283  -0.24777
  Beta  occ. eigenvalues --   -0.20860  -0.19010  -0.18554  -0.18037  -0.15755
  Beta  occ. eigenvalues --   -0.14761  -0.13397
  Beta virt. eigenvalues --    0.06007   0.06677   0.06886   0.07061   0.07766
  Beta virt. eigenvalues --    0.08463   0.08639   0.09580   0.09776   0.10446
  Beta virt. eigenvalues --    0.11159   0.11458   0.11618   0.12209   0.12455

 Mulliken charges and spin densities:
               1          2
     1  C   -0.029709  -0.413603
     2  C    0.161392  -0.420489
     3  C    0.561876  -1.039536
     4  C   -0.157716   0.354067
     5  O   -0.271123  -0.007519
     6  O   -0.181884   0.049104
     7  N   -0.225702   0.047542
     8  C   -0.176075   0.000047
     9  O   -0.304884  -0.001970
    10  C   -0.145176  -0.040135
    11  N   -0.122640   0.003717
    12  C   -0.290883   0.031434
    13  O   -0.378676   0.047086
    14  C   -0.494446  -0.020671
    15  C    0.696184   0.161473
    16  C   -0.588576  -0.106917
    17  C    0.157173   0.137293
    18  O    0.003329   0.027270
    19  H   -0.029593   0.199912
    20  H    0.131071   0.048053
    21  H    0.132432   0.002977
    22  H   -0.096772   0.279066
    23  H   -0.001538   0.192983
    24  H   -0.260863   0.397977
    25  H   -0.671939   1.003293
    26  H    0.389245  -0.047960
    27  H    0.271360   0.009161
    28  H    0.211679   0.017948
    29  H    0.344160  -0.003124
    30  H    0.119222   0.041117
    31  H    0.088778   0.054551
    32  H    0.160293  -0.004145
 Sum of Mulliken charges =  -1.00000   1.00000

 Dipole moment (field-independent basis, Debye):
    X=              3.8321    Y=             -1.9156    Z=             -0.8776  Tot=              4.3732
 Quadrupole moment (field-independent basis, Debye-Ang):
   XX=           -219.9176   YY=           -150.8773   ZZ=           -120.5498
   XY=            -29.7414   XZ=             -1.6477   YZ=             -3.4876

 Summary of Natural Population Analysis:

                                       Natural Population
                Natural  -----------------------------------------------
    Atom  No    Charge         Core      Valence    Rydberg      Total
 -----------------------------------------------------------------------
      C    1   -0.28554      0.99962     2.27954    0.00637     3.28554
      C    2    0.01998      0.99955     1.96743    0.01305     2.98002
      C    3   -0.28909      0.99962     2.28189    0.00758     3.28909
      C    4    0.41845      0.99964     1.55513    0.02678     2.58155
      O    5   -0.30606      0.99987     3.29999    0.00621     4.30606
      O    6   -0.34063      0.99987     3.33274    0.00802     4.34063
      N    7   -0.32721      0.99964     2.81692    0.01064     3.82721
      C    8    0.34669      0.99968     1.63254    0.02109     2.65331
      O    9   -0.32370      0.99988     3.31828    0.00555     4.32370
      C   10   -0.13680      0.99959     2.12716    0.01005     3.13680
      N   11   -0.32093      0.99967     2.81088    0.01038     3.82093
      C   12    0.32892      0.99962     1.65094    0.02051     2.67108
      O   13   -0.30294      0.99988     3.29719    0.00587     4.30294
      C   14    0.11385      0.99944     1.87351    0.01320     2.88615
      C   15   -0.12845      0.99953     2.11917    0.00975     3.12845
      C   16   -0.17091      0.99958     2.16273    0.00861     3.17091
      C   17    0.08923      0.99954     1.89764    0.01360     2.91077
      O   18   -0.20635      0.99986     3.19803    0.00847     4.20635
      H   19    0.11146      0.00000     0.38760    0.00095     0.38854
      H   20    0.10500      0.00000     0.39422    0.00077     0.39500
      H   21    0.10186      0.00000     0.39715    0.00100     0.39814
      H   22    0.11492      0.00000     0.38373    0.00136     0.38508
      H   23    0.10622      0.00000     0.39279    0.00099     0.39378
      H   24    0.10259      0.00000     0.39616    0.00124     0.39741
      H   25    0.25127      0.00000     0.20973    0.03900     0.24873
      H   26    0.21048      0.00000     0.28701    0.00251     0.28952
      H   27    0.10836      0.00000     0.39006    0.00158     0.39164
      H   28    0.10135      0.00000     0.39738    0.00128     0.39865
      H   29    0.20640      0.00000     0.29193    0.00167     0.29360
      H   30    0.10625      0.00000     0.39287    0.00088     0.39375
      H   31    0.10573      0.00000     0.39350    0.00077     0.39427
      H   32    0.08964      0.00000     0.40950    0.00086     0.41036
 =======================================================================
   * Total *   -0.00000     17.99408    48.74532    0.26059    67.00000

 Normal termination of Gaussian 16 at Fri Dec 11 20:53:47 2020.
