 Gaussian 16, Revision A.03,

 -----------------------------------------------------------
 # opt freq B3LYP/6-31G(d) empiricaldispersion=gd3bj scf=xqc
 -----------------------------------------------------------

 ------------------------------
 CID_54014173_JID_2040_neutraal
 ------------------------------
 Symbolic Z-matrix:
 Charge =  0 Multiplicity = 1

 SCF Done:  E(RB3LYP) =  -954.409223197     A.U. after   14 cycles
 SCF Done:  E(RB3LYP) =  -954.408055279     A.U. after   12 cycles
 SCF Done:  E(RB3LYP) =  -954.413899471     A.U. after   12 cycles
 SCF Done:  E(RB3LYP) =  -954.414516932     A.U. after   12 cycles
 SCF Done:  E(RB3LYP) =  -954.415448718     A.U. after   12 cycles
 SCF Done:  E(RB3LYP) =  -954.415442121     A.U. after   12 cycles
 SCF Done:  E(RB3LYP) =  -954.415967756     A.U. after   11 cycles
 SCF Done:  E(RB3LYP) =  -954.416066226     A.U. after   11 cycles
 SCF Done:  E(RB3LYP) =  -954.416095036     A.U. after   10 cycles
 SCF Done:  E(RB3LYP) =  -954.416097741     A.U. after   10 cycles
 SCF Done:  E(RB3LYP) =  -954.416107338     A.U. after    9 cycles
 SCF Done:  E(RB3LYP) =  -954.416108723     A.U. after    8 cycles
 SCF Done:  E(RB3LYP) =  -954.416109240     A.U. after    8 cycles
 SCF Done:  E(RB3LYP) =  -954.416109498     A.U. after    7 cycles
 SCF Done:  E(RB3LYP) =  -954.416109565     A.U. after    7 cycles
 Optimization completed.
    -- Stationary point found.
 Normal termination of Gaussian 16 at Wed Dec  9 16:48:45 2020.

 --------------------------------------------------------------------
 #N Geom=AllCheck Guess=TCheck SCRF=Check GenChk RB3LYP/6-31G(d) Freq
 --------------------------------------------------------------------

 Structure from the checkpoint file:  "JID_2040.chk"
 ------------------------------
 CID_54014173_JID_2040_neutraal
 ------------------------------
 Charge =  0 Multiplicity = 1

 SCF Done:  E(RB3LYP) =  -954.416109565     A.U. after    1 cycles

  Exact polarizability: 115.416  -0.686 108.234  -3.051  -3.259  92.094
 Approx polarizability: 141.658  -0.424 166.036  -5.225 -10.104 138.905

                      1                      2                      3
                      A                      A                      A
 Frequencies --     29.3212                48.3128                55.7006
 Red. masses --      6.0559                 5.6026                 5.2428
 Frc consts  --      0.0031                 0.0077                 0.0096
 IR Inten    --      2.2684                 0.3073                 2.3069

                      4                      5                      6
                      A                      A                      A
 Frequencies --     68.2317                94.5486               117.8333
 Red. masses --      3.2988                 5.5763                 3.9753
 Frc consts  --      0.0090                 0.0294                 0.0325
 IR Inten    --      1.4959                 0.2299                 0.8260

                      7                      8                      9
                      A                      A                      A
 Frequencies --    149.1899               172.9783               210.4581
 Red. masses --      2.6550                 3.1381                 2.6357
 Frc consts  --      0.0348                 0.0553                 0.0688
 IR Inten    --      8.9242                 3.9283                 2.5605

                     10                     11                     12
                      A                      A                      A
 Frequencies --    225.5280               249.6308               275.7647
 Red. masses --      1.2308                 1.1594                 2.9849
 Frc consts  --      0.0369                 0.0426                 0.1337
 IR Inten    --     12.3176               124.2808                20.7514

                     13                     14                     15
                      A                      A                      A
 Frequencies --    293.6882               334.6415               403.3939
 Red. masses --      5.0148                 3.7066                 2.7750
 Frc consts  --      0.2548                 0.2446                 0.2661
 IR Inten    --      1.1242                 8.3172                10.0396

                     16                     17                     18
                      A                      A                      A
 Frequencies --    427.0950               474.0849               506.2899
 Red. masses --      2.4859                 2.5893                 2.0495
 Frc consts  --      0.2672                 0.3429                 0.3095
 IR Inten    --      0.7987                10.2433                10.8927

                     19                     20                     21
                      A                      A                      A
 Frequencies --    526.0295               589.5451               613.4232
 Red. masses --      2.8105                 2.7784                 1.1712
 Frc consts  --      0.4582                 0.5690                 0.2597
 IR Inten    --     15.5192                 4.0978               109.3728

                     22                     23                     24
                      A                      A                      A
 Frequencies --    643.4866               683.7516               727.9735
 Red. masses --      3.3356                 3.6199                 2.0242
 Frc consts  --      0.8138                 0.9971                 0.6320
 IR Inten    --      8.5872                 3.7691                 6.0707

                     25                     26                     27
                      A                      A                      A
 Frequencies --    830.2263               860.4131               887.4836
 Red. masses --      1.7276                 2.0347                 2.4680
 Frc consts  --      0.7016                 0.8875                 1.1453
 IR Inten    --      3.9519                 2.4796                 3.5369

                     28                     29                     30
                      A                      A                      A
 Frequencies --    902.1428               945.9189               971.1596
 Red. masses --      1.9825                 1.9992                 2.2363
 Frc consts  --      0.9506                 1.0539                 1.2427
 IR Inten    --      4.5785                19.5255                 3.4660

                     31                     32                     33
                      A                      A                      A
 Frequencies --    996.9685              1046.6055              1076.9673
 Red. masses --      2.2064                 2.1891                 1.8617
 Frc consts  --      1.2921                 1.4128                 1.2722
 IR Inten    --      4.9578                14.1777                 8.5318

                     34                     35                     36
                      A                      A                      A
 Frequencies --   1087.8576              1105.1879              1112.0884
 Red. masses --      2.4209                 2.3748                 3.6066
 Frc consts  --      1.6880                 1.7091                 2.6280
 IR Inten    --      2.7200                28.1021               117.0596

                     37                     38                     39
                      A                      A                      A
 Frequencies --   1128.4266              1192.9517              1207.8545
 Red. masses --      2.6524                 1.2407                 1.7113
 Frc consts  --      1.9899                 1.0403                 1.4710
 IR Inten    --     41.5746                64.8842                26.2688

                     40                     41                     42
                      A                      A                      A
 Frequencies --   1234.3848              1251.1279              1269.5706
 Red. masses --      1.2517                 1.1827                 1.1953
 Frc consts  --      1.1237                 1.0907                 1.1351
 IR Inten    --     18.1130                25.8004                10.3895

                     43                     44                     45
                      A                      A                      A
 Frequencies --   1277.6147              1322.8102              1337.3221
 Red. masses --      1.1559                 1.3498                 1.2685
 Frc consts  --      1.1117                 1.3916                 1.3366
 IR Inten    --     22.7521                 2.8660                32.7177

                     46                     47                     48
                      A                      A                      A
 Frequencies --   1340.2584              1370.0474              1397.4851
 Red. masses --      1.2858                 1.3867                 1.3890
 Frc consts  --      1.3609                 1.5336                 1.5982
 IR Inten    --      9.8237                14.8695                26.5199

                     49                     50                     51
                      A                      A                      A
 Frequencies --   1406.8598              1414.7083              1471.9329
 Red. masses --      1.3438                 1.3001                 1.5134
 Frc consts  --      1.5671                 1.5331                 1.9318
 IR Inten    --     31.3954                12.2373                 7.7429

                     52                     53                     54
                      A                      A                      A
 Frequencies --   1477.0225              1495.4175              1497.2181
 Red. masses --      1.5940                 1.0824                 1.0840
 Frc consts  --      2.0489                 1.4262                 1.4317
 IR Inten    --     74.6887                 0.9085                14.4666

                     55                     56                     57
                      A                      A                      A
 Frequencies --   1501.4745              1525.4226              1537.6314
 Red. masses --      1.2034                 1.4004                 1.1059
 Frc consts  --      1.5985                 1.9199                 1.5405
 IR Inten    --    137.2215                54.8137                 7.7396

                     58                     59                     60
                      A                      A                      A
 Frequencies --   1542.7624              1546.7118              1720.1620
 Red. masses --      1.0894                 1.1927                 8.2140
 Frc consts  --      1.5277                 1.6811                14.3200
 IR Inten    --      6.8129                19.8294               268.6942

                     61                     62                     63
                      A                      A                      A
 Frequencies --   2666.9244              2991.7823              2997.3225
 Red. masses --      1.0387                 1.0582                 1.0698
 Frc consts  --      4.3526                 5.5805                 5.6624
 IR Inten    --     23.1032                68.6943                57.4821

                     64                     65                     66
                      A                      A                      A
 Frequencies --   3030.2140              3069.6246              3070.0774
 Red. masses --      1.1042                 1.0795                 1.0660
 Frc consts  --      5.9735                 5.9932                 5.9201
 IR Inten    --     49.3212                22.4518                 9.5879

                     67                     68                     69
                      A                      A                      A
 Frequencies --   3079.7327              3094.8291              3098.7392
 Red. masses --      1.0790                 1.0690                 1.0605
 Frc consts  --      6.0300                 6.0325                 5.9995
 IR Inten    --     55.7668                27.0666                15.0099

                     70                     71                     72
                      A                      A                      A
 Frequencies --   3128.4639              3151.6147              3155.1865
 Red. masses --      1.0996                 1.0983                 1.1026
 Frc consts  --      6.3407                 6.4272                 6.4675
 IR Inten    --     15.2262                17.4993                 7.5591

                     73                     74                     75
                      A                      A                      A
 Frequencies --   3159.2691              3610.8199              3767.0842
 Red. masses --      1.1000                 1.0653                 1.0667
 Frc consts  --      6.4685                 8.1834                 8.9185
 IR Inten    --     20.0695               254.6972                26.7394

 - Thermochemistry -
 -------------------
 Temperature   298.150 Kelvin.  Pressure   1.00000 Atm.
 Atom     1 has atomic number  6 and mass  12.00000

 Molecular mass:   193.07727 amu.
 Principal axes and moments of inertia in atomic units:
                           1         2         3
     Eigenvalues --  1807.045703504.555224566.26861
           X            0.99986   0.00506  -0.01586
           Y           -0.00488   0.99992   0.01162
           Z            0.01592  -0.01154   0.99981
 This molecule is an asymmetric top.
 Rotational symmetry number  1.
 Warning -- assumption of classical behavior for rotation
           may cause significant error
 Rotational temperatures (Kelvin)      0.04793     0.02471     0.01897
 Rotational constants (GHZ):           0.99872     0.51497     0.39523
 Zero-point vibrational energy     599824.2 (Joules/Mol)
                                  143.36143 (Kcal/Mol)
 Warning -- explicit consideration of  21 degrees of freedom as
           vibrations may cause significant error
 Vibrational temperatures:     42.19    69.51    80.14    98.17   136.03
          (Kelvin)            169.54   214.65   248.88   302.80   324.48
                              359.16   396.76   422.55   481.47   580.39
                              614.49   682.10   728.44   756.84   848.22
                              882.58   925.83   983.77  1047.39  1194.51
                             1237.94  1276.89  1297.98  1360.97  1397.28
                             1434.42  1505.83  1549.52  1565.18  1590.12
                             1600.05  1623.55  1716.39  1737.83  1776.00
                             1800.09  1826.63  1838.20  1903.23  1924.11
                             1928.33  1971.19  2010.67  2024.16  2035.45
                             2117.78  2125.11  2151.57  2154.16  2160.29
                             2194.74  2212.31  2219.69  2225.37  2474.93
                             3837.11  4304.51  4312.48  4359.80  4416.51
                             4417.16  4431.05  4452.77  4458.39  4501.16
                             4534.47  4539.61  4545.48  5195.16  5419.99

 Zero-point correction=                           0.228461 (Hartree/Particle)
 Thermal correction to Energy=                    0.242786
 Thermal correction to Enthalpy=                  0.243730
 Thermal correction to Gibbs Free Energy=         0.185686
 Sum of electronic and zero-point Energies=           -954.187649
 Sum of electronic and thermal Energies=              -954.173323
 Sum of electronic and thermal Enthalpies=            -954.172379
 Sum of electronic and thermal Free Energies=         -954.230424

                     E (Thermal)             CV                S
                      KCal/Mol        Cal/Mol-Kelvin    Cal/Mol-Kelvin
 Total                  152.351             50.911            122.165
 Electronic               0.000              0.000              0.000
 Translational            0.889              2.981             41.679
 Rotational               0.889              2.981             31.737
 Vibrational            150.573             44.949             48.749
 Vibration     1          0.593              1.984              5.875
 Vibration     2          0.595              1.978              4.885
 Vibration     3          0.596              1.975              4.604
 Vibration     4          0.598              1.969              4.204
 Vibration     5          0.603              1.953              3.564
 Vibration     6          0.608              1.935              3.136
 Vibration     7          0.618              1.904              2.683
 Vibration     8          0.626              1.876              2.403
 Vibration     9          0.643              1.825              2.040
 Vibration    10          0.650              1.802              1.914
 Vibration    11          0.662              1.763              1.733
 Vibration    12          0.677              1.718              1.560
 Vibration    13          0.688              1.685              1.453
 Vibration    14          0.716              1.606              1.238
 Vibration    15          0.769              1.463              0.950
 Vibration    16          0.789              1.411              0.868
 Vibration    17          0.831              1.308              0.726
 Vibration    18          0.862              1.236              0.643
 Vibration    19          0.881              1.192              0.596
 Vibration    20          0.947              1.054              0.468
 Vibration    21          0.973              1.003              0.427

 Optimization completed.
    -- Stationary point found.
 Normal termination of Gaussian 16 at Wed Dec  9 16:55:29 2020.

 ----------------------------------------------------------------------
 # B3LYP/6-311++G(d,p) empiricaldispersion=gd3bj scf=xqc pop=npa geom=c
 heck
 ----------------------------------------------------------------------

 --------------------------------------
 CID_54014173_JID_2040_Energie_neutraal
 --------------------------------------
 Structure from the checkpoint file:  "JID_2040.chk"
 Charge =  0 Multiplicity = 1

 SCF Done:  E(RB3LYP) =  -954.631528216     A.U. after   15 cycles
 Normal termination of Gaussian 16 at Wed Dec  9 16:58:07 2020.

 ----------------------------------------------------------------------
 # B3LYP/6-311++G(d,p) empiricaldispersion=gd3bj scf=xqc pop=npa geom=c
 heck
 ----------------------------------------------------------------------

 ------------------------------------
 CID_54014173_JID_2040_Energie_kation
 ------------------------------------
 Structure from the checkpoint file:  "JID_2040.chk"
 Charge =  1 Multiplicity = 2

 SCF Done:  E(UB3LYP) =  -954.314313315     A.U. after   27 cycles
 Normal termination of Gaussian 16 at Wed Dec  9 17:04:34 2020.
 Gaussian 16:  ES64L-G16RevA.03 25-Dec-2016

 ----------------------------------------------------------------------
 # B3LYP/6-311++G(d,p) empiricaldispersion=gd3bj scf=xqc pop=npa geom=c
 heck
 ----------------------------------------------------------------------

 -----------------------------------
 CID_54014173_JID_2040_Energie_anion
 -----------------------------------
 Structure from the checkpoint file:  "JID_2040.chk"
 Charge = -1 Multiplicity = 2

                         Standard orientation:
 ---------------------------------------------------------------------
 Center     Atomic      Atomic             Coordinates (Angstroms)
 Number     Number       Type             X           Y           Z
 ---------------------------------------------------------------------
      1          6           0       -1.443891   -0.042832    1.283448
      2          6           0       -2.799672   -0.536781    0.768997
      3         16           0       -3.268383    0.139124   -0.879936
      4          6           0       -0.309596   -0.637280    0.451114
      5          8           0       -0.152270   -1.864079    0.509189
      6          7           0        0.479029    0.154499   -0.318628
      7          6           0        0.305458    1.599160   -0.451267
      8          6           0        1.151990    2.401744    0.528443
      9          8           0        2.517025    2.180993    0.201681
     10          6           0        1.557858   -0.484822   -1.101283
     11          6           0        2.690215   -1.112101   -0.267977
     12          8           0        2.488947   -2.472803    0.039844
     13          1           0       -1.299892   -0.438634    2.295775
     14          1           0       -1.431838    1.046262    1.356786
     15          1           0       -2.754491   -1.619720    0.632138
     16          1           0       -3.595572   -0.318207    1.484959
     17          1           0       -3.544599    1.393022   -0.458317
     18          1           0        0.588598    1.878311   -1.470400
     19          1           0       -0.747370    1.862156   -0.343721
     20          1           0        0.885565    3.467951    0.441457
     21          1           0        0.926358    2.077589    1.555767
     22          1           0        3.066515    2.525694    0.920651
     23          1           0        1.121252   -1.263124   -1.737069
     24          1           0        1.969976    0.296566   -1.740081
     25          1           0        3.615368   -1.060241   -0.854365
     26          1           0        2.841429   -0.488700    0.628412
     27          1           0        1.555833   -2.541822    0.322814
 ---------------------------------------------------------------------

 SCF Done:  E(UB3LYP) =  -954.630578091     A.U. after   28 cycles

 The electronic state is 2-A.
 Alpha  occ. eigenvalues --  -88.74123 -19.02750 -19.00002 -18.99170 -14.25064
 Alpha  occ. eigenvalues --  -10.17429 -10.11982 -10.11182 -10.11082 -10.10773
 Alpha  occ. eigenvalues --  -10.10737 -10.08406  -7.82824  -5.79192  -5.78851
 Alpha  occ. eigenvalues --   -5.78217  -0.94620  -0.92948  -0.90644  -0.84102
 Alpha  occ. eigenvalues --   -0.71122  -0.66798  -0.64269  -0.61502  -0.55190
 Alpha  occ. eigenvalues --   -0.53460  -0.51165  -0.44833  -0.43026  -0.41477
 Alpha  occ. eigenvalues --   -0.40369  -0.39064  -0.36631  -0.35458  -0.34591
 Alpha  occ. eigenvalues --   -0.33207  -0.32173  -0.31889  -0.30959  -0.29986
 Alpha  occ. eigenvalues --   -0.28861  -0.28226  -0.27046  -0.26017  -0.25066
 Alpha  occ. eigenvalues --   -0.23077  -0.22579  -0.18692  -0.16844  -0.16187
 Alpha  occ. eigenvalues --   -0.15076  -0.14378   0.03730
 Alpha virt. eigenvalues --    0.06186   0.07761   0.08334   0.09242   0.09605
 Alpha virt. eigenvalues --    0.10106   0.10485   0.10674   0.11320   0.11757
 Alpha virt. eigenvalues --    0.12824   0.12910   0.13780   0.14145   0.14481

  Beta  occ. eigenvalues --  -88.74100 -19.02708 -19.00000 -18.99129 -14.25073
  Beta  occ. eigenvalues --  -10.17383 -10.11936 -10.11170 -10.11076 -10.10747
  Beta  occ. eigenvalues --  -10.10734 -10.08384  -7.82799  -5.79140  -5.78830
  Beta  occ. eigenvalues --   -5.78199  -0.94549  -0.92860  -0.90635  -0.84081
  Beta  occ. eigenvalues --   -0.71055  -0.66750  -0.64193  -0.61426  -0.55118
  Beta  occ. eigenvalues --   -0.53386  -0.51085  -0.44762  -0.42914  -0.41408
  Beta  occ. eigenvalues --   -0.40342  -0.39024  -0.36550  -0.35422  -0.34542
  Beta  occ. eigenvalues --   -0.33127  -0.32135  -0.31803  -0.30912  -0.29945
  Beta  occ. eigenvalues --   -0.28810  -0.28200  -0.26936  -0.25936  -0.24975
  Beta  occ. eigenvalues --   -0.23059  -0.22491  -0.18642  -0.16813  -0.16171
  Beta  occ. eigenvalues --   -0.15010  -0.14320
  Beta virt. eigenvalues --    0.06663   0.07555   0.08179   0.08662   0.09696
  Beta virt. eigenvalues --    0.10075   0.10283   0.10701   0.11166   0.11495
  Beta virt. eigenvalues --    0.12067   0.12933   0.13353   0.14045   0.14532

 Mulliken charges and spin densities:
               1          2
     1  C   -0.235070   0.116240
     2  C    0.135062  -0.831463
     3  S    0.482628  -0.492280
     4  C    0.129618  -0.052004
     5  O   -0.353998   0.012277
     6  N    0.223456  -0.056812
     7  C   -1.175589   0.809770
     8  C    1.845009  -2.201670
     9  O   -0.342110   0.047363
    10  C   -0.153465   0.053427
    11  C   -0.232442  -0.171884
    12  O   -0.281754   0.007691
    13  H   -0.073393   0.262836
    14  H   -0.312020   0.503081
    15  H    0.182778   0.027675
    16  H   -0.297109   0.551003
    17  H   -0.436567   0.484540
    18  H    0.093354   0.098913
    19  H    0.228541  -0.122998
    20  H   -0.600987   0.768981
    21  H   -0.524876   0.689194
    22  H   -0.204398   0.480747
    23  H    0.193929   0.018312
    24  H    0.132701  -0.030775
    25  H    0.109408   0.040247
    26  H    0.210751  -0.027757
    27  H    0.256545   0.015345
 Sum of Mulliken charges =  -1.00000   1.00000

 Dipole moment (field-independent basis, Debye):
    X=              0.4834    Y=             -3.3664    Z=             -3.7731  Tot=              5.0796
 Quadrupole moment (field-independent basis, Debye-Ang):
   XX=           -141.4533   YY=           -138.4770   ZZ=           -107.0367
   XY=              3.3929   XZ=             -2.4299   YZ=             -8.8058

 Summary of Natural Population Analysis:

                                       Natural Population
                Natural  -----------------------------------------------
    Atom  No    Charge         Core      Valence    Rydberg      Total
 -----------------------------------------------------------------------
      C    1   -0.23556      0.99958     2.22486    0.01113     3.23556
      C    2   -0.23974      0.99958     2.22958    0.01059     3.23974
      S    3   -0.02931      4.99966     3.01476    0.01488     8.02931
      C    4    0.35984      0.99963     1.61683    0.02370     2.64016
      O    5   -0.35055      0.99986     3.34498    0.00571     4.35055
      N    6   -0.24851      0.99963     2.73776    0.01113     3.74851
      C    7   -0.09499      0.99959     2.08267    0.01273     3.09499
      C    8   -0.01320      0.99959     2.00100    0.01261     3.01320
      O    9   -0.37528      0.99989     3.36803    0.00736     4.37528
      C   10   -0.09719      0.99961     2.08809    0.00950     3.09719
      C   11   -0.01521      0.99961     2.00374    0.01186     3.01521
      O   12   -0.38588      0.99990     3.37866    0.00732     4.38588
      H   13    0.11477      0.00000     0.38380    0.00143     0.38523
      H   14    0.10707      0.00000     0.39034    0.00259     0.39293
      H   15    0.11016      0.00000     0.38869    0.00115     0.38984
      H   16    0.10629      0.00000     0.39192    0.00179     0.39371
      H   17    0.06504      0.00000     0.43050    0.00446     0.43496
      H   18    0.09839      0.00000     0.40026    0.00135     0.40161
      H   19    0.11100      0.00000     0.38700    0.00200     0.38900
      H   20    0.08202      0.00000     0.41475    0.00323     0.41798
      H   21    0.08134      0.00000     0.41547    0.00319     0.41866
      H   22    0.23682      0.00000     0.25638    0.00679     0.26318
      H   23    0.10055      0.00000     0.39808    0.00137     0.39945
      H   24    0.10286      0.00000     0.39590    0.00124     0.39714
      H   25    0.08134      0.00000     0.41739    0.00128     0.41866
      H   26    0.08282      0.00000     0.41549    0.00169     0.41718
      H   27    0.24514      0.00000     0.25151    0.00335     0.25486
 =======================================================================
   * Total *    0.00000     15.99612    35.82845    0.17542    52.00000

 Normal termination of Gaussian 16 at Wed Dec  9 17:11:53 2020.
