 Gaussian 16, Revision A.03,

 -----------------------------------------------------------
 # opt freq B3LYP/6-31G(d) empiricaldispersion=gd3bj scf=xqc
 -----------------------------------------------------------

 -------------------------------
 CID_109945048_JID_5407_neutraal
 -------------------------------
 Symbolic Z-matrix:
 Charge =  0 Multiplicity = 1

 SCF Done:  E(RB3LYP) =  -709.853554571     A.U. after   15 cycles
 SCF Done:  E(RB3LYP) =  -709.857227807     A.U. after   12 cycles
 SCF Done:  E(RB3LYP) =  -709.856557662     A.U. after   12 cycles
 SCF Done:  E(RB3LYP) =  -709.854299278     A.U. after   13 cycles
 SCF Done:  E(RB3LYP) =  -709.853920667     A.U. after   12 cycles
 SCF Done:  E(RB3LYP) =  -709.857503493     A.U. after   10 cycles
 SCF Done:  E(RB3LYP) =  -709.858760501     A.U. after   12 cycles
 SCF Done:  E(RB3LYP) =  -709.859079690     A.U. after   12 cycles
 SCF Done:  E(RB3LYP) =  -709.859207032     A.U. after   12 cycles
 SCF Done:  E(RB3LYP) =  -709.859395795     A.U. after   10 cycles
 SCF Done:  E(RB3LYP) =  -709.859991335     A.U. after   11 cycles
 SCF Done:  E(RB3LYP) =  -709.859986288     A.U. after   11 cycles
 SCF Done:  E(RB3LYP) =  -709.859992751     A.U. after   10 cycles
 SCF Done:  E(RB3LYP) =  -709.859992695     A.U. after    7 cycles
 SCF Done:  E(RB3LYP) =  -709.859992848     A.U. after    8 cycles
 Optimization completed.
    -- Stationary point found.
 Normal termination of Gaussian 16 at Thu Dec 10 16:02:16 2020.

 --------------------------------------------------------------------
 #N Geom=AllCheck Guess=TCheck SCRF=Check GenChk RB3LYP/6-31G(d) Freq
 --------------------------------------------------------------------

 Structure from the checkpoint file:  "JID_5407.chk"
 -------------------------------
 CID_109945048_JID_5407_neutraal
 -------------------------------
 Charge =  0 Multiplicity = 1

 SCF Done:  E(RB3LYP) =  -709.859992848     A.U. after    1 cycles

  Exact polarizability: 155.988  -1.035 122.708   4.303   1.030 100.202
 Approx polarizability: 205.218   6.663 182.195   5.737   4.279 161.147

                      1                      2                      3
                      A                      A                      A
 Frequencies --     32.1272                41.0958                50.9516
 Red. masses --      4.3720                 5.1544                 4.9943
 Frc consts  --      0.0027                 0.0051                 0.0076
 IR Inten    --      0.4644                 0.4178                 0.7023

                      4                      5                      6
                      A                      A                      A
 Frequencies --     79.0009               103.7018               123.6743
 Red. masses --      3.1731                 4.9811                 4.5906
 Frc consts  --      0.0117                 0.0316                 0.0414
 IR Inten    --      0.1034                 3.9302                 1.7547

                      7                      8                      9
                      A                      A                      A
 Frequencies --    146.3829               181.3485               196.7678
 Red. masses --      2.9928                 1.2466                 3.9591
 Frc consts  --      0.0378                 0.0242                 0.0903
 IR Inten    --      1.8736                 1.2213                 0.6585

                     10                     11                     12
                      A                      A                      A
 Frequencies --    214.1471               246.8931               271.0964
 Red. masses --      1.1711                 1.6210                 2.6247
 Frc consts  --      0.0316                 0.0582                 0.1137
 IR Inten    --      0.6290                 1.8578                 0.5539

                     13                     14                     15
                      A                      A                      A
 Frequencies --    284.0741               290.7756               341.0060
 Red. masses --      1.4277                 3.2811                 2.9736
 Frc consts  --      0.0679                 0.1635                 0.2037
 IR Inten    --      0.5920                 3.4163                 1.7722

                     16                     17                     18
                      A                      A                      A
 Frequencies --    358.8939               363.3378               382.0276
 Red. masses --      4.1950                 3.4591                 1.8266
 Frc consts  --      0.3184                 0.2691                 0.1571
 IR Inten    --      3.1679                 7.0502                62.9098

                     19                     20                     21
                      A                      A                      A
 Frequencies --    401.2638               410.1245               536.7992
 Red. masses --      2.3813                 1.4651                 4.2383
 Frc consts  --      0.2259                 0.1452                 0.7196
 IR Inten    --      9.5602               127.0427                27.1526

                     22                     23                     24
                      A                      A                      A
 Frequencies --    554.6272               611.8957               614.3908
 Red. masses --      3.9612                 3.2942                 3.4564
 Frc consts  --      0.7179                 0.7267                 0.7687
 IR Inten    --      3.1538                 9.7045                 6.0590

                     25                     26                     27
                      A                      A                      A
 Frequencies --    686.0379               705.7502               708.8033
 Red. masses --      2.4366                 2.7853                 2.9879
 Frc consts  --      0.6757                 0.8174                 0.8844
 IR Inten    --      5.0740                29.0769                13.5393

                     28                     29                     30
                      A                      A                      A
 Frequencies --    743.5380               780.7469               798.0067
 Red. masses --      1.3884                 2.9481                 3.1706
 Frc consts  --      0.4522                 1.0588                 1.1896
 IR Inten    --     42.7107                40.0663                 0.4031

                     31                     32                     33
                      A                      A                      A
 Frequencies --    835.1693               868.4553               890.2964
 Red. masses --      1.2606                 2.3345                 1.3506
 Frc consts  --      0.5180                 1.0374                 0.6307
 IR Inten    --     12.5889                 2.6799                 4.1060

                     34                     35                     36
                      A                      A                      A
 Frequencies --    906.8911               932.5465               950.3393
 Red. masses --      5.4524                 3.3310                 1.8091
 Frc consts  --      2.6421                 1.7068                 0.9627
 IR Inten    --     10.7574                 2.3688                21.3964

                     37                     38                     39
                      A                      A                      A
 Frequencies --    950.7265               956.5186               981.2831
 Red. masses --      2.1683                 1.7571                 1.2138
 Frc consts  --      1.1547                 0.9472                 0.6886
 IR Inten    --     40.7494                 5.4317                 0.9551

                     40                     41                     42
                      A                      A                      A
 Frequencies --   1032.9852              1040.1763              1061.5439
 Red. masses --      1.5573                 1.3893                 1.4195
 Frc consts  --      0.9791                 0.8856                 0.9425
 IR Inten    --      1.4982                25.2181                 3.9901

                     43                     44                     45
                      A                      A                      A
 Frequencies --   1063.1706              1089.4624              1120.2440
 Red. masses --      1.4071                 3.4755                 3.3904
 Frc consts  --      0.9371                 2.4305                 2.5068
 IR Inten    --      3.1862                51.8343                 9.4988

                     46                     47                     48
                      A                      A                      A
 Frequencies --   1138.4398              1175.1670              1216.2614
 Red. masses --      4.0938                 1.8109                 3.2644
 Frc consts  --      3.1261                 1.4735                 2.8451
 IR Inten    --     20.3879                20.9131                23.8431

                     49                     50                     51
                      A                      A                      A
 Frequencies --   1227.8660              1241.4112              1244.8543
 Red. masses --      1.3673                 2.1587                 2.6066
 Frc consts  --      1.2146                 1.9600                 2.3799
 IR Inten    --     34.5367               109.0246                10.8088

                     52                     53                     54
                      A                      A                      A
 Frequencies --   1255.7965              1273.2449              1327.9004
 Red. masses --      2.6389                 1.5229                 1.4652
 Frc consts  --      2.4520                 1.4546                 1.5222
 IR Inten    --      3.5617                13.5603                 8.0192

                     55                     56                     57
                      A                      A                      A
 Frequencies --   1350.5982              1364.7276              1413.8751
 Red. masses --      1.7411                 3.3758                 1.2915
 Frc consts  --      1.8712                 3.7044                 1.5211
 IR Inten    --      2.1894               211.6730                22.2608

                     58                     59                     60
                      A                      A                      A
 Frequencies --   1430.8874              1431.5925              1435.4864
 Red. masses --      1.2919                 1.2732                 1.3046
 Frc consts  --      1.5584                 1.5374                 1.5839
 IR Inten    --      4.9901                 1.3053                32.1760

                     61                     62                     63
                      A                      A                      A
 Frequencies --   1441.7618              1463.9307              1488.8375
 Red. masses --      1.8967                 1.2277                 1.4901
 Frc consts  --      2.3229                 1.5502                 1.9461
 IR Inten    --      1.1475                11.7982                72.5554

                     64                     65                     66
                      A                      A                      A
 Frequencies --   1509.0621              1513.2389              1517.5829
 Red. masses --      1.0502                 1.0505                 1.0508
 Frc consts  --      1.4091                 1.4173                 1.4259
 IR Inten    --      0.7942                 2.7965                 0.9270

                     67                     68                     69
                      A                      A                      A
 Frequencies --   1524.6111              1533.8797              1538.4654
 Red. masses --      1.0941                 1.0623                 1.0712
 Frc consts  --      1.4983                 1.4726                 1.4938
 IR Inten    --      5.6185                 3.1720                 2.2068

                     70                     71                     72
                      A                      A                      A
 Frequencies --   1547.3943              1548.9482              1648.2090
 Red. masses --      4.1805                 1.0736                 6.2177
 Frc consts  --      5.8977                 1.5177                 9.9519
 IR Inten    --     17.3918                25.9777                 1.4233

                     73                     74                     75
                      A                      A                      A
 Frequencies --   1764.2516              3029.9040              3055.8679
 Red. masses --      8.1392                 1.0688                 1.0382
 Frc consts  --     14.9263                 5.7812                 5.7124
 IR Inten    --    304.3011                52.6670                19.9437

                     76                     77                     78
                      A                      A                      A
 Frequencies --   3056.2954              3064.1475              3116.1858
 Red. masses --      1.0382                 1.0390                 1.1022
 Frc consts  --      5.7136                 5.7474                 6.3062
 IR Inten    --     15.4517                32.1505                13.8514

                     79                     80                     81
                      A                      A                      A
 Frequencies --   3121.3063              3125.5936              3128.9907
 Red. masses --      1.1016                 1.0971                 1.1011
 Frc consts  --      6.3235                 6.3148                 6.3518
 IR Inten    --     15.7201                32.4909                43.5678

                     82                     83                     84
                      A                      A                      A
 Frequencies --   3141.9132              3146.3282              3159.6789
 Red. masses --      1.0968                 1.0986                 1.1005
 Frc consts  --      6.3789                 6.4075                 6.4731
 IR Inten    --     43.8143                10.6485                16.8277

                     85                     86                     87
                      A                      A                      A
 Frequencies --   3167.0639              3269.9747              3291.4246
 Red. masses --      1.0837                 1.0911                 1.0973
 Frc consts  --      6.4045                 6.8738                 7.0037
 IR Inten    --     18.6129                 3.6227                 0.2133

                     88                     89                     90
                      A                      A                      A
 Frequencies --   3304.6500              3556.5799              3728.1408
 Red. masses --      1.1052                 1.0748                 1.0656
 Frc consts  --      7.1111                 8.0099                 8.7259
 IR Inten    --      1.4109                16.0342                17.7860

 - Thermochemistry -
 -------------------
 Temperature   298.150 Kelvin.  Pressure   1.00000 Atm.
 Atom     1 has atomic number  6 and mass  12.00000

 Molecular mass:   211.12084 amu.
 Principal axes and moments of inertia in atomic units:
                           1         2         3
     Eigenvalues --  1984.762534547.397115383.36258
           X            0.99983   0.00847   0.01645
           Y           -0.00836   0.99994  -0.00700
           Z           -0.01651   0.00686   0.99984
 This molecule is an asymmetric top.
 Rotational symmetry number  1.
 Warning -- assumption of classical behavior for rotation
           may cause significant error
 Rotational temperatures (Kelvin)      0.04364     0.01905     0.01609
 Rotational constants (GHZ):           0.90930     0.39687     0.33524
 Zero-point vibrational energy     717588.5 (Joules/Mol)
                                  171.50776 (Kcal/Mol)
 Warning -- explicit consideration of  24 degrees of freedom as
           vibrations may cause significant error
 Vibrational temperatures:     46.22    59.13    73.31   113.66   149.20
          (Kelvin)            177.94   210.61   260.92   283.10   308.11
                              355.22   390.05   408.72   418.36   490.63
                              516.37   522.76   549.65   577.33   590.08
                              772.33   797.98   880.38   883.97   987.06
                             1015.42  1019.81  1069.79  1123.32  1148.15
                             1201.62  1249.51  1280.94  1304.81  1341.73
                             1367.33  1367.88  1376.22  1411.85  1486.24
                             1496.58  1527.32  1529.67  1567.49  1611.78
                             1637.96  1690.80  1749.93  1766.63  1786.11
                             1791.07  1806.81  1831.92  1910.55  1943.21
                             1963.54  2034.25  2058.73  2059.74  2065.34
                             2074.37  2106.27  2142.11  2171.20  2177.21
                             2183.46  2193.58  2206.91  2213.51  2226.36
                             2228.59  2371.41  2538.36  4359.36  4396.71
                             4397.33  4408.62  4483.50  4490.86  4497.03
                             4501.92  4520.51  4526.86  4546.07  4556.70
                             4704.76  4735.63  4754.65  5117.13  5363.96

 Zero-point correction=                           0.273315 (Hartree/Particle)
 Thermal correction to Energy=                    0.289223
 Thermal correction to Enthalpy=                  0.290167
 Thermal correction to Gibbs Free Energy=         0.229418
 Sum of electronic and zero-point Energies=           -709.586678
 Sum of electronic and thermal Energies=              -709.570770
 Sum of electronic and thermal Enthalpies=            -709.569826
 Sum of electronic and thermal Free Energies=         -709.630574

                     E (Thermal)             CV                S
                      KCal/Mol        Cal/Mol-Kelvin    Cal/Mol-Kelvin
 Total                  181.490             59.396            127.856
 Electronic               0.000              0.000              0.000
 Translational            0.889              2.981             41.945
 Rotational               0.889              2.981             32.252
 Vibrational            179.713             53.434             53.659
 Vibration     1          0.594              1.983              5.694
 Vibration     2          0.594              1.981              5.206
 Vibration     3          0.595              1.977              4.780
 Vibration     4          0.600              1.963              3.916
 Vibration     5          0.605              1.946              3.384
 Vibration     6          0.610              1.929              3.042
 Vibration     7          0.617              1.907              2.719
 Vibration     8          0.630              1.865              2.314
 Vibration     9          0.636              1.844              2.163
 Vibration    10          0.644              1.819              2.008
 Vibration    11          0.661              1.768              1.753
 Vibration    12          0.675              1.726              1.589
 Vibration    13          0.682              1.703              1.509
 Vibration    14          0.687              1.691              1.469
 Vibration    15          0.721              1.594              1.207
 Vibration    16          0.734              1.557              1.127
 Vibration    17          0.737              1.548              1.108
 Vibration    18          0.751              1.509              1.031
 Vibration    19          0.767              1.467              0.958
 Vibration    20          0.774              1.448              0.926
 Vibration    21          0.892              1.169              0.572
 Vibration    22          0.910              1.130              0.535
 Vibration    23          0.971              1.007              0.430
 Vibration    24          0.974              1.001              0.426

                           ! Non-Optimized Parameters !
 Normal termination of Gaussian 16 at Thu Dec 10 16:12:42 2020.

 ----------------------------------------------------------------------
 # B3LYP/6-311++G(d,p) empiricaldispersion=gd3bj scf=xqc pop=npa geom=c
 heck
 ----------------------------------------------------------------------

 ---------------------------------------
 CID_109945048_JID_5407_Energie_neutraal
 ---------------------------------------
 Structure from the checkpoint file:  "JID_5407.chk"
 Charge =  0 Multiplicity = 1

 SCF Done:  E(RB3LYP) =  -710.075036255     A.U. after   15 cycles
 Normal termination of Gaussian 16 at Thu Dec 10 16:16:51 2020.

 ----------------------------------------------------------------------
 # B3LYP/6-311++G(d,p) empiricaldispersion=gd3bj scf=xqc pop=npa geom=c
 heck
 ----------------------------------------------------------------------

 -------------------------------------
 CID_109945048_JID_5407_Energie_kation
 -------------------------------------
 Structure from the checkpoint file:  "JID_5407.chk"
 Charge =  1 Multiplicity = 2

 SCF Done:  E(UB3LYP) =  -709.768762372     A.U. after   24 cycles
 Normal termination of Gaussian 16 at Thu Dec 10 16:26:43 2020.
 Gaussian 16:  ES64L-G16RevA.03 25-Dec-2016

 ----------------------------------------------------------------------
 # B3LYP/6-311++G(d,p) empiricaldispersion=gd3bj scf=xqc pop=npa geom=c
 heck
 ----------------------------------------------------------------------

 ------------------------------------
 CID_109945048_JID_5407_Energie_anion
 ------------------------------------
 Structure from the checkpoint file:  "JID_5407.chk"
 Charge = -1 Multiplicity = 2

                         Standard orientation:
 ---------------------------------------------------------------------
 Center     Atomic      Atomic             Coordinates (Angstroms)
 Number     Number       Type             X           Y           Z
 ---------------------------------------------------------------------
      1          6           0       -3.845113   -0.660569    0.316803
      2          6           0       -2.447825   -0.365533   -0.257299
      3          6           0       -1.913952   -1.658250   -0.915442
      4          6           0       -2.587655    0.775038   -1.286409
      5          6           0       -1.535976    0.019054    0.928557
      6          8           0       -1.892447   -0.161629    2.086662
      7          7           0       -0.301978    0.608980    0.714238
      8          6           0        0.580648    0.649707   -0.464887
      9          6           0        0.894639    2.113930   -0.814982
     10          8           0        1.429614    2.831605    0.285627
     11          6           0        1.816102   -0.154487   -0.217283
     12          6           0        3.065247    0.142089    0.243905
     13          6           0        3.777467   -1.101965    0.320719
     14          6           0        2.908040   -2.063720   -0.092297
     15          8           0        1.705841   -1.506973   -0.423525
     16          1           0       -4.511312   -0.984938   -0.490567
     17          1           0       -4.274536    0.229751    0.785864
     18          1           0       -3.799498   -1.442794    1.076689
     19          1           0       -2.584267   -1.957770   -1.729230
     20          1           0       -0.907002   -1.556991   -1.327428
     21          1           0       -1.886608   -2.471301   -0.182459
     22          1           0       -2.884888    1.708541   -0.795974
     23          1           0       -1.676652    0.970218   -1.856483
     24          1           0       -3.368712    0.514831   -2.009519
     25          1           0        0.201701    0.670095    1.593633
     26          1           0        0.055815    0.206261   -1.309190
     27          1           0        1.647488    2.153369   -1.606677
     28          1           0       -0.025806    2.588490   -1.183760
     29          1           0        0.720154    2.890451    0.945984
     30          1           0        3.419319    1.129058    0.501744
     31          1           0        4.798699   -1.252038    0.641201
     32          1           0        2.976156   -3.133867   -0.211904
 ---------------------------------------------------------------------

 SCF Done:  E(UB3LYP) =  -710.061937441     A.U. after   33 cycles
 SCF Done:  E(UB3LYP) =  -710.061937441     a.u. after    1 cycles

 The electronic state is 2-A.
 Alpha  occ. eigenvalues --  -19.10258 -19.04272 -18.99882 -14.24838 -10.18382
 Alpha  occ. eigenvalues --  -10.14140 -10.13965 -10.13448 -10.13431 -10.10570
 Alpha  occ. eigenvalues --  -10.08569 -10.08426 -10.07187 -10.07159 -10.06404
 Alpha  occ. eigenvalues --   -1.02571  -0.95260  -0.94534  -0.83472  -0.72901
 Alpha  occ. eigenvalues --   -0.71656  -0.69764  -0.63635  -0.60214  -0.59402
 Alpha  occ. eigenvalues --   -0.56283  -0.53663  -0.51412  -0.47839  -0.46315
 Alpha  occ. eigenvalues --   -0.45727  -0.42358  -0.39964  -0.39014  -0.37422
 Alpha  occ. eigenvalues --   -0.36754  -0.35760  -0.34914  -0.34338  -0.33975
 Alpha  occ. eigenvalues --   -0.32666  -0.32129  -0.31531  -0.30643  -0.29621
 Alpha  occ. eigenvalues --   -0.29275  -0.28312  -0.27668  -0.26576  -0.25689
 Alpha  occ. eigenvalues --   -0.24492  -0.23966  -0.20924  -0.19715  -0.17799
 Alpha  occ. eigenvalues --   -0.16318  -0.14192   0.04168
 Alpha virt. eigenvalues --    0.05888   0.06670   0.07460   0.07617   0.07845
 Alpha virt. eigenvalues --    0.08376   0.09206   0.09990   0.10201   0.10533
 Alpha virt. eigenvalues --    0.10877   0.11231   0.12009   0.12766   0.12998

  Beta  occ. eigenvalues --  -19.10256 -19.04254 -18.99878 -14.24829 -10.18380
  Beta  occ. eigenvalues --  -10.14132 -10.13964 -10.13430 -10.13402 -10.10566
  Beta  occ. eigenvalues --  -10.08557 -10.08418 -10.07160 -10.07118 -10.06390
  Beta  occ. eigenvalues --   -1.02565  -0.95248  -0.94500  -0.83457  -0.72880
  Beta  occ. eigenvalues --   -0.71639  -0.69738  -0.63594  -0.60150  -0.59361
  Beta  occ. eigenvalues --   -0.56233  -0.53625  -0.51381  -0.47813  -0.46281
  Beta  occ. eigenvalues --   -0.45692  -0.42314  -0.39924  -0.38968  -0.37380
  Beta  occ. eigenvalues --   -0.36737  -0.35727  -0.34890  -0.34299  -0.33952
  Beta  occ. eigenvalues --   -0.32637  -0.32101  -0.31504  -0.30618  -0.29588
  Beta  occ. eigenvalues --   -0.29255  -0.28288  -0.27641  -0.26549  -0.25661
  Beta  occ. eigenvalues --   -0.24460  -0.23941  -0.20898  -0.19703  -0.17783
  Beta  occ. eigenvalues --   -0.16301  -0.14178
  Beta virt. eigenvalues --    0.06345   0.06959   0.07272   0.07699   0.08103
  Beta virt. eigenvalues --    0.08462   0.08956   0.09535   0.10197   0.10478
  Beta virt. eigenvalues --    0.10810   0.11194   0.11554   0.12248   0.12933

 Mulliken charges and spin densities:
               1          2
     1  C   -0.337326  -0.232369
     2  C   -1.035639   1.654871
     3  C    0.301203  -0.758824
     4  C    1.062640  -1.640336
     5  C    0.741426  -1.007224
     6  O   -0.304324   0.007771
     7  N   -0.166987  -0.000134
     8  C   -0.059811   0.124313
     9  C    1.063187  -1.941119
    10  O   -0.213988   0.000295
    11  C    1.020131  -1.358404
    12  C   -1.773662   2.154185
    13  C    1.268586  -1.823762
    14  C   -0.243151   0.311293
    15  O    0.000742   0.038237
    16  H    0.011909   0.117174
    17  H    0.014143   0.142594
    18  H    0.109881   0.061274
    19  H   -0.214060   0.372040
    20  H   -0.276011   0.428560
    21  H    0.082457   0.072579
    22  H   -0.174142   0.363333
    23  H   -0.565833   0.676815
    24  H   -0.286677   0.447072
    25  H    0.429937  -0.124255
    26  H    0.317593  -0.080620
    27  H   -0.235174   0.432923
    28  H   -0.189237   0.350390
    29  H    0.048732   0.218780
    30  H   -0.011879   0.244793
    31  H   -0.584744   0.756895
    32  H   -0.799923   0.990858
 Sum of Mulliken charges =  -1.00000   1.00000

 Dipole moment (field-independent basis, Debye):
    X=             -0.6170    Y=              0.5570    Z=              1.8783  Tot=              2.0540
 Quadrupole moment (field-independent basis, Debye-Ang):
   XX=           -164.5945   YY=           -144.1054   ZZ=           -134.0836
   XY=             10.3638   XZ=             -2.6220   YZ=              3.7818

 Summary of Natural Population Analysis:

                                       Natural Population
                Natural  -----------------------------------------------
    Atom  No    Charge         Core      Valence    Rydberg      Total
 -----------------------------------------------------------------------
      C    1   -0.27935      0.99964     2.27309    0.00662     3.27935
      C    2   -0.08262      0.99955     2.07220    0.01087     3.08262
      C    3   -0.28217      0.99962     2.27502    0.00753     3.28217
      C    4   -0.28367      0.99963     2.27570    0.00834     3.28367
      C    5    0.35914      0.99960     1.61745    0.02380     2.64086
      O    6   -0.32122      0.99988     3.31546    0.00589     4.32122
      N    7   -0.32939      0.99966     2.81771    0.01202     3.82939
      C    8   -0.05240      0.99952     2.03953    0.01336     3.05240
      C    9   -0.00554      0.99958     1.99313    0.01282     3.00554
      O   10   -0.36903      0.99990     3.36264    0.00649     4.36903
      C   11    0.14387      0.99944     1.84093    0.01576     2.85613
      C   12   -0.14319      0.99948     2.13525    0.00846     3.14319
      C   13   -0.14993      0.99957     2.14110    0.00926     3.14993
      C   14    0.06404      0.99950     1.92236    0.01410     2.93596
      O   15   -0.23504      0.99986     3.22657    0.00861     4.23504
      H   16    0.09615      0.00000     0.40297    0.00088     0.40385
      H   17    0.10309      0.00000     0.39604    0.00087     0.39691
      H   18    0.10745      0.00000     0.39164    0.00092     0.39255
      H   19    0.10170      0.00000     0.39722    0.00108     0.39830
      H   20    0.10259      0.00000     0.39551    0.00190     0.39741
      H   21    0.10341      0.00000     0.39551    0.00108     0.39659
      H   22    0.10405      0.00000     0.39432    0.00163     0.39595
      H   23    0.09813      0.00000     0.39996    0.00192     0.40187
      H   24    0.10339      0.00000     0.39524    0.00138     0.39661
      H   25    0.19482      0.00000     0.30262    0.00255     0.30518
      H   26    0.11611      0.00000     0.38077    0.00312     0.38389
      H   27    0.09214      0.00000     0.40645    0.00141     0.40786
      H   28    0.08573      0.00000     0.41244    0.00183     0.41427
      H   29    0.22989      0.00000     0.26664    0.00347     0.27011
      H   30    0.11886      0.00000     0.38011    0.00103     0.38114
      H   31    0.11037      0.00000     0.38833    0.00131     0.38963
      H   32    0.09862      0.00000     0.39942    0.00196     0.40138
 =======================================================================
   * Total *    0.00000     14.99445    41.81330    0.19225    57.00000

 Normal termination of Gaussian 16 at Thu Dec 10 16:38:14 2020.
