 Gaussian 16, Revision A.03,

 -----------------------------------------------------------
 # opt freq B3LYP/6-31G(d) empiricaldispersion=gd3bj scf=xqc
 -----------------------------------------------------------

 -----------------------------
 CID_88132980_JID_168_neutraal
 -----------------------------
 Symbolic Z-matrix:
 Charge =  0 Multiplicity = 1

 SCF Done:  E(RB3LYP) =  -407.958607606     A.U. after   14 cycles
 SCF Done:  E(RB3LYP) =  -407.959952494     A.U. after   12 cycles
 SCF Done:  E(RB3LYP) =  -407.959982735     A.U. after   12 cycles
 SCF Done:  E(RB3LYP) =  -407.960208985     A.U. after   12 cycles
 SCF Done:  E(RB3LYP) =  -407.960244022     A.U. after   11 cycles
 SCF Done:  E(RB3LYP) =  -407.960250644     A.U. after    9 cycles
 SCF Done:  E(RB3LYP) =  -407.960252840     A.U. after    9 cycles
 SCF Done:  E(RB3LYP) =  -407.960253124     A.U. after    8 cycles
 SCF Done:  E(RB3LYP) =  -407.960253173     A.U. after    7 cycles
 Optimization completed.
    -- Stationary point found.

 1\1\GINC-NODE204\FOpt\RB3LYP\6-31G(d)\C9H17N1\VSC10255\08-Dec-2020\0\\
 # opt freq B3LYP/6-31G(d) empiricaldispersion=gd3bj scf=xqc\\CID_88132
 980_JID_168_neutraal\\0,1\C,0.976001097,-0.0144118997,-0.0900012912\C,
 1.3909180138,-1.475239218,-0.2888392568\C,1.3179886313,-2.3291818575,0
 .9865085433\C,-0.0608971935,-2.3977529724,1.6581955063\C,-1.17189065,-
 2.9454773429,0.7498309965\N,-0.8545495937,-4.3054720534,0.3472817998\C
 ,-0.8182854702,-4.64882706,-0.883692565\C,-1.0822517402,-3.8699965938,
 -2.0974990674\C,-0.9550716614,-4.413446282,-3.317961754\C,-1.198076947

 Normal termination of Gaussian 16 at Tue Dec  8 10:18:33 2020.

 --------------------------------------------------------------------
 #N Geom=AllCheck Guess=TCheck SCRF=Check GenChk RB3LYP/6-31G(d) Freq
 --------------------------------------------------------------------

 Structure from the checkpoint file:  "JID_168.chk"
 -----------------------------
 CID_88132980_JID_168_neutraal
 -----------------------------
 Charge =  0 Multiplicity = 1

 SCF Done:  E(RB3LYP) =  -407.960253173     A.U. after    1 cycles

  Exact polarizability: 142.189  18.023  98.548  11.691  -2.694  82.469
 Approx polarizability: 196.332  36.021 137.940  22.279  -2.798 121.549

                      1                      2                      3
                      A                      A                      A
 Frequencies --     33.0243                40.2225                83.2853
 Red. masses --      3.5819                 2.8955                 2.0519
 Frc consts  --      0.0023                 0.0028                 0.0084
 IR Inten    --      0.7248                 0.1258                 0.2587

                      4                      5                      6
                      A                      A                      A
 Frequencies --    116.0433               136.1171               159.6834
 Red. masses --      1.6237                 3.1151                 2.0055
 Frc consts  --      0.0129                 0.0340                 0.0301
 IR Inten    --      0.0688                 0.1112                 0.0828

                      7                      8                      9
                      A                      A                      A
 Frequencies --    209.9487               214.1633               224.7881
 Red. masses --      1.7043                 1.3603                 3.2586
 Frc consts  --      0.0443                 0.0368                 0.0970
 IR Inten    --      0.4701                 0.9823                 1.1477

                     10                     11                     12
                      A                      A                      A
 Frequencies --    279.5841               330.9125               342.1960
 Red. masses --      1.4970                 2.3373                 2.5027
 Frc consts  --      0.0689                 0.1508                 0.1727
 IR Inten    --      0.1422                 1.5106                 2.3803

                     13                     14                     15
                      A                      A                      A
 Frequencies --    391.1779               463.2966               480.3065
 Red. masses --      1.9610                 3.0764                 2.3134
 Frc consts  --      0.1768                 0.3891                 0.3144
 IR Inten    --      1.2588                 1.7523                 2.7515

                     16                     17                     18
                      A                      A                      A
 Frequencies --    553.7172               639.4698               734.5510
 Red. masses --      2.3360                 3.8808                 1.2607
 Frc consts  --      0.4220                 0.9350                 0.4008
 IR Inten    --      9.2947                 6.0359                 6.6935

                     19                     20                     21
                      A                      A                      A
 Frequencies --    785.7876               811.9217               847.6458
 Red. masses --      1.8321                 1.4337                 1.7603
 Frc consts  --      0.6665                 0.5569                 0.7452
 IR Inten    --      1.2133                 0.6034                 0.5819

                     22                     23                     24
                      A                      A                      A
 Frequencies --    897.9253               917.6199               957.2235
 Red. masses --      1.8720                 2.0455                 1.5287
 Frc consts  --      0.8893                 1.0148                 0.8253
 IR Inten    --      4.3913                 2.1969                22.9510

                     25                     26                     27
                      A                      A                      A
 Frequencies --    964.6668               997.0279              1017.9099
 Red. masses --      1.5319                 1.5494                 1.1470
 Frc consts  --      0.8399                 0.9074                 0.7002
 IR Inten    --      1.5564                 2.1083                27.0906

                     28                     29                     30
                      A                      A                      A
 Frequencies --   1028.5662              1038.3973              1078.1549
 Red. masses --      1.6052                 1.8830                 1.5590
 Frc consts  --      1.0006                 1.1962                 1.0677
 IR Inten    --      0.4058                 4.5778                 0.2751

                     31                     32                     33
                      A                      A                      A
 Frequencies --   1098.5239              1111.1751              1147.5192
 Red. masses --      2.3398                 2.6043                 2.1453
 Frc consts  --      1.6636                 1.8946                 1.6644
 IR Inten    --      0.7881                 8.4840                 1.0801

                     34                     35                     36
                      A                      A                      A
 Frequencies --   1151.6483              1182.8860              1244.9310
 Red. masses --      1.7949                 2.4198                 1.2720
 Frc consts  --      1.4026                 1.9949                 1.1615
 IR Inten    --      2.9495                19.8576                 0.4010

                     37                     38                     39
                      A                      A                      A
 Frequencies --   1255.8265              1303.0483              1313.6370
 Red. masses --      1.2845                 1.2199                 1.2767
 Frc consts  --      1.1936                 1.2204                 1.2981
 IR Inten    --      1.1290                 1.1539                 3.4778

                     40                     41                     42
                      A                      A                      A
 Frequencies --   1341.6564              1347.4700              1382.4780
 Red. masses --      1.1415                 1.3664                 1.3566
 Frc consts  --      1.2106                 1.4618                 1.5276
 IR Inten    --      0.7496                 7.4467                11.9544

                     43                     44                     45
                      A                      A                      A
 Frequencies --   1398.0568              1414.2401              1420.1670
 Red. masses --      1.4122                 1.3673                 1.3591
 Frc consts  --      1.6263                 1.6112                 1.6150
 IR Inten    --      6.2081                 8.3515                 3.8372

                     46                     47                     48
                      A                      A                      A
 Frequencies --   1439.1473              1442.8234              1450.0161
 Red. masses --      1.2394                 1.2743                 1.2461
 Frc consts  --      1.5124                 1.5629                 1.5436
 IR Inten    --      1.8183                 5.6306                 0.2262

                     49                     50                     51
                      A                      A                      A
 Frequencies --   1505.5600              1506.6295              1516.6490
 Red. masses --      1.0739                 1.0452                 1.0639
 Frc consts  --      1.4342                 1.3979                 1.4419
 IR Inten    --      3.0456                 6.4842                14.3141

                     52                     53                     54
                      A                      A                      A
 Frequencies --   1519.3401              1519.9321              1531.5248
 Red. masses --      1.0910                 1.0809                 1.0628
 Frc consts  --      1.4838                 1.4713                 1.4688
 IR Inten    --      1.6404                12.7469                 9.2752

                     55                     56                     57
                      A                      A                      A
 Frequencies --   1534.2778              1543.4222              1710.2969
 Red. masses --      1.0538                 1.0819                 7.7722
 Frc consts  --      1.4616                 1.5184                13.3948
 IR Inten    --      3.9604                 4.3442                12.6586

                     58                     59                     60
                      A                      A                      A
 Frequencies --   1735.2668              3017.1512              3031.6094
 Red. masses --      6.0239                 1.0592                 1.0661
 Frc consts  --     10.6871                 5.6811                 5.7731
 IR Inten    --    122.3369                39.1787                19.1252

                     61                     62                     63
                      A                      A                      A
 Frequencies --   3034.0367              3040.2071              3042.5951
 Red. masses --      1.0377                 1.0618                 1.0403
 Frc consts  --      5.6282                 5.7823                 5.6739
 IR Inten    --     28.3714                20.0979                21.7653

                     64                     65                     66
                      A                      A                      A
 Frequencies --   3049.4298              3059.1680              3069.9780
 Red. masses --      1.0699                 1.0894                 1.0969
 Frc consts  --      5.8619                 6.0069                 6.0908
 IR Inten    --     27.7197                52.7417                16.2764

                     67                     68                     69
                      A                      A                      A
 Frequencies --   3072.9645              3080.5251              3080.8555
 Red. masses --      1.0867                 1.0995                 1.0987
 Frc consts  --      6.0459                 6.1475                 6.1442
 IR Inten    --     37.4121                21.8606                41.3608

                     70                     71                     72
                      A                      A                      A
 Frequencies --   3093.7781              3108.0070              3113.0101
 Red. masses --      1.1025                 1.1016                 1.1019
 Frc consts  --      6.2176                 6.2698                 6.2915
 IR Inten    --     64.6338                53.8731                49.8580

                     73                     74                     75
                      A                      A                      A
 Frequencies --   3122.1412              3143.7685              3194.6630
 Red. masses --      1.0978                 1.0909                 1.0882
 Frc consts  --      6.3051                 6.3526                 6.5435
 IR Inten    --      4.1807                31.7698                15.2064

 - Thermochemistry -
 -------------------
 Temperature   298.150 Kelvin.  Pressure   1.00000 Atm.
 Atom     1 has atomic number  6 and mass  12.00000

 Molecular mass:   139.13610 amu.
 Principal axes and moments of inertia in atomic units:
                           1         2         3
     Eigenvalues --  1071.681792654.125133349.79506
           X            0.99998   0.00582   0.00261
           Y           -0.00579   0.99993  -0.00998
           Z           -0.00266   0.00996   0.99995
 This molecule is an asymmetric top.
 Rotational symmetry number  1.
 Warning -- assumption of classical behavior for rotation
           may cause significant error
 Rotational temperatures (Kelvin)      0.08082     0.03263     0.02586
 Rotational constants (GHZ):           1.68403     0.67998     0.53876
 Zero-point vibrational energy     647164.0 (Joules/Mol)
                                  154.67591 (Kcal/Mol)
 Warning -- explicit consideration of  16 degrees of freedom as
           vibrations may cause significant error
 Vibrational temperatures:     47.51    57.87   119.83   166.96   195.84
          (Kelvin)            229.75   302.07   308.13   323.42   402.26
                              476.11   492.34   562.82   666.58   691.05
                              796.68   920.05  1056.86  1130.57  1168.17
                             1219.57  1291.91  1320.25  1377.23  1387.94
                             1434.50  1464.55  1479.88  1494.02  1551.22
                             1580.53  1598.73  1651.02  1656.97  1701.91
                             1791.18  1806.85  1874.80  1890.03  1930.34
                             1938.71  1989.08  2011.49  2034.78  2043.30
                             2070.61  2075.90  2086.25  2166.17  2167.70
                             2182.12  2185.99  2186.84  2203.52  2207.48
                             2220.64  2460.74  2496.66  4341.01  4361.81
                             4365.30  4374.18  4377.62  4387.45  4401.46
                             4417.01  4421.31  4432.19  4432.66  4451.26
                             4471.73  4478.93  4492.06  4523.18  4596.41

 Zero-point correction=                           0.246492 (Hartree/Particle)
 Thermal correction to Energy=                    0.258700
 Thermal correction to Enthalpy=                  0.259644
 Thermal correction to Gibbs Free Energy=         0.207206
 Sum of electronic and zero-point Energies=           -407.713761
 Sum of electronic and thermal Energies=              -407.701553
 Sum of electronic and thermal Enthalpies=            -407.700609
 Sum of electronic and thermal Free Energies=         -407.753047

                     E (Thermal)             CV                S
                      KCal/Mol        Cal/Mol-Kelvin    Cal/Mol-Kelvin
 Total                  162.337             43.838            110.366
 Electronic               0.000              0.000              0.000
 Translational            0.889              2.981             40.703
 Rotational               0.889              2.981             30.633
 Vibrational            160.559             37.877             39.030
 Vibration     1          0.594              1.983              5.639
 Vibration     2          0.594              1.981              5.248
 Vibration     3          0.600              1.961              3.812
 Vibration     4          0.608              1.936              3.165
 Vibration     5          0.614              1.917              2.858
 Vibration     6          0.622              1.892              2.554
 Vibration     7          0.642              1.826              2.044
 Vibration     8          0.644              1.819              2.008
 Vibration     9          0.649              1.803              1.920
 Vibration    10          0.680              1.711              1.536
 Vibration    11          0.713              1.614              1.256
 Vibration    12          0.721              1.591              1.202
 Vibration    13          0.759              1.489              0.996
 Vibration    14          0.821              1.331              0.757
 Vibration    15          0.837              1.294              0.709
 Vibration    16          0.909              1.132              0.537

 Optimization completed.
    -- Stationary point found.

 1\1\GINC-NODE204\Freq\RB3LYP\6-31G(d)\C9H17N1\VSC10255\08-Dec-2020\0\\
 #N Geom=AllCheck Guess=TCheck SCRF=Check GenChk RB3LYP/6-31G(d) Freq\\
 CID_88132980_JID_168_neutraal\\0,1\C,0.976001097,-0.0144118997,-0.0900
 012912\C,1.3909180138,-1.475239218,-0.2888392568\C,1.3179886313,-2.329
 1818575,0.9865085433\C,-0.0608971935,-2.3977529724,1.6581955063\C,-1.1
 7189065,-2.9454773429,0.7498309965\N,-0.8545495937,-4.3054720534,0.347
 2817998\C,-0.8182854702,-4.64882706,-0.883692565\C,-1.0822517402,-3.86
 99965938,-2.0974990674\C,-0.9550716614,-4.413446282,-3.317961754\C,-1.

 Normal termination of Gaussian 16 at Tue Dec  8 10:23:10 2020.

 ----------------------------------------------------------------------
 # B3LYP/6-311++G(d,p) empiricaldispersion=gd3bj scf=xqc pop=npa geom=c
 heck
 ----------------------------------------------------------------------

 -------------------------------------
 CID_88132980_JID_168_Energie_neutraal
 -------------------------------------
 Structure from the checkpoint file:  "JID_168.chk"
 Charge =  0 Multiplicity = 1

 SCF Done:  E(RB3LYP) =  -408.074424426     A.U. after   13 cycles
 Normal termination of Gaussian 16 at Tue Dec  8 10:25:08 2020.

 ----------------------------------------------------------------------
 # B3LYP/6-311++G(d,p) empiricaldispersion=gd3bj scf=xqc pop=npa geom=c
 heck
 ----------------------------------------------------------------------

 -----------------------------------
 CID_88132980_JID_168_Energie_kation
 -----------------------------------
 Structure from the checkpoint file:  "JID_168.chk"
 Charge =  1 Multiplicity = 2

 SCF Done:  E(UB3LYP) =  -407.754261934     A.U. after   28 cycles
 Normal termination of Gaussian 16 at Tue Dec  8 10:31:02 2020.
 Gaussian 16:  ES64L-G16RevA.03 25-Dec-2016

 ----------------------------------
 CID_88132980_JID_168_Energie_anion
 ----------------------------------
 Structure from the checkpoint file:  "JID_168.chk"
 Charge = -1 Multiplicity = 2

                         Standard orientation:
 ---------------------------------------------------------------------
 Center     Atomic      Atomic             Coordinates (Angstroms)
 Number     Number       Type             X           Y           Z
 ---------------------------------------------------------------------
      1          6           0       -2.332018    2.133999   -0.490954
      2          6           0       -1.615620    1.358902    0.618869
      3          6           0       -2.217247   -0.024895    0.909044
      4          6           0       -2.259545   -0.990656   -0.283728
      5          6           0       -0.884048   -1.278132   -0.904050
      6          7           0       -0.017414   -1.899345    0.083561
      7          6           0        1.131576   -1.415106    0.366121
      8          6           0        1.833818   -0.249434   -0.179449
      9          6           0        3.038742    0.119636    0.282057
     10          6           0        3.831204    1.291327   -0.206073
     11          1           0       -2.241671    1.631510   -1.460687
     12          1           0       -1.916488    3.141920   -0.602643
     13          1           0       -3.402312    2.236304   -0.272290
     14          1           0       -0.552367    1.256591    0.366741
     15          1           0       -1.644661    1.947768    1.545143
     16          1           0       -1.645164   -0.497275    1.716748
     17          1           0       -3.241006    0.105162    1.286752
     18          1           0       -2.691937   -1.941680    0.048852
     19          1           0       -2.916867   -0.599427   -1.070644
     20          1           0       -1.015057   -2.001329   -1.720117
     21          1           0       -0.480214   -0.360009   -1.354700
     22          1           0        1.694819   -1.951323    1.139861
     23          1           0        1.371525    0.326803   -0.976270
     24          1           0        3.491755   -0.472341    1.079588
     25          1           0        4.032407    1.997311    0.610863
     26          1           0        4.809501    0.972225   -0.590012
     27          1           0        3.308459    1.829369   -1.003133
 ---------------------------------------------------------------------

 SCF Done:  E(UB3LYP) =  -408.063444477     A.U. after   33 cycles
 SCF Done:  E(UB3LYP) =  -408.063444477     a.u. after    1 cycles

 The electronic state is 2-A.
 Alpha  occ. eigenvalues --  -14.15114 -10.06344 -10.06246 -10.05184 -10.05142
 Alpha  occ. eigenvalues --  -10.04775 -10.04714 -10.04463 -10.04105 -10.03455
 Alpha  occ. eigenvalues --   -0.77698  -0.68596  -0.67037  -0.62793  -0.58455
 Alpha  occ. eigenvalues --   -0.56032  -0.50795  -0.45863  -0.44083  -0.40955
 Alpha  occ. eigenvalues --   -0.36562  -0.35564  -0.33905  -0.32785  -0.30761
 Alpha  occ. eigenvalues --   -0.30027  -0.29137  -0.27775  -0.26786  -0.25627
 Alpha  occ. eigenvalues --   -0.25138  -0.24222  -0.23456  -0.21863  -0.20985
 Alpha  occ. eigenvalues --   -0.20129  -0.18973  -0.11903  -0.10936   0.05089
 Alpha virt. eigenvalues --    0.07244   0.07498   0.08850   0.09066   0.09931
 Alpha virt. eigenvalues --    0.10256   0.11000   0.11449   0.11603   0.12500
 Alpha virt. eigenvalues --    0.12855   0.13092   0.14017   0.14525   0.14922

  Beta  occ. eigenvalues --  -14.14855 -10.06254 -10.06235 -10.05187 -10.05139
  Beta  occ. eigenvalues --  -10.04745 -10.04708 -10.04441 -10.03777 -10.03445
  Beta  occ. eigenvalues --   -0.77284  -0.68532  -0.66643  -0.62708  -0.58286
  Beta  occ. eigenvalues --   -0.55966  -0.50718  -0.45505  -0.43823  -0.40802
  Beta  occ. eigenvalues --   -0.36466  -0.35470  -0.33783  -0.32687  -0.30632
  Beta  occ. eigenvalues --   -0.29683  -0.29088  -0.27684  -0.26658  -0.25530
  Beta  occ. eigenvalues --   -0.24963  -0.24152  -0.23316  -0.21588  -0.20951
  Beta  occ. eigenvalues --   -0.20097  -0.18349  -0.10656  -0.10554
  Beta virt. eigenvalues --    0.07381   0.08016   0.08990   0.09053   0.10138
  Beta virt. eigenvalues --    0.10369   0.10441   0.11119   0.11632   0.11925
  Beta virt. eigenvalues --    0.12751   0.12925   0.13227   0.14128   0.14608

 Mulliken charges and spin densities:
               1          2
     1  C    0.639723  -1.266625
     2  C   -0.742557   0.537934
     3  C   -0.181740   0.081985
     4  C    0.275692  -0.547124
     5  C   -0.141249  -0.174373
     6  N   -0.071076   0.158276
     7  C   -0.448608  -0.033191
     8  C    0.763053  -0.140894
     9  C   -1.111420   1.000154
    10  C    0.617028  -1.319157
    11  H   -0.161171   0.318274
    12  H   -0.240076   0.368167
    13  H   -0.167162   0.293618
    14  H    0.354719  -0.230496
    15  H   -0.029758   0.157770
    16  H    0.084960   0.045589
    17  H   -0.000989   0.138189
    18  H    0.152277  -0.001717
    19  H   -0.182628   0.305829
    20  H   -0.062591   0.239741
    21  H   -0.023983   0.053611
    22  H    0.129997  -0.011387
    23  H    0.056543   0.024308
    24  H   -0.047118   0.128247
    25  H    0.045936   0.086251
    26  H   -0.271112   0.414258
    27  H   -0.236690   0.372765
 Sum of Mulliken charges =  -1.00000   1.00000

 Dipole moment (field-independent basis, Debye):
    X=             -0.9877    Y=             -0.7335    Z=              2.7552  Tot=              3.0174
 Quadrupole moment (field-independent basis, Debye-Ang):
   XX=           -124.6460   YY=           -101.3807   ZZ=            -87.6314
   XY=              0.3444   XZ=              1.3911   YZ=              2.8023

 Summary of Natural Population Analysis:

                                       Natural Population
                Natural  -----------------------------------------------
    Atom  No    Charge         Core      Valence    Rydberg      Total
 -----------------------------------------------------------------------
      C    1   -0.28758      0.99967     2.28294    0.00497     3.28758
      C    2   -0.19547      0.99964     2.18778    0.00806     3.19547
      C    3   -0.19120      0.99963     2.18271    0.00886     3.19120
      C    4   -0.19113      0.99962     2.18175    0.00976     3.19113
      C    5   -0.10591      0.99961     2.09379    0.01251     3.10591
      N    6   -0.21391      0.99969     2.70232    0.01191     3.71391
      C    7    0.06690      0.99960     1.91929    0.01421     2.93310
      C    8   -0.15240      0.99948     2.14397    0.00895     3.15240
      C    9   -0.00373      0.99956     1.99526    0.00892     3.00373
      C   10   -0.30479      0.99966     2.29951    0.00562     3.30479
      H   11    0.09762      0.00000     0.40116    0.00122     0.40238
      H   12    0.09731      0.00000     0.40173    0.00095     0.40269
      H   13    0.09332      0.00000     0.40549    0.00119     0.40668
      H   14    0.10054      0.00000     0.39774    0.00172     0.39946
      H   15    0.09090      0.00000     0.40816    0.00094     0.40910
      H   16    0.10217      0.00000     0.39677    0.00106     0.39783
      H   17    0.09001      0.00000     0.40908    0.00091     0.40999
      H   18    0.09625      0.00000     0.40251    0.00125     0.40375
      H   19    0.09421      0.00000     0.40451    0.00128     0.40579
      H   20    0.09541      0.00000     0.40307    0.00152     0.40459
      H   21    0.07806      0.00000     0.41958    0.00236     0.42194
      H   22    0.07099      0.00000     0.42710    0.00192     0.42901
      H   23    0.09200      0.00000     0.40655    0.00145     0.40800
      H   24    0.07785      0.00000     0.42004    0.00211     0.42215
      H   25    0.09914      0.00000     0.39986    0.00100     0.40086
      H   26    0.10410      0.00000     0.39337    0.00253     0.39590
      H   27    0.09937      0.00000     0.39956    0.00107     0.40063
 =======================================================================
   * Total *    0.00000      9.99615    28.88559    0.11826    39.00000

 Normal termination of Gaussian 16 at Tue Dec  8 10:39:02 2020.
