 Gaussian 16, Revision A.03,

 -----------------------------------------------------------
 # opt freq B3LYP/6-31G(d) empiricaldispersion=gd3bj scf=xqc
 -----------------------------------------------------------

 -------------------------------
 CID_144892984_JID_3464_neutraal
 -------------------------------
 Symbolic Z-matrix:
 Charge =  0 Multiplicity = 1

 SCF Done:  E(RB3LYP) =  -537.119621703     A.U. after   14 cycles
 SCF Done:  E(RB3LYP) =  -537.121729717     A.U. after   12 cycles
 SCF Done:  E(RB3LYP) =  -537.121830138     A.U. after   11 cycles
 SCF Done:  E(RB3LYP) =  -537.121838041     A.U. after   10 cycles
 SCF Done:  E(RB3LYP) =  -537.121845297     A.U. after    9 cycles
 SCF Done:  E(RB3LYP) =  -537.121853608     A.U. after   11 cycles
 SCF Done:  E(RB3LYP) =  -537.121856473     A.U. after   11 cycles
 SCF Done:  E(RB3LYP) =  -537.121856843     A.U. after    8 cycles
 SCF Done:  E(RB3LYP) =  -537.121856980     A.U. after    7 cycles
 SCF Done:  E(RB3LYP) =  -537.121857165     A.U. after    7 cycles
 SCF Done:  E(RB3LYP) =  -537.121903673     A.U. after   10 cycles
 SCF Done:  E(RB3LYP) =  -537.121903916     A.U. after    8 cycles
 SCF Done:  E(RB3LYP) =  -537.121904050     A.U. after    7 cycles
 SCF Done:  E(RB3LYP) =  -537.121904067     A.U. after    7 cycles
 SCF Done:  E(RB3LYP) =  -537.121904078     A.U. after    6 cycles
 Optimization completed.
    -- Stationary point found.
 Normal termination of Gaussian 16 at Wed Dec  9 23:28:48 2020.

 --------------------------------------------------------------------
 #N Geom=AllCheck Guess=TCheck SCRF=Check GenChk RB3LYP/6-31G(d) Freq
 --------------------------------------------------------------------

 Structure from the checkpoint file:  "JID_3464.chk"
 -------------------------------
 CID_144892984_JID_3464_neutraal
 -------------------------------
 Charge =  0 Multiplicity = 1

 SCF Done:  E(RB3LYP) =  -537.121904078     A.U. after    1 cycles

  Exact polarizability: 199.981 -20.837 120.242  -6.865   3.691  82.745
 Approx polarizability: 267.598 -48.235 205.051 -16.517   8.932 124.695

                      1                      2                      3
                      A                      A                      A
 Frequencies --     16.8857                25.0434                35.8991
 Red. masses --      4.3065                 3.1483                 1.1728
 Frc consts  --      0.0007                 0.0012                 0.0009
 IR Inten    --      0.0314                 0.1201                 0.4880

                      4                      5                      6
                      A                      A                      A
 Frequencies --     53.6037                95.0290               124.1892
 Red. masses --      2.5625                 3.1272                 1.1365
 Frc consts  --      0.0043                 0.0166                 0.0103
 IR Inten    --      0.1452                 0.3921                 0.5419

                      7                      8                      9
                      A                      A                      A
 Frequencies --    151.5925               189.8376               216.8097
 Red. masses --      3.2679                 3.8865                 3.3719
 Frc consts  --      0.0442                 0.0825                 0.0934
 IR Inten    --      0.2127                 1.2214                 0.2883

                     10                     11                     12
                      A                      A                      A
 Frequencies --    310.1178               320.3837               371.9075
 Red. masses --      3.1859                 2.4925                 2.9681
 Frc consts  --      0.1805                 0.1507                 0.2419
 IR Inten    --      0.4753                 1.0358                 2.9280

                     13                     14                     15
                      A                      A                      A
 Frequencies --    404.7429               416.2708               458.1589
 Red. masses --      2.8048                 4.1366                 2.9803
 Frc consts  --      0.2707                 0.4223                 0.3686
 IR Inten    --      4.8212                 0.2207                 0.7466

                     16                     17                     18
                      A                      A                      A
 Frequencies --    483.2297               533.1857               588.5646
 Red. masses --      2.4573                 2.7484                 2.9864
 Frc consts  --      0.3381                 0.4603                 0.6095
 IR Inten    --      1.7628                17.7323                 9.3149

                     19                     20                     21
                      A                      A                      A
 Frequencies --    642.7131               666.8249               716.9726
 Red. masses --      2.8289                 8.7101                 1.6214
 Frc consts  --      0.6885                 2.2819                 0.4911
 IR Inten    --      2.4504                 9.7487                23.5316

                     22                     23                     24
                      A                      A                      A
 Frequencies --    771.3150               788.5814               829.0760
 Red. masses --      3.3036                 2.2162                 1.7608
 Frc consts  --      1.1580                 0.8120                 0.7131
 IR Inten    --     11.3287                14.4307                 4.7627

                     25                     26                     27
                      A                      A                      A
 Frequencies --    874.0108               923.0512               940.0634
 Red. masses --      5.4162                 2.2639                 2.4022
 Frc consts  --      2.4377                 1.1365                 1.2508
 IR Inten    --      7.3165                15.1768                 1.6172

                     28                     29                     30
                      A                      A                      A
 Frequencies --    947.6715               985.4147               995.3019
 Red. masses --      1.9038                 1.2890                 1.6567
 Frc consts  --      1.0074                 0.7374                 0.9670
 IR Inten    --     10.2313                 0.8588                 2.4418

                     31                     32                     33
                      A                      A                      A
 Frequencies --    997.6130              1021.6849              1023.6663
 Red. masses --      1.5051                 1.4153                 1.2573
 Frc consts  --      0.8825                 0.8704                 0.7762
 IR Inten    --      1.1581                 1.6365                 3.5250

                     34                     35                     36
                      A                      A                      A
 Frequencies --   1068.2181              1070.3490              1073.9014
 Red. masses --      3.8268                 1.5114                 1.8959
 Frc consts  --      2.5728                 1.0202                 1.2882
 IR Inten    --      7.5331                 0.2414                 0.1695

                     37                     38                     39
                      A                      A                      A
 Frequencies --   1081.7827              1159.8010              1223.9072
 Red. masses --      1.6492                 1.8329                 1.6556
 Frc consts  --      1.1371                 1.4527                 1.4612
 IR Inten    --      7.1574                 0.1358                 4.5908

                     40                     41                     42
                      A                      A                      A
 Frequencies --   1245.5909              1264.3030              1286.0294
 Red. masses --      2.9095                 2.8546                 1.1722
 Frc consts  --      2.6596                 2.6884                 1.1422
 IR Inten    --      4.5092                 1.9322                 1.4973

                     43                     44                     45
                      A                      A                      A
 Frequencies --   1310.2679              1319.3255              1325.3168
 Red. masses --      1.7811                 1.2477                 2.2545
 Frc consts  --      1.8016                 1.2795                 2.3332
 IR Inten    --      6.9680                 0.4920                11.2873

                     46                     47                     48
                      A                      A                      A
 Frequencies --   1338.5905              1399.8651              1432.3041
 Red. masses --      1.4600                 1.2971                 1.3432
 Frc consts  --      1.5413                 1.4976                 1.6236
 IR Inten    --      6.4274                 8.8405                 1.4027

                     49                     50                     51
                      A                      A                      A
 Frequencies --   1439.8797              1446.1543              1487.9830
 Red. masses --      1.9658                 1.2790                 1.5875
 Frc consts  --      2.4013                 1.5760                 2.0709
 IR Inten    --      3.7100                 3.6625                 1.6908

                     52                     53                     54
                      A                      A                      A
 Frequencies --   1488.9202              1508.5740              1509.0038
 Red. masses --      2.5538                 1.1873                 1.0670
 Frc consts  --      3.3356                 1.5920                 1.4315
 IR Inten    --    169.6403                31.2308                11.5060

                     55                     56                     57
                      A                      A                      A
 Frequencies --   1510.3689              1515.1308              1519.1633
 Red. masses --      1.0447                 1.1256                 1.0974
 Frc consts  --      1.4041                 1.5224                 1.4922
 IR Inten    --      5.1786                19.0253                 9.7535

                     58                     59                     60
                      A                      A                      A
 Frequencies --   1605.4532              1648.4937              1685.5965
 Red. masses --      5.4444                 5.3200                 6.0639
 Frc consts  --      8.2679                 8.5180                10.1509
 IR Inten    --     60.0786                49.5918                13.7776

                     61                     62                     63
                      A                      A                      A
 Frequencies --   1734.2967              3036.3862              3043.6997
 Red. masses --      5.6389                 1.0407                 1.0642
 Frc consts  --      9.9928                 5.6533                 5.8088
 IR Inten    --      4.0990                34.9805                25.5860

                     64                     65                     66
                      A                      A                      A
 Frequencies --   3062.2098              3078.3413              3088.3264
 Red. masses --      1.0380                 1.0997                 1.0974
 Frc consts  --      5.7348                 6.1399                 6.1666
 IR Inten    --     11.9501                21.1031                 9.1144

                     67                     68                     69
                      A                      A                      A
 Frequencies --   3117.5910              3136.9752              3152.5885
 Red. masses --      1.1001                 1.0938                 1.0908
 Frc consts  --      6.2995                 6.3416                 6.3874
 IR Inten    --     11.7372                 4.8339                31.4229

                     70                     71                     72
                      A                      A                      A
 Frequencies --   3155.7139              3162.0513              3168.7269
 Red. masses --      1.0868                 1.0853                 1.0956
 Frc consts  --      6.3769                 6.3936                 6.4814
 IR Inten    --     19.1854                 4.4720                26.2115

                     73                     74                     75
                      A                      A                      A
 Frequencies --   3169.4321              3177.9667              3187.8555
 Red. masses --      1.0973                 1.0922                 1.0919
 Frc consts  --      6.4946                 6.4989                 6.5379
 IR Inten    --      0.6268                 9.7749                50.0643

 - Thermochemistry -
 -------------------
 Temperature   298.150 Kelvin.  Pressure   1.00000 Atm.
 Atom     1 has atomic number  6 and mass  12.00000

 Molecular mass:   174.11570 amu.
 Principal axes and moments of inertia in atomic units:
                           1         2         3
     Eigenvalues --   902.175585745.822846347.02161
           X            1.00000  -0.00184   0.00145
           Y            0.00185   0.99998  -0.00655
           Z           -0.00143   0.00655   0.99998
 This molecule is an asymmetric top.
 Rotational symmetry number  1.
 Warning -- assumption of classical behavior for rotation
           may cause significant error
 Rotational temperatures (Kelvin)      0.09601     0.01507     0.01365
 Rotational constants (GHZ):           2.00043     0.31410     0.28434
 Zero-point vibrational energy     600261.3 (Joules/Mol)
                                  143.46589 (Kcal/Mol)
 Warning -- explicit consideration of  18 degrees of freedom as
           vibrations may cause significant error
 Vibrational temperatures:     24.29    36.03    51.65    77.12   136.73
          (Kelvin)            178.68   218.11   273.13   311.94   446.19
                              460.96   535.09   582.33   598.92   659.19
                              695.26   767.14   846.81   924.72   959.41
                             1031.56  1109.75  1134.59  1192.86  1257.51
                             1328.06  1352.54  1363.49  1417.79  1432.02
                             1435.34  1469.98  1472.83  1536.93  1539.99
                             1545.10  1556.44  1668.69  1760.93  1792.13
                             1819.05  1850.31  1885.18  1898.22  1906.84
                             1925.93  2014.09  2060.77  2071.67  2080.69
                             2140.88  2142.22  2170.50  2171.12  2173.08
                             2179.94  2185.74  2309.89  2371.81  2425.20
                             2495.27  4368.68  4379.21  4405.84  4429.05
                             4443.41  4485.52  4513.41  4535.87  4540.37
                             4549.49  4559.09  4560.11  4572.39  4586.61

 Zero-point correction=                           0.228627 (Hartree/Particle)
 Thermal correction to Energy=                    0.242019
 Thermal correction to Enthalpy=                  0.242963
 Thermal correction to Gibbs Free Energy=         0.185250
 Sum of electronic and zero-point Energies=           -536.893277
 Sum of electronic and thermal Energies=              -536.879885
 Sum of electronic and thermal Enthalpies=            -536.878941
 Sum of electronic and thermal Free Energies=         -536.936655

                     E (Thermal)             CV                S
                      KCal/Mol        Cal/Mol-Kelvin    Cal/Mol-Kelvin
 Total                  151.869             48.028            121.469
 Electronic               0.000              0.000              0.000
 Translational            0.889              2.981             41.371
 Rotational               0.889              2.981             31.865
 Vibrational            150.092             42.066             48.233
 Vibration     1          0.593              1.986              6.970
 Vibration     2          0.593              1.985              6.188
 Vibration     3          0.594              1.982              5.473
 Vibration     4          0.596              1.976              4.680
 Vibration     5          0.603              1.953              3.554
 Vibration     6          0.610              1.929              3.034
 Vibration     7          0.619              1.901              2.652
 Vibration     8          0.633              1.854              2.229
 Vibration     9          0.646              1.815              1.986
 Vibration    10          0.699              1.654              1.362
 Vibration    11          0.706              1.635              1.308
 Vibration    12          0.744              1.530              1.072
 Vibration    13          0.770              1.460              0.945
 Vibration    14          0.779              1.435              0.905
 Vibration    15          0.816              1.343              0.771
 Vibration    16          0.839              1.287              0.701
 Vibration    17          0.888              1.177              0.580
 Vibration    18          0.946              1.056              0.470

                           ! Non-Optimized Parameters !
 Normal termination of Gaussian 16 at Wed Dec  9 23:34:19 2020.

 ----------------------------------------------------------------------
 # B3LYP/6-311++G(d,p) empiricaldispersion=gd3bj scf=xqc pop=npa geom=c
 heck
 ----------------------------------------------------------------------

 ---------------------------------------
 CID_144892984_JID_3464_Energie_neutraal
 ---------------------------------------
 Structure from the checkpoint file:  "JID_3464.chk"
 Charge =  0 Multiplicity = 1

 SCF Done:  E(RB3LYP) =  -537.264911197     A.U. after   14 cycles
 Normal termination of Gaussian 16 at Wed Dec  9 23:36:49 2020.

 ----------------------------------------------------------------------
 # B3LYP/6-311++G(d,p) empiricaldispersion=gd3bj scf=xqc pop=npa geom=c
 heck
 ----------------------------------------------------------------------

 -------------------------------------
 CID_144892984_JID_3464_Energie_kation
 -------------------------------------
 Structure from the checkpoint file:  "JID_3464.chk"
 Charge =  1 Multiplicity = 2

 SCF Done:  E(UB3LYP) =  -536.967166973     A.U. after   27 cycles
 Normal termination of Gaussian 16 at Wed Dec  9 23:43:33 2020.
 Gaussian 16:  ES64L-G16RevA.03 25-Dec-2016

 ----------------------------------------------------------------------
 # B3LYP/6-311++G(d,p) empiricaldispersion=gd3bj scf=xqc pop=npa geom=c
 heck
 ----------------------------------------------------------------------

 ------------------------------------
 CID_144892984_JID_3464_Energie_anion
 ------------------------------------
 Structure from the checkpoint file:  "JID_3464.chk"
 Charge = -1 Multiplicity = 2

                         Standard orientation:
 ---------------------------------------------------------------------
 Center     Atomic      Atomic             Coordinates (Angstroms)
 Number     Number       Type             X           Y           Z
 ---------------------------------------------------------------------
      1          6           0        5.066545   -1.121769    0.402007
      2          6           0        4.094053   -0.774247   -0.685431
      3          6           0        2.971462   -0.037545   -0.583834
      4          6           0        2.455974    0.582945    0.626798
      5          6           0        1.322924    1.301557    0.736099
      6          6           0        0.334526    1.604056   -0.360688
      7          6           0       -0.943857    0.805447   -0.210003
      8          6           0       -2.204481    1.395277   -0.156512
      9          7           0       -3.339431    0.697685   -0.029560
     10          6           0       -3.218208   -0.634916    0.045565
     11          7           0       -2.056451   -1.313989    0.011525
     12          6           0       -0.943545   -0.590567   -0.108754
     13          6           0       -4.476031   -1.446438    0.186390
     14          1           0        4.791715   -0.704804    1.373757
     15          1           0        6.072427   -0.758376    0.152167
     16          1           0        5.147878   -2.211263    0.514422
     17          1           0        4.340017   -1.175663   -1.668033
     18          1           0        2.388036    0.101595   -1.491380
     19          1           0        3.041479    0.444927    1.532746
     20          1           0        1.047690    1.680040    1.719039
     21          1           0        0.083421    2.672823   -0.345192
     22          1           0        0.774318    1.408185   -1.344668
     23          1           0       -2.309080    2.479089   -0.217618
     24          1           0       -0.003571   -1.141256   -0.120850
     25          1           0       -4.544733   -2.183866   -0.620666
     26          1           0       -4.463453   -2.005108    1.129132
     27          1           0       -5.351148   -0.795003    0.163566
 ---------------------------------------------------------------------

 SCF Done:  E(UB3LYP) =  -537.262653918     A.U. after   33 cycles
 SCF Done:  E(UB3LYP) =  -537.262653918     a.u. after    1 cycles

 The electronic state is 2-A.
 Alpha  occ. eigenvalues --  -14.16057 -14.15157 -10.09352 -10.06068 -10.05416
 Alpha  occ. eigenvalues --  -10.04861 -10.04735 -10.04386 -10.04088 -10.03194
 Alpha  occ. eigenvalues --  -10.03008 -10.02735 -10.02610  -0.83298  -0.73325
 Alpha  occ. eigenvalues --   -0.68976  -0.66939  -0.63696  -0.60251  -0.56573
 Alpha  occ. eigenvalues --   -0.53332  -0.50757  -0.46879  -0.44570  -0.38988
 Alpha  occ. eigenvalues --   -0.37338  -0.36258  -0.35842  -0.31407  -0.31061
 Alpha  occ. eigenvalues --   -0.30191  -0.30064  -0.29209  -0.28039  -0.26036
 Alpha  occ. eigenvalues --   -0.25469  -0.25273  -0.24788  -0.24372  -0.23524
 Alpha  occ. eigenvalues --   -0.19769  -0.18269  -0.17092  -0.15690  -0.12424
 Alpha  occ. eigenvalues --   -0.10081  -0.09163   0.05559
 Alpha virt. eigenvalues --    0.07814   0.08984   0.09301   0.09699   0.09856
 Alpha virt. eigenvalues --    0.11030   0.11264   0.11347   0.12118   0.12630
 Alpha virt. eigenvalues --    0.12918   0.13234   0.13846   0.14374   0.15207

  Beta  occ. eigenvalues --  -14.15977 -14.14839 -10.09337 -10.05976 -10.05437
  Beta  occ. eigenvalues --  -10.04750 -10.04494 -10.04390 -10.04122 -10.03182
  Beta  occ. eigenvalues --  -10.02710 -10.02561 -10.02483  -0.82930  -0.72832
  Beta  occ. eigenvalues --   -0.68690  -0.66623  -0.63416  -0.60120  -0.56399
  Beta  occ. eigenvalues --   -0.53159  -0.50181  -0.46659  -0.44144  -0.38805
  Beta  occ. eigenvalues --   -0.37132  -0.36060  -0.35667  -0.31146  -0.30846
  Beta  occ. eigenvalues --   -0.29971  -0.29906  -0.29038  -0.27952  -0.25675
  Beta  occ. eigenvalues --   -0.25375  -0.25090  -0.24652  -0.23924  -0.23409
  Beta  occ. eigenvalues --   -0.19628  -0.17416  -0.15565  -0.15352  -0.11516
  Beta  occ. eigenvalues --   -0.09832  -0.07837
  Beta virt. eigenvalues --    0.07760   0.08936   0.09566   0.09703   0.10384
  Beta virt. eigenvalues --    0.11058   0.11122   0.11269   0.11808   0.12218
  Beta virt. eigenvalues --    0.12568   0.12858   0.13596   0.13830   0.14307

 Mulliken charges and spin densities:
               1          2
     1  C   -0.617181  -0.066415
     2  C   -0.278576   0.210467
     3  C    0.198631   0.009483
     4  C   -0.407948   0.037610
     5  C   -0.151935   0.282315
     6  C    0.015846  -0.067460
     7  C    0.064771  -0.063624
     8  C   -0.354563   0.304879
     9  N   -0.089087   0.022776
    10  C   -0.107134  -0.016691
    11  N   -0.095829   0.152082
    12  C   -0.276595   0.092383
    13  C   -0.489096  -0.045359
    14  H    0.113947   0.004514
    15  H    0.074017   0.042883
    16  H    0.116389   0.006522
    17  H    0.108422  -0.006703
    18  H    0.103119   0.000056
    19  H    0.058538   0.007264
    20  H    0.134636  -0.013494
    21  H    0.149662   0.022744
    22  H    0.054700   0.051732
    23  H    0.086142   0.024729
    24  H    0.210610  -0.013132
    25  H    0.117040   0.020504
    26  H    0.138311   0.000452
    27  H    0.123161  -0.000519
 Sum of Mulliken charges =  -1.00000   1.00000

 Dipole moment (field-independent basis, Debye):
    X=              1.2057    Y=             -0.1183    Z=              0.3810  Tot=              1.2700
 Quadrupole moment (field-independent basis, Debye-Ang):
   XX=           -136.5319   YY=            -97.0923   ZZ=            -86.9289
   XY=              0.7467   XZ=              0.4438   YZ=              1.0136

 Summary of Natural Population Analysis:

                                       Natural Population
                Natural  -----------------------------------------------
    Atom  No    Charge         Core      Valence    Rydberg      Total
 -----------------------------------------------------------------------
      C    1   -0.30377      0.99966     2.29929    0.00482     3.30377
      C    2   -0.03832      0.99957     2.02912    0.00963     3.03832
      C    3   -0.12118      0.99952     2.11255    0.00911     3.12118
      C    4   -0.10600      0.99951     2.09732    0.00918     3.10600
      C    5   -0.04401      0.99955     2.03518    0.00928     3.04401
      C    6   -0.21534      0.99959     2.20476    0.01100     3.21534
      C    7   -0.06025      0.99948     2.05118    0.00959     3.06025
      C    8    0.10100      0.99953     1.88517    0.01430     2.89900
      N    9   -0.25572      0.99969     2.74304    0.01300     3.75572
      C   10    0.20520      0.99964     1.77666    0.01850     2.79480
      N   11   -0.22564      0.99968     2.71186    0.01410     3.72564
      C   12    0.06134      0.99954     1.92630    0.01281     2.93866
      C   13   -0.29961      0.99963     2.29525    0.00472     3.29961
      H   14    0.09715      0.00000     0.40191    0.00094     0.40285
      H   15    0.09637      0.00000     0.40232    0.00131     0.40363
      H   16    0.09664      0.00000     0.40222    0.00114     0.40336
      H   17    0.07871      0.00000     0.41975    0.00153     0.42129
      H   18    0.09136      0.00000     0.40701    0.00163     0.40864
      H   19    0.08652      0.00000     0.41185    0.00162     0.41348
      H   20    0.08557      0.00000     0.41344    0.00099     0.41443
      H   21    0.10049      0.00000     0.39780    0.00171     0.39951
      H   22    0.10116      0.00000     0.39709    0.00174     0.39884
      H   23    0.07626      0.00000     0.42210    0.00165     0.42374
      H   24    0.09011      0.00000     0.40839    0.00149     0.40989
      H   25    0.10066      0.00000     0.39841    0.00093     0.39934
      H   26    0.10037      0.00000     0.39871    0.00092     0.39963
      H   27    0.10092      0.00000     0.39820    0.00088     0.39908
 =======================================================================
   * Total *    0.00000     12.99459    33.84689    0.15852    47.00000

 Normal termination of Gaussian 16 at Wed Dec  9 23:51:48 2020.
