 Gaussian 16, Revision A.03,

 -----------------------------------------------------------
 # opt freq B3LYP/6-31G(d) empiricaldispersion=gd3bj scf=xqc
 -----------------------------------------------------------

 ------------------------------
 CID_70541325_JID_1245_neutraal
 ------------------------------
 Symbolic Z-matrix:
 Charge =  0 Multiplicity = 1

 SCF Done:  E(RB3LYP) =  -836.026541457     A.U. after   18 cycles
 SCF Done:  E(RB3LYP) =  -836.029927117     A.U. after   13 cycles
 SCF Done:  E(RB3LYP) =  -836.030213586     A.U. after   11 cycles
 SCF Done:  E(RB3LYP) =  -836.030207910     A.U. after   10 cycles
 SCF Done:  E(RB3LYP) =  -836.030224896     A.U. after   10 cycles
 SCF Done:  E(RB3LYP) =  -836.030230709     A.U. after    9 cycles
 Optimization completed.
    -- Stationary point found.
 Normal termination of Gaussian 16 at Tue Dec  8 19:28:30 2020.

 --------------------------------------------------------------------
 #N Geom=AllCheck Guess=TCheck SCRF=Check GenChk RB3LYP/6-31G(d) Freq
 --------------------------------------------------------------------

 Structure from the checkpoint file:  "JID_1245.chk"
 ------------------------------
 CID_70541325_JID_1245_neutraal
 ------------------------------
 Charge =  0 Multiplicity = 1

 SCF Done:  E(RB3LYP) =  -836.030230709     A.U. after    1 cycles

  Exact polarizability: 199.525   5.869 103.830   0.005   0.002  39.939
 Approx polarizability: 448.379  55.042 180.585   0.008   0.008  64.270

                      1                      2                      3
                      A                      A                      A
 Frequencies --     66.2291               166.8860               196.1608
 Red. masses --      8.7991                 4.5681                 7.5750
 Frc consts  --      0.0227                 0.0750                 0.1717
 IR Inten    --      3.6590                 2.5766                 0.0759

                      4                      5                      6
                      A                      A                      A
 Frequencies --    291.1834               358.3554               387.3206
 Red. masses --      7.8950                 3.6354                14.9410
 Frc consts  --      0.3944                 0.2751                 1.3206
 IR Inten    --      4.4496                 1.2685                 0.9866

                      7                      8                      9
                      A                      A                      A
 Frequencies --    410.8448               452.8198               494.2925
 Red. masses --      4.4856                 3.3420                 7.3720
 Frc consts  --      0.4461                 0.4037                 1.0612
 IR Inten    --      0.0920                 0.2936                 8.0899

                     10                     11                     12
                      A                      A                      A
 Frequencies --    508.8787               566.6529               654.9663
 Red. masses --      6.3689                 8.6636                 2.3379
 Frc consts  --      0.9717                 1.6390                 0.5909
 IR Inten    --      1.5935                 5.6486                 4.8550

                     13                     14                     15
                      A                      A                      A
 Frequencies --    656.5261               708.3675               745.9728
 Red. masses --      7.3743                 7.8189                 1.7773
 Frc consts  --      1.8727                 2.3116                 0.5827
 IR Inten    --     23.2420                12.5138                 7.4867

                     16                     17                     18
                      A                      A                      A
 Frequencies --    772.3747               813.4124               840.0416
 Red. masses --      5.5205                 3.0687                 1.7528
 Frc consts  --      1.9404                 1.1963                 0.7288
 IR Inten    --      4.6456                26.1705                 0.9939

                     19                     20                     21
                      A                      A                      A
 Frequencies --    871.7220               882.9487               914.2570
 Red. masses --      5.2121                 1.5147                 5.9597
 Frc consts  --      2.3335                 0.6957                 2.9350
 IR Inten    --     26.3075                63.6901                 2.0774

                     22                     23                     24
                      A                      A                      A
 Frequencies --    924.9095               986.2916              1001.6475
 Red. masses --      4.7540                 1.2540                 1.2685
 Frc consts  --      2.3961                 0.7187                 0.7498
 IR Inten    --     13.8311                 0.0268                 0.3091

                     25                     26                     27
                      A                      A                      A
 Frequencies --   1130.7302              1173.7910              1219.5158
 Red. masses --      1.7326                 1.3770                 1.5866
 Frc consts  --      1.3052                 1.1178                 1.3903
 IR Inten    --     41.6775                13.2980                19.9885

                     28                     29                     30
                      A                      A                      A
 Frequencies --   1252.1999              1274.1739              1391.6559
 Red. masses --      2.1818                 1.4935                 1.5606
 Frc consts  --      2.0157                 1.4286                 1.7808
 IR Inten    --     47.2677                29.4696                 0.0476

                     31                     32                     33
                      A                      A                      A
 Frequencies --   1418.8284              1461.9457              1568.9152
 Red. masses --      1.7864                 4.7979                 8.5585
 Frc consts  --      2.1188                 6.0417                12.4122
 IR Inten    --      2.1591                25.8572                90.2643

                     34                     35                     36
                      A                      A                      A
 Frequencies --   1584.6574              1640.0625              1681.6411
 Red. masses --      8.7019                 6.8112                 6.9120
 Frc consts  --     12.8746                10.7944                11.5165
 IR Inten    --    180.8162               126.2979               114.1117

                     37                     38                     39
                      A                      A                      A
 Frequencies --   1754.4543              3179.6227              3201.1068
 Red. masses --     11.4695                 1.0897                 1.0898
 Frc consts  --     20.8007                 6.4908                 6.5795
 IR Inten    --    276.0828                10.6775                 1.9652

                     40                     41                     42
                      A                      A                      A
 Frequencies --   3209.5871              3224.6103              3229.6225
 Red. masses --      1.0870                 1.0954                 1.0954
 Frc consts  --      6.5972                 6.7106                 6.7317
 IR Inten    --      0.3542                 8.2210                 0.5273

 - Thermochemistry -
 -------------------
 Temperature   298.150 Kelvin.  Pressure   1.00000 Atm.
 Atom     1 has atomic number  6 and mass  12.00000

 Molecular mass:   163.00919 amu.
 Principal axes and moments of inertia in atomic units:
                           1         2         3
     Eigenvalues --   685.133762730.012723415.14598
           X            0.99978  -0.02074   0.00000
           Y            0.02074   0.99978   0.00000
           Z           -0.00000  -0.00000   1.00000
 This molecule is an asymmetric top.
 Rotational symmetry number  1.
 Warning -- assumption of classical behavior for rotation
           may cause significant error
 Rotational temperatures (Kelvin)      0.12642     0.03173     0.02536
 Rotational constants (GHZ):           2.63414     0.66107     0.52845
 Zero-point vibrational energy     294701.1 (Joules/Mol)
                                   70.43526 (Kcal/Mol)
 Warning -- explicit consideration of  11 degrees of freedom as
           vibrations may cause significant error
 Vibrational temperatures:     95.29   240.11   282.23   418.95   515.59
          (Kelvin)            557.27   591.11   651.51   711.18   732.16
                              815.29   942.35   944.59  1019.18  1073.29
                             1111.27  1170.32  1208.63  1254.21  1270.37
                             1315.41  1330.74  1419.05  1441.15  1626.87
                             1688.82  1754.61  1801.64  1833.25  2002.28
                             2041.38  2103.41  2257.32  2279.97  2359.68
                             2419.51  2524.27  4574.77  4605.68  4617.88
                             4639.50  4646.71

 Zero-point correction=                           0.112246 (Hartree/Particle)
 Thermal correction to Energy=                    0.120459
 Thermal correction to Enthalpy=                  0.121403
 Thermal correction to Gibbs Free Energy=         0.078464
 Sum of electronic and zero-point Energies=           -835.917985
 Sum of electronic and thermal Energies=              -835.909772
 Sum of electronic and thermal Enthalpies=            -835.908828
 Sum of electronic and thermal Free Energies=         -835.951767

                     E (Thermal)             CV                S
                      KCal/Mol        Cal/Mol-Kelvin    Cal/Mol-Kelvin
 Total                   75.589             32.413             90.373
 Electronic               0.000              0.000              0.000
 Translational            0.889              2.981             41.175
 Rotational               0.889              2.981             30.236
 Vibrational             73.812             26.451             18.963
 Vibration     1          0.598              1.970              4.262
 Vibration     2          0.624              1.883              2.470
 Vibration     3          0.636              1.845              2.169
 Vibration     4          0.687              1.690              1.467
 Vibration     5          0.733              1.558              1.129
 Vibration     6          0.756              1.497              1.010
 Vibration     7          0.775              1.447              0.924
 Vibration     8          0.811              1.355              0.787
 Vibration     9          0.850              1.263              0.673
 Vibration    10          0.864              1.230              0.636
 Vibration    11          0.923              1.103              0.511

                           ! Non-Optimized Parameters !
 Normal termination of Gaussian 16 at Tue Dec  8 19:31:21 2020.

 ----------------------------------------------------------------------
 # B3LYP/6-311++G(d,p) empiricaldispersion=gd3bj scf=xqc pop=npa geom=c
 heck
 ----------------------------------------------------------------------

 --------------------------------------
 CID_70541325_JID_1245_Energie_neutraal
 --------------------------------------
 Structure from the checkpoint file:  "JID_1245.chk"
 Charge =  0 Multiplicity = 1

 SCF Done:  E(RB3LYP) =  -836.173540100     A.U. after   22 cycles
 Normal termination of Gaussian 16 at Tue Dec  8 19:32:52 2020.

 ----------------------------------------------------------------------
 # B3LYP/6-311++G(d,p) empiricaldispersion=gd3bj scf=xqc pop=npa geom=c
 heck
 ----------------------------------------------------------------------

 ------------------------------------
 CID_70541325_JID_1245_Energie_kation
 ------------------------------------
 Structure from the checkpoint file:  "JID_1245.chk"
 Charge =  1 Multiplicity = 2

 SCF Done:  E(UB3LYP) =  -835.865012513     A.U. after   30 cycles
 Normal termination of Gaussian 16 at Tue Dec  8 19:35:22 2020.
 Gaussian 16:  ES64L-G16RevA.03 25-Dec-2016

 ----------------------------------------------------------------------
 # B3LYP/6-311++G(d,p) empiricaldispersion=gd3bj scf=xqc pop=npa geom=c
 heck
 ----------------------------------------------------------------------

 -----------------------------------
 CID_70541325_JID_1245_Energie_anion
 -----------------------------------
 Structure from the checkpoint file:  "JID_1245.chk"
 Charge = -1 Multiplicity = 2

                         Standard orientation:
 ---------------------------------------------------------------------
 Center     Atomic      Atomic             Coordinates (Angstroms)
 Number     Number       Type             X           Y           Z
 ---------------------------------------------------------------------
      1          6           0       -1.010080    1.678092   -0.000592
      2          6           0       -2.259098    1.173757   -0.000757
      3          6           0       -2.504441   -0.285951    0.000185
      4          8           0       -3.646215   -0.729108    0.001395
      5          7           0       -1.398020   -1.152054   -0.000467
      6          6           0       -0.188586   -0.656849   -0.000384
      7          6           0        0.122106    0.778113   -0.000131
      8          6           0        1.397423    1.263725    0.000324
      9         16           0        2.850569    0.334796    0.000575
     10          6           0        2.220614   -1.288139   -0.000275
     11          6           0        0.909033   -1.605169   -0.000697
     12          1           0       -0.824086    2.749713   -0.000870
     13          1           0       -3.139205    1.808326   -0.001169
     14          1           0        1.578283    2.335243    0.000520
     15          1           0        2.995082   -2.047881   -0.000415
     16          1           0        0.614862   -2.650359   -0.001189
 ---------------------------------------------------------------------

 SCF Done:  E(UB3LYP) =  -836.214578301     A.U. after   25 cycles

 The electronic state is 2-A.
 Alpha  occ. eigenvalues --  -88.74201 -18.90422 -14.13269 -10.08403 -10.08277
 Alpha  occ. eigenvalues --  -10.06451 -10.05232 -10.04793 -10.04367 -10.03764
 Alpha  occ. eigenvalues --  -10.02238  -7.82886  -5.79218  -5.78801  -5.78487
 Alpha  occ. eigenvalues --   -0.85521  -0.76929  -0.71869  -0.66755  -0.61979
 Alpha  occ. eigenvalues --   -0.60341  -0.49662  -0.48647  -0.46076  -0.39764
 Alpha  occ. eigenvalues --   -0.36758  -0.34830  -0.31915  -0.30681  -0.29079
 Alpha  occ. eigenvalues --   -0.27622  -0.26755  -0.24077  -0.23601  -0.21962
 Alpha  occ. eigenvalues --   -0.21211  -0.18320  -0.17783  -0.12329  -0.10773
 Alpha  occ. eigenvalues --   -0.08175  -0.07717   0.02200
 Alpha virt. eigenvalues --    0.08718   0.08783   0.09370   0.10979   0.12030
 Alpha virt. eigenvalues --    0.12970   0.13462   0.14528   0.14932   0.15292
 Alpha virt. eigenvalues --    0.16092   0.17653   0.17763   0.18478   0.19399

  Beta  occ. eigenvalues --  -88.74127 -18.90025 -14.13285 -10.08309 -10.08179
  Beta  occ. eigenvalues --  -10.06185 -10.05282 -10.04479 -10.04041 -10.03623
  Beta  occ. eigenvalues --  -10.02208  -7.82819  -5.79188  -5.78775  -5.78229
  Beta  occ. eigenvalues --   -0.84908  -0.76583  -0.71419  -0.66452  -0.61567
  Beta  occ. eigenvalues --   -0.59940  -0.49441  -0.47745  -0.45770  -0.39510
  Beta  occ. eigenvalues --   -0.36610  -0.34516  -0.31790  -0.30404  -0.28875
  Beta  occ. eigenvalues --   -0.26602  -0.26466  -0.23720  -0.22331  -0.21799
  Beta  occ. eigenvalues --   -0.20868  -0.17208  -0.16249  -0.11158  -0.10659
  Beta  occ. eigenvalues --   -0.07436  -0.06404
  Beta virt. eigenvalues --    0.08708   0.08927   0.09379   0.09388   0.10980
  Beta virt. eigenvalues --    0.12060   0.12970   0.13901   0.14593   0.15228
  Beta virt. eigenvalues --    0.15323   0.16181   0.17688   0.18105   0.18534

 Mulliken charges and spin densities:
               1          2
     1  C   -1.113901   0.078208
     2  C    0.052977   0.018280
     3  C   -0.025497   0.079420
     4  O   -0.419561   0.137852
     5  N   -0.105893  -0.003168
     6  C   -0.850037   0.123566
     7  C    1.014864  -0.112242
     8  C    1.500063   0.614791
     9  S   -0.696642   0.111399
    10  C   -0.024576   0.066611
    11  C   -1.173310  -0.066384
    12  H    0.063556  -0.009409
    13  H    0.152238  -0.002210
    14  H    0.252449  -0.033104
    15  H    0.207681  -0.004500
    16  H    0.165588   0.000889
 Sum of Mulliken charges =  -1.00000   1.00000

 Dipole moment (field-independent basis, Debye):
    X=              7.1066    Y=              2.5021    Z=             -0.0028  Tot=              7.5342
 Quadrupole moment (field-independent basis, Debye-Ang):
   XX=           -118.0323   YY=            -77.5719   ZZ=            -78.2362
   XY=            -12.9661   XZ=              0.0115   YZ=              0.0031

 Summary of Natural Population Analysis:

                                       Natural Population
                Natural  -----------------------------------------------
    Atom  No    Charge         Core      Valence    Rydberg      Total
 -----------------------------------------------------------------------
      C    1   -0.06171      0.99953     2.05302    0.00917     3.06171
      C    2   -0.13243      0.99951     2.12300    0.00992     3.13243
      C    3    0.30724      0.99964     1.67034    0.02278     2.69276
      O    4   -0.28197      0.99988     3.27461    0.00749     4.28197
      N    5   -0.28510      0.99966     2.77158    0.01386     3.78510
      C    6    0.15645      0.99951     1.82991    0.01413     2.84355
      C    7   -0.09928      0.99946     2.08983    0.00999     3.09928
      C    8   -0.00219      0.99947     1.99296    0.00976     3.00219
      S    9    0.20911      4.99945     2.76593    0.02551     7.79089
      C   10   -0.16099      0.99951     2.15162    0.00986     3.16099
      C   11   -0.12173      0.99951     2.11089    0.01134     3.12173
      H   12    0.08615      0.00000     0.41188    0.00197     0.41385
      H   13    0.09463      0.00000     0.40393    0.00144     0.40537
      H   14    0.08802      0.00000     0.41029    0.00169     0.41198
      H   15    0.09785      0.00000     0.40110    0.00104     0.40215
      H   16    0.10594      0.00000     0.39255    0.00152     0.39406
 =======================================================================
   * Total *   -0.00000     14.99511    26.85343    0.15146    42.00000

 Normal termination of Gaussian 16 at Tue Dec  8 19:37:25 2020.
