 Gaussian 16, Revision A.03,

 -----------------------------------------------------------
 # opt freq B3LYP/6-31G(d) empiricaldispersion=gd3bj scf=xqc
 -----------------------------------------------------------

 -------------------------------
 CID_116040076_JID_3309_neutraal
 -------------------------------
 Symbolic Z-matrix:
 Charge =  0 Multiplicity = 1

 SCF Done:  E(RB3LYP) =  -577.871721060     A.U. after   15 cycles
 SCF Done:  E(RB3LYP) =  -577.873690877     A.U. after   12 cycles
 SCF Done:  E(RB3LYP) =  -577.871990494     A.U. after   13 cycles
 SCF Done:  E(RB3LYP) =  -577.873936099     A.U. after   12 cycles
 SCF Done:  E(RB3LYP) =  -577.875002160     A.U. after   13 cycles
 SCF Done:  E(RB3LYP) =  -577.875717968     A.U. after   12 cycles
 SCF Done:  E(RB3LYP) =  -577.875825273     A.U. after   11 cycles
 SCF Done:  E(RB3LYP) =  -577.875898509     A.U. after   11 cycles
 SCF Done:  E(RB3LYP) =  -577.875941120     A.U. after   10 cycles
 SCF Done:  E(RB3LYP) =  -577.875989882     A.U. after   10 cycles
 SCF Done:  E(RB3LYP) =  -577.876072799     A.U. after    9 cycles
 SCF Done:  E(RB3LYP) =  -577.876073166     A.U. after    9 cycles
 SCF Done:  E(RB3LYP) =  -577.876073311     A.U. after    8 cycles
 SCF Done:  E(RB3LYP) =  -577.876073351     A.U. after    7 cycles
 SCF Done:  E(RB3LYP) =  -577.876073363     A.U. after    6 cycles
 Optimization completed.
    -- Stationary point found.
 Normal termination of Gaussian 16 at Wed Dec  9 23:14:45 2020.

 --------------------------------------------------------------------
 #N Geom=AllCheck Guess=TCheck SCRF=Check GenChk RB3LYP/6-31G(d) Freq
 --------------------------------------------------------------------

 Structure from the checkpoint file:  "JID_3309.chk"
 -------------------------------
 CID_116040076_JID_3309_neutraal
 -------------------------------
 Charge =  0 Multiplicity = 1

 SCF Done:  E(RB3LYP) =  -577.876073363     A.U. after    1 cycles

  Exact polarizability: 127.241   2.293 143.020   7.766   6.668  94.982
 Approx polarizability: 161.367  10.789 198.293  15.506  17.998 145.093

                      1                      2                      3
                      A                      A                      A
 Frequencies --     17.2465                28.3506                35.8521
 Red. masses --      3.1266                 3.6026                 3.6401
 Frc consts  --      0.0005                 0.0017                 0.0028
 IR Inten    --      0.4425                 1.2056                 0.9390

                      4                      5                      6
                      A                      A                      A
 Frequencies --     64.2465                70.8177                98.3352
 Red. masses --      4.3892                 3.2402                 2.7424
 Frc consts  --      0.0107                 0.0096                 0.0156
 IR Inten    --      0.6723                 1.3849                 0.5593

                      7                      8                      9
                      A                      A                      A
 Frequencies --    114.1827               150.2319               194.9169
 Red. masses --      2.4639                 3.2967                 2.0166
 Frc consts  --      0.0189                 0.0438                 0.0451
 IR Inten    --      0.8824                 0.5315                 1.7196

                     10                     11                     12
                      A                      A                      A
 Frequencies --    225.3192               236.3754               241.5765
 Red. masses --      2.0978                 1.0250                 1.3044
 Frc consts  --      0.0627                 0.0337                 0.0449
 IR Inten    --      1.1014                 0.0137                 0.0396

                     13                     14                     15
                      A                      A                      A
 Frequencies --    250.9947               285.7863               324.9383
 Red. masses --      1.4233                 2.0704                 2.2459
 Frc consts  --      0.0528                 0.0996                 0.1397
 IR Inten    --      0.7561                 0.4956                 1.2459

                     16                     17                     18
                      A                      A                      A
 Frequencies --    363.6721               394.2346               420.7307
 Red. masses --      2.8215                 2.5241                 2.8409
 Frc consts  --      0.2199                 0.2311                 0.2963
 IR Inten    --      0.1715                 0.5427                 0.9701

                     19                     20                     21
                      A                      A                      A
 Frequencies --    438.2018               458.8727               473.1167
 Red. masses --      2.5552                 2.2653                 1.8673
 Frc consts  --      0.2891                 0.2810                 0.2463
 IR Inten    --      2.5306                 4.0058                 0.8495

                     22                     23                     24
                      A                      A                      A
 Frequencies --    532.4546               564.2669               588.3399
 Red. masses --      2.9682                 2.9031                 1.3521
 Frc consts  --      0.4958                 0.5446                 0.2757
 IR Inten    --      3.5934                28.8480                56.7248

                     25                     26                     27
                      A                      A                      A
 Frequencies --    667.2426               698.5356               783.4214
 Red. masses --      1.7910                 3.1312                 1.6884
 Frc consts  --      0.4698                 0.9002                 0.6105
 IR Inten    --      5.9604                57.7057                50.4136

                     28                     29                     30
                      A                      A                      A
 Frequencies --    840.9383               880.4115               897.4092
 Red. masses --      2.3763                 1.8988                 1.7878
 Frc consts  --      0.9901                 0.8672                 0.8483
 IR Inten    --     17.1656                 7.3320                 2.8127

                     31                     32                     33
                      A                      A                      A
 Frequencies --    900.4665               931.0736               939.2825
 Red. masses --      1.8439                 2.0141                 1.3646
 Frc consts  --      0.8809                 1.0287                 0.7093
 IR Inten    --      6.6560                 1.6631                34.4474

                     34                     35                     36
                      A                      A                      A
 Frequencies --    941.7078               960.1715               979.0222
 Red. masses --      1.2633                 1.3898                 1.8041
 Frc consts  --      0.6601                 0.7549                 1.0188
 IR Inten    --      2.2600                 2.4544                 1.1858

                     37                     38                     39
                      A                      A                      A
 Frequencies --    998.8339              1028.5043              1042.8400
 Red. masses --      1.7841                 1.8909                 1.0959
 Frc consts  --      1.0487                 1.1785                 0.7022
 IR Inten    --     33.6351                 3.4334                15.8430

                     40                     41                     42
                      A                      A                      A
 Frequencies --   1054.1711              1107.5821              1127.0806
 Red. masses --      1.9073                 2.2898                 2.3648
 Frc consts  --      1.2488                 1.6550                 1.7699
 IR Inten    --      0.9974                14.9873                19.3752

                     43                     44                     45
                      A                      A                      A
 Frequencies --   1160.7547              1173.9052              1185.3674
 Red. masses --      2.1807                 2.0371                 1.8659
 Frc consts  --      1.7311                 1.6540                 1.5447
 IR Inten    --     10.0661                 8.5634                50.1824

                     46                     47                     48
                      A                      A                      A
 Frequencies --   1201.6483              1212.5169              1241.7623
 Red. masses --      1.8750                 2.5598                 1.4155
 Frc consts  --      1.5952                 2.2174                 1.2860
 IR Inten    --     14.2278                36.2469                 2.1199

                     49                     50                     51
                      A                      A                      A
 Frequencies --   1296.4967              1318.5820              1336.6192
 Red. masses --      1.4561                 1.2778                 1.2464
 Frc consts  --      1.4421                 1.3090                 1.3120
 IR Inten    --     10.9627                 3.4909                 2.1186

                     52                     53                     54
                      A                      A                      A
 Frequencies --   1352.6471              1364.5232              1382.4504
 Red. masses --      1.2836                 1.2887                 1.3492
 Frc consts  --      1.3837                 1.4138                 1.5193
 IR Inten    --     10.7822                15.3231                20.5271

                     55                     56                     57
                      A                      A                      A
 Frequencies --   1385.0731              1401.2413              1423.8530
 Red. masses --      1.4297                 1.5762                 2.0395
 Frc consts  --      1.6160                 1.8234                 2.4362
 IR Inten    --      5.0079                28.3833                86.6278

                     58                     59                     60
                      A                      A                      A
 Frequencies --   1426.8212              1434.6521              1445.9600
 Red. masses --      1.2764                 1.2396                 1.2500
 Frc consts  --      1.5310                 1.5033                 1.5398
 IR Inten    --      7.8468                 9.0247                12.8214

                     61                     62                     63
                      A                      A                      A
 Frequencies --   1473.6543              1498.5567              1501.7838
 Red. masses --      1.1744                 1.5408                 1.1946
 Frc consts  --      1.5027                 2.0386                 1.5874
 IR Inten    --      1.2214                59.7683                20.0722

                     64                     65                     66
                      A                      A                      A
 Frequencies --   1513.6890              1514.1161              1517.4872
 Red. masses --      1.0831                 1.0552                 1.0530
 Frc consts  --      1.4621                 1.4253                 1.4286
 IR Inten    --      1.1220                 0.4166                 2.8783

                     67                     68                     69
                      A                      A                      A
 Frequencies --   1524.7466              1532.0835              1532.8163
 Red. masses --      1.0687                 1.0997                 1.0858
 Frc consts  --      1.4639                 1.5209                 1.5031
 IR Inten    --      1.1923                 4.8239                 2.6586

                     70                     71                     72
                      A                      A                      A
 Frequencies --   1536.0320              1537.9670              1733.4067
 Red. masses --      1.0716                 1.1137                 4.5093
 Frc consts  --      1.4896                 1.5521                 7.9829
 IR Inten    --     19.5257                 4.0278                 7.8197

                     73                     74                     75
                      A                      A                      A
 Frequencies --   1786.2987              3007.2736              3026.2940
 Red. masses --      7.9335                 1.0684                 1.0585
 Frc consts  --     14.9151                 5.6928                 5.7117
 IR Inten    --    397.2339                20.1235                22.7576

                     76                     77                     78
                      A                      A                      A
 Frequencies --   3036.6733              3041.4910              3043.2160
 Red. masses --      1.0778                 1.0367                 1.0420
 Frc consts  --      5.8556                 5.6504                 5.6857
 IR Inten    --     20.1868                20.6804                36.1688

                     79                     80                     81
                      A                      A                      A
 Frequencies --   3046.0399              3069.5243              3078.6727
 Red. masses --      1.0379                 1.1042                 1.0942
 Frc consts  --      5.6738                 6.1295                 6.1103
 IR Inten    --     24.3511                35.9836                17.5113

                     82                     83                     84
                      A                      A                      A
 Frequencies --   3106.6665              3107.1709              3108.2678
 Red. masses --      1.1011                 1.0959                 1.1005
 Frc consts  --      6.2611                 6.2339                 6.2642
 IR Inten    --      6.3967                36.3343                43.0869

                     85                     86                     87
                      A                      A                      A
 Frequencies --   3122.8677              3123.2844              3133.3683
 Red. masses --      1.1028                 1.1015                 1.1029
 Frc consts  --      6.3364                 6.3306                 6.3800
 IR Inten    --     17.8035                43.6588                28.5359

                     88                     89                     90
                      A                      A                      A
 Frequencies --   3149.1118              3151.6640              3185.2364
 Red. masses --      1.0875                 1.0595                 1.0908
 Frc consts  --      6.3542                 6.2004                 6.5207
 IR Inten    --     11.4717                13.8128                 6.8525

                     91                     92                     93
                      A                      A                      A
 Frequencies --   3232.3738              3476.0928              3568.5457
 Red. masses --      1.1148                 1.0735                 1.0751
 Frc consts  --      6.8625                 7.6423                 8.0663
 IR Inten    --     23.6658                 0.2380                10.6490

 - Thermochemistry -
 -------------------
 Temperature   298.150 Kelvin.  Pressure   1.00000 Atm.
 Atom     1 has atomic number  6 and mass  12.00000

 Molecular mass:   184.15756 amu.
 Principal axes and moments of inertia in atomic units:
                           1         2         3
     Eigenvalues --  2143.132133326.469784861.43576
           X            0.99653  -0.08312  -0.00380
           Y            0.08308   0.99650  -0.00921
           Z            0.00455   0.00886   0.99995
 This molecule is an asymmetric top.
 Rotational symmetry number  1.
 Warning -- assumption of classical behavior for rotation
           may cause significant error
 Rotational temperatures (Kelvin)      0.04041     0.02604     0.01782
 Rotational constants (GHZ):           0.84210     0.54254     0.37124
 Zero-point vibrational energy     778249.2 (Joules/Mol)
                                  186.00602 (Kcal/Mol)
 Warning -- explicit consideration of  24 degrees of freedom as
           vibrations may cause significant error
 Vibrational temperatures:     24.81    40.79    51.58    92.44   101.89
          (Kelvin)            141.48   164.28   216.15   280.44   324.18
                              340.09   347.57   361.13   411.18   467.51
                              523.24   567.22   605.34   630.47   660.22
                              680.71   766.08   811.85   846.49   960.01
                             1005.04  1127.17  1209.92  1266.72  1291.17
                             1295.57  1339.61  1351.42  1354.91  1381.47
                             1408.59  1437.10  1479.79  1500.41  1516.72
                             1593.56  1621.62  1670.07  1688.99  1705.48
                             1728.90  1744.54  1786.62  1865.37  1897.15
                             1923.10  1946.16  1963.24  1989.04  1992.81
                             2016.07  2048.61  2052.88  2064.14  2080.41
                             2120.26  2156.09  2160.73  2177.86  2178.48
                             2183.33  2193.77  2204.33  2205.38  2210.01
                             2212.79  2493.99  2570.09  4326.80  4354.16
                             4369.10  4376.03  4378.51  4382.57  4416.36
                             4429.52  4469.80  4470.53  4472.10  4493.11
                             4493.71  4508.22  4530.87  4534.54  4582.84
                             4650.66  5001.32  5134.34

 Zero-point correction=                           0.296419 (Hartree/Particle)
 Thermal correction to Energy=                    0.312486
 Thermal correction to Enthalpy=                  0.313430
 Thermal correction to Gibbs Free Energy=         0.250791
 Sum of electronic and zero-point Energies=           -577.579654
 Sum of electronic and thermal Energies=              -577.563588
 Sum of electronic and thermal Enthalpies=            -577.562644
 Sum of electronic and thermal Free Energies=         -577.625282

                     E (Thermal)             CV                S
                      KCal/Mol        Cal/Mol-Kelvin    Cal/Mol-Kelvin
 Total                  196.088             57.845            131.834
 Electronic               0.000              0.000              0.000
 Translational            0.889              2.981             41.538
 Rotational               0.889              2.981             31.916
 Vibrational            194.310             51.884             58.380
 Vibration     1          0.593              1.986              6.928
 Vibration     2          0.593              1.984              5.942
 Vibration     3          0.594              1.982              5.476
 Vibration     4          0.597              1.971              4.322
 Vibration     5          0.598              1.968              4.130
 Vibration     6          0.604              1.950              3.487
 Vibration     7          0.607              1.938              3.197
 Vibration     8          0.618              1.902              2.669
 Vibration     9          0.636              1.847              2.181
 Vibration    10          0.650              1.802              1.916
 Vibration    11          0.655              1.785              1.830
 Vibration    12          0.658              1.777              1.791
 Vibration    13          0.663              1.761              1.724
 Vibration    14          0.684              1.700              1.499
 Vibration    15          0.709              1.626              1.285
 Vibration    16          0.737              1.547              1.106
 Vibration    17          0.761              1.482              0.984
 Vibration    18          0.783              1.425              0.889
 Vibration    19          0.798              1.387              0.832
 Vibration    20          0.817              1.341              0.769
 Vibration    21          0.830              1.310              0.729
 Vibration    22          0.887              1.178              0.582
 Vibration    23          0.920              1.109              0.515
 Vibration    24          0.946              1.057              0.470

 Optimization completed.
    -- Stationary point found.
 Normal termination of Gaussian 16 at Wed Dec  9 23:23:26 2020.

 ----------------------------------------------------------------------
 # B3LYP/6-311++G(d,p) empiricaldispersion=gd3bj scf=xqc pop=npa geom=c
 heck
 ----------------------------------------------------------------------

 ---------------------------------------
 CID_116040076_JID_3309_Energie_neutraal
 ---------------------------------------
 Structure from the checkpoint file:  "JID_3309.chk"
 Charge =  0 Multiplicity = 1

 SCF Done:  E(RB3LYP) =  -578.051883675     A.U. after   14 cycles
 Normal termination of Gaussian 16 at Wed Dec  9 23:26:58 2020.

 ----------------------------------------------------------------------
 # B3LYP/6-311++G(d,p) empiricaldispersion=gd3bj scf=xqc pop=npa geom=c
 heck
 ----------------------------------------------------------------------

 -------------------------------------
 CID_116040076_JID_3309_Energie_kation
 -------------------------------------
 Structure from the checkpoint file:  "JID_3309.chk"
 Charge =  1 Multiplicity = 2

 SCF Done:  E(UB3LYP) =  -577.746012559     A.U. after   27 cycles
 Normal termination of Gaussian 16 at Wed Dec  9 23:35:52 2020.
 Gaussian 16:  ES64L-G16RevA.03 25-Dec-2016

 ----------------------------------------------------------------------
 # B3LYP/6-311++G(d,p) empiricaldispersion=gd3bj scf=xqc pop=npa geom=c
 heck
 ----------------------------------------------------------------------

 ------------------------------------
 CID_116040076_JID_3309_Energie_anion
 ------------------------------------
 Structure from the checkpoint file:  "JID_3309.chk"
 Charge = -1 Multiplicity = 2

                         Standard orientation:
 ---------------------------------------------------------------------
 Center     Atomic      Atomic             Coordinates (Angstroms)
 Number     Number       Type             X           Y           Z
 ---------------------------------------------------------------------
      1          6           0       -1.767605    2.185471   -0.877169
      2          6           0       -1.736604    1.099946    0.201572
      3          6           0       -2.495444    1.521613    1.465350
      4          7           0       -2.275748   -0.145631   -0.344689
      5          6           0       -1.794067   -1.416951   -0.225474
      6          8           0       -2.410659   -2.384863   -0.659068
      7          6           0       -0.430302   -1.588171    0.450015
      8          7           0        0.613601   -0.901566   -0.306846
      9          6           0        1.926305   -0.837533    0.345434
     10          6           0        2.628440   -2.195825    0.481754
     11          6           0        2.810063    0.175416   -0.410000
     12          6           0        2.197979    1.545578   -0.489248
     13          6           0        2.693550    2.632391    0.102839
     14          1           0       -2.796500    2.395030   -1.197543
     15          1           0       -1.193732    1.867973   -1.753162
     16          1           0       -1.339564    3.119226   -0.496963
     17          1           0       -0.691570    0.906041    0.444736
     18          1           0       -3.552320    1.712894    1.241387
     19          1           0       -2.449647    0.735939    2.226866
     20          1           0       -2.068383    2.438300    1.887950
     21          1           0       -3.188689   -0.104586   -0.785118
     22          1           0       -0.455824   -1.150093    1.456518
     23          1           0       -0.285752   -2.671275    0.562663
     24          1           0        0.706607   -1.338141   -1.223735
     25          1           0        1.744807   -0.430593    1.349847
     26          1           0        2.837722   -2.621246   -0.508283
     27          1           0        3.582062   -2.097672    1.013114
     28          1           0        2.010310   -2.912121    1.032742
     29          1           0        3.789129    0.227409    0.081510
     30          1           0        2.988076   -0.214428   -1.424892
     31          1           0        1.272447    1.616912   -1.056191
     32          1           0        2.204194    3.599845    0.026897
     33          1           0        3.613036    2.598274    0.684519
 ---------------------------------------------------------------------

 SCF Done:  E(UB3LYP) =  -578.038674542     A.U. after   33 cycles
 SCF Done:  E(UB3LYP) =  -578.038674542     a.u. after    1 cycles

 The electronic state is 2-A.
 Alpha  occ. eigenvalues --  -18.99060 -14.23621 -14.21175 -10.17479 -10.11555
 Alpha  occ. eigenvalues --  -10.11162 -10.10835 -10.07875 -10.07844 -10.06787
 Alpha  occ. eigenvalues --  -10.06780 -10.06764 -10.06548  -0.94078  -0.83243
 Alpha  occ. eigenvalues --   -0.81951  -0.70843  -0.68195  -0.66137  -0.60423
 Alpha  occ. eigenvalues --   -0.59640  -0.58748  -0.51818  -0.50480  -0.48712
 Alpha  occ. eigenvalues --   -0.46422  -0.41683  -0.39314  -0.38415  -0.37037
 Alpha  occ. eigenvalues --   -0.35520  -0.35012  -0.34481  -0.33381  -0.33217
 Alpha  occ. eigenvalues --   -0.31519  -0.30751  -0.30157  -0.29764  -0.29043
 Alpha  occ. eigenvalues --   -0.28450  -0.27747  -0.26039  -0.25659  -0.25216
 Alpha  occ. eigenvalues --   -0.25115  -0.24388  -0.16993  -0.16106  -0.15895
 Alpha  occ. eigenvalues --   -0.13978   0.04275
 Alpha virt. eigenvalues --    0.06058   0.07158   0.07289   0.08296   0.08511
 Alpha virt. eigenvalues --    0.09171   0.09342   0.09789   0.10322   0.10948
 Alpha virt. eigenvalues --    0.11027   0.11375   0.11638   0.11830   0.12197

  Beta  occ. eigenvalues --  -18.99053 -14.23610 -14.21165 -10.17473 -10.11550
  Beta  occ. eigenvalues --  -10.11149 -10.10820 -10.07868 -10.07828 -10.06762
  Beta  occ. eigenvalues --  -10.06747 -10.06730 -10.06505  -0.94063  -0.83224
  Beta  occ. eigenvalues --   -0.81929  -0.70817  -0.68162  -0.66104  -0.60371
  Beta  occ. eigenvalues --   -0.59571  -0.58699  -0.51757  -0.50422  -0.48677
  Beta  occ. eigenvalues --   -0.46369  -0.41652  -0.39274  -0.38381  -0.37008
  Beta  occ. eigenvalues --   -0.35479  -0.34970  -0.34440  -0.33340  -0.33187
  Beta  occ. eigenvalues --   -0.31475  -0.30719  -0.30121  -0.29724  -0.29007
  Beta  occ. eigenvalues --   -0.28411  -0.27717  -0.26009  -0.25623  -0.25170
  Beta  occ. eigenvalues --   -0.25064  -0.24349  -0.16973  -0.16089  -0.15873
  Beta  occ. eigenvalues --   -0.13960
  Beta virt. eigenvalues --    0.06422   0.07005   0.07690   0.07849   0.08819
  Beta virt. eigenvalues --    0.08997   0.09510   0.09668   0.10059   0.10500
  Beta virt. eigenvalues --    0.11199   0.11411   0.11699   0.12038   0.12134

 Mulliken charges and spin densities:
               1          2
     1  C    0.282400  -0.873095
     2  C   -1.159576   0.974446
     3  C    0.623107  -1.095429
     4  N   -0.062109   0.043734
     5  C   -0.304269   0.156106
     6  O   -0.339339   0.003449
     7  C    0.270736  -0.464429
     8  N   -0.055704   0.060926
     9  C   -1.365699   1.345651
    10  C    1.153749  -1.816392
    11  C    1.846040  -2.700705
    12  C   -1.127005   1.920763
    13  C   -0.100039  -0.628170
    14  H   -0.249790   0.382141
    15  H   -0.153155   0.313913
    16  H   -0.041587   0.204451
    17  H    1.256181  -1.013080
    18  H   -0.303635   0.453867
    19  H   -0.184415   0.331786
    20  H   -0.277211   0.425203
    21  H    0.210364   0.078467
    22  H   -0.071868   0.251859
    23  H    0.119313   0.057782
    24  H    0.253741   0.001832
    25  H   -0.070279   0.242858
    26  H   -0.050608   0.187191
    27  H   -0.433236   0.581449
    28  H   -0.127063   0.275922
    29  H    0.017833   0.130548
    30  H   -0.076689   0.220956
    31  H    0.024940   0.187078
    32  H   -0.142050   0.260169
    33  H   -0.363078   0.498754
 Sum of Mulliken charges =  -1.00000   1.00000

 Dipole moment (field-independent basis, Debye):
    X=             -0.0034    Y=             -1.3464    Z=             -2.0464  Tot=              2.4496
 Quadrupole moment (field-independent basis, Debye-Ang):
   XX=           -154.8382   YY=           -143.8926   ZZ=           -117.1828
   XY=              1.0344   XZ=             -4.5227   YZ=             -2.0528

 Summary of Natural Population Analysis:

                                       Natural Population
                Natural  -----------------------------------------------
    Atom  No    Charge         Core      Valence    Rydberg      Total
 -----------------------------------------------------------------------
      C    1   -0.28532      0.99964     2.27951    0.00616     3.28532
      C    2   -0.02468      0.99960     2.01425    0.01083     3.02468
      C    3   -0.28667      0.99964     2.28142    0.00560     3.28667
      N    4   -0.31454      0.99966     2.80428    0.01060     3.81454
      C    5    0.34169      0.99968     1.63683    0.02180     2.65831
      O    6   -0.32818      0.99988     3.32240    0.00591     4.32818
      C    7   -0.12823      0.99959     2.11847    0.01017     3.12823
      N    8   -0.34429      0.99973     2.83438    0.01018     3.84429
      C    9   -0.00579      0.99960     1.99418    0.01200     3.00579
      C   10   -0.29383      0.99965     2.28839    0.00579     3.29383
      C   11   -0.20815      0.99959     2.19779    0.01078     3.20815
      C   12   -0.08226      0.99956     2.07179    0.01091     3.08226
      C   13   -0.18980      0.99955     2.18385    0.00640     3.18980
      H   14    0.09643      0.00000     0.40238    0.00119     0.40357
      H   15    0.10198      0.00000     0.39668    0.00134     0.39802
      H   16    0.10381      0.00000     0.39479    0.00140     0.39619
      H   17    0.11089      0.00000     0.38542    0.00369     0.38911
      H   18    0.09727      0.00000     0.40135    0.00138     0.40273
      H   19    0.10065      0.00000     0.39822    0.00114     0.39935
      H   20    0.10335      0.00000     0.39545    0.00120     0.39665
      H   21    0.19116      0.00000     0.30661    0.00223     0.30884
      H   22    0.10101      0.00000     0.39741    0.00158     0.39899
      H   23    0.09584      0.00000     0.40279    0.00137     0.40416
      H   24    0.17270      0.00000     0.32497    0.00233     0.32730
      H   25    0.09149      0.00000     0.40631    0.00220     0.40851
      H   26    0.09560      0.00000     0.40328    0.00112     0.40440
      H   27    0.10372      0.00000     0.39482    0.00146     0.39628
      H   28    0.10127      0.00000     0.39773    0.00100     0.39873
      H   29    0.10313      0.00000     0.39559    0.00128     0.39687
      H   30    0.09846      0.00000     0.40029    0.00124     0.40154
      H   31    0.09701      0.00000     0.40071    0.00228     0.40299
      H   32    0.09485      0.00000     0.40394    0.00120     0.40515
      H   33    0.08943      0.00000     0.40924    0.00133     0.41057
 =======================================================================
   * Total *   -0.00000     12.99537    37.84554    0.15910    51.00000

 Normal termination of Gaussian 16 at Wed Dec  9 23:46:48 2020.
