 Gaussian 16, Revision A.03,

 -----------------------------------------------------------
 # opt freq B3LYP/6-31G(d) empiricaldispersion=gd3bj scf=xqc
 -----------------------------------------------------------

 ------------------------------
 CID_63343193_JID_9324_neutraal
 ------------------------------
 Symbolic Z-matrix:
 Charge =  0 Multiplicity = 1

 SCF Done:  E(RB3LYP) =  -1198.64981883     A.U. after   15 cycles
 SCF Done:  E(RB3LYP) =  -1198.65676402     A.U. after   13 cycles
 SCF Done:  E(RB3LYP) =  -1198.65718903     A.U. after   12 cycles
 SCF Done:  E(RB3LYP) =  -1198.65834654     A.U. after   12 cycles
 SCF Done:  E(RB3LYP) =  -1198.65855346     A.U. after   12 cycles
 SCF Done:  E(RB3LYP) =  -1198.65865555     A.U. after   11 cycles
 SCF Done:  E(RB3LYP) =  -1198.65869286     A.U. after   10 cycles
 SCF Done:  E(RB3LYP) =  -1198.65870609     A.U. after   10 cycles
 SCF Done:  E(RB3LYP) =  -1198.65871185     A.U. after    9 cycles
 SCF Done:  E(RB3LYP) =  -1198.65871850     A.U. after   10 cycles
 SCF Done:  E(RB3LYP) =  -1198.65872469     A.U. after    9 cycles
 SCF Done:  E(RB3LYP) =  -1198.65872902     A.U. after    9 cycles
 SCF Done:  E(RB3LYP) =  -1198.65873063     A.U. after    9 cycles
 SCF Done:  E(RB3LYP) =  -1198.65873080     A.U. after    8 cycles
 SCF Done:  E(RB3LYP) =  -1198.65873082     A.U. after    7 cycles
 Optimization completed.
    -- Stationary point found.
 Normal termination of Gaussian 16 at Mon Dec 14 13:29:53 2020.

 --------------------------------------------------------------------
 #N Geom=AllCheck Guess=TCheck SCRF=Check GenChk RB3LYP/6-31G(d) Freq
 --------------------------------------------------------------------

 Structure from the checkpoint file:  "JID_9324.chk"
 ------------------------------
 CID_63343193_JID_9324_neutraal
 ------------------------------
 Charge =  0 Multiplicity = 1

 SCF Done:  E(RB3LYP) =  -1198.65873082     A.U. after    1 cycles

  Exact polarizability: 238.312  13.979 167.485  10.878 -20.109 138.368
 Approx polarizability: 334.822  26.094 278.645  21.691 -55.729 228.143

                      1                      2                      3
                      A                      A                      A
 Frequencies --     21.9081                33.7040                50.1843
 Red. masses --      4.5244                 5.6172                 3.4687
 Frc consts  --      0.0013                 0.0038                 0.0051
 IR Inten    --      0.2784                 0.5709                 0.2032

                      4                      5                      6
                      A                      A                      A
 Frequencies --     75.6840                91.8167               100.3804
 Red. masses --      6.1340                 2.6743                 1.8893
 Frc consts  --      0.0207                 0.0133                 0.0112
 IR Inten    --      0.0452                 0.3467                 0.2449

                      7                      8                      9
                      A                      A                      A
 Frequencies --    120.1549               133.4353               192.9088
 Red. masses --      2.3590                 4.0040                 2.8020
 Frc consts  --      0.0201                 0.0420                 0.0614
 IR Inten    --      0.1209                 1.6260                 0.5118

                     10                     11                     12
                      A                      A                      A
 Frequencies --    198.9502               217.0543               236.2039
 Red. masses --      4.1087                 1.8867                 3.0727
 Frc consts  --      0.0958                 0.0524                 0.1010
 IR Inten    --      2.0718                 1.4072                 0.7269

                     13                     14                     15
                      A                      A                      A
 Frequencies --    243.2369               277.3599               300.3930
 Red. masses --      1.5937                 3.3164                 3.4279
 Frc consts  --      0.0556                 0.1503                 0.1822
 IR Inten    --      0.6885                 6.9134                 1.9796

                     16                     17                     18
                      A                      A                      A
 Frequencies --    320.1904               325.3512               384.6890
 Red. masses --      2.7622                 3.6111                 2.7163
 Frc consts  --      0.1668                 0.2252                 0.2368
 IR Inten    --      3.0209                 3.5998                 0.8069

                     19                     20                     21
                      A                      A                      A
 Frequencies --    391.4223               448.3861               463.4168
 Red. masses --      3.1268                 4.7546                 3.8191
 Frc consts  --      0.2823                 0.5632                 0.4832
 IR Inten    --      0.9904                 2.3555                 1.7571

                     22                     23                     24
                      A                      A                      A
 Frequencies --    470.5820               485.5702               493.3057
 Red. masses --      3.3100                 3.6015                 4.7479
 Frc consts  --      0.4319                 0.5003                 0.6807
 IR Inten    --      9.4153                 0.6659                 4.2272

                     25                     26                     27
                      A                      A                      A
 Frequencies --    546.4343               575.1634               602.4671
 Red. masses --      4.0986                 5.1671                 1.6947
 Frc consts  --      0.7211                 1.0071                 0.3624
 IR Inten    --      5.4632                 1.5482                 7.3795

                     28                     29                     30
                      A                      A                      A
 Frequencies --    627.1059               677.1934               698.1470
 Red. masses --      3.4050                 4.1116                 7.6861
 Frc consts  --      0.7890                 1.1109                 2.2073
 IR Inten    --      4.9242                 1.4877                 2.6597

                     31                     32                     33
                      A                      A                      A
 Frequencies --    721.6871               750.4821               755.8260
 Red. masses --      1.9344                 2.4832                 2.8262
 Frc consts  --      0.5936                 0.8240                 0.9512
 IR Inten    --     16.8109                34.1106                12.0663

                     34                     35                     36
                      A                      A                      A
 Frequencies --    802.0095               821.8303               838.2180
 Red. masses --      5.6825                 2.4945                 1.6250
 Frc consts  --      2.1535                 0.9926                 0.6727
 IR Inten    --     21.7726               110.3025                 0.1935

                     37                     38                     39
                      A                      A                      A
 Frequencies --    843.6582               884.7476               894.5851
 Red. masses --      5.1849                 1.6369                 1.2698
 Frc consts  --      2.1743                 0.7550                 0.5987
 IR Inten    --     20.3810                52.0147                 0.8902

                     40                     41                     42
                      A                      A                      A
 Frequencies --    898.2425               907.6662               946.4492
 Red. masses --      2.6042                 7.6403                 5.9329
 Frc consts  --      1.2380                 3.7086                 3.1312
 IR Inten    --      3.7384                14.9494                12.3118

                     43                     44                     45
                      A                      A                      A
 Frequencies --    973.1410               975.9192              1006.4676
 Red. masses --      2.5777                 2.7386                 2.9127
 Frc consts  --      1.4382                 1.5368                 1.7384
 IR Inten    --      3.7675                 2.4740                 5.6115

                     46                     47                     48
                      A                      A                      A
 Frequencies --   1029.4391              1035.1975              1046.6843
 Red. masses --      2.8689                 1.5592                 2.5076
 Frc consts  --      1.7913                 0.9845                 1.6186
 IR Inten    --      0.3886                 8.4800                19.4702

                     49                     50                     51
                      A                      A                      A
 Frequencies --   1059.5776              1070.9233              1083.7652
 Red. masses --      1.7287                 1.4928                 2.0663
 Frc consts  --      1.1435                 1.0087                 1.4299
 IR Inten    --      1.6586                 4.1858                 9.8583

                     52                     53                     54
                      A                      A                      A
 Frequencies --   1099.8757              1125.4165              1134.0899
 Red. masses --      2.8653                 1.9893                 2.0179
 Frc consts  --      2.0422                 1.4845                 1.5291
 IR Inten    --      6.7272                18.7170                19.9710

                     55                     56                     57
                      A                      A                      A
 Frequencies --   1136.1292              1143.4991              1206.1916
 Red. masses --      2.2084                 3.9399                 2.0618
 Frc consts  --      1.6795                 3.0354                 1.7674
 IR Inten    --     19.7111                19.8972                37.3757

                     58                     59                     60
                      A                      A                      A
 Frequencies --   1209.1559              1226.8025              1268.0557
 Red. masses --      2.5416                 1.2620                 1.7215
 Frc consts  --      2.1894                 1.1191                 1.6310
 IR Inten    --     16.3462                 7.9046                 0.3700

                     61                     62                     63
                      A                      A                      A
 Frequencies --   1281.5223              1294.1277              1318.0430
 Red. masses --      1.7520                 1.7719                 3.1041
 Frc consts  --      1.6952                 1.7484                 3.1772
 IR Inten    --     49.7007                38.6882                62.0921

                     64                     65                     66
                      A                      A                      A
 Frequencies --   1354.3207              1369.5622              1384.3753
 Red. masses --      1.3011                 1.2770                 1.4847
 Frc consts  --      1.4061                 1.4112                 1.6765
 IR Inten    --      3.0615                 0.7196                 4.5693

                     67                     68                     69
                      A                      A                      A
 Frequencies --   1397.5702              1398.3897              1415.7282
 Red. masses --      1.2682                 1.8096                 1.4826
 Frc consts  --      1.4594                 2.0849                 1.7508
 IR Inten    --     12.0476                34.4405                17.2612

                     70                     71                     72
                      A                      A                      A
 Frequencies --   1423.0776              1425.0617              1428.9670
 Red. masses --      2.4721                 1.7554                 1.4132
 Frc consts  --      2.9497                 2.1003                 1.7001
 IR Inten    --      1.0426                 9.8943                26.7834

                     73                     74                     75
                      A                      A                      A
 Frequencies --   1437.9278              1445.3760              1464.3259
 Red. masses --      1.2567                 1.2539                 5.5960
 Frc consts  --      1.5309                 1.5434                 7.0697
 IR Inten    --     14.6106                 8.6638                20.4299

                     76                     77                     78
                      A                      A                      A
 Frequencies --   1493.4610              1504.9288              1506.1353
 Red. masses --      1.1039                 1.1050                 1.0495
 Frc consts  --      1.4507                 1.4745                 1.4027
 IR Inten    --     10.0166                 5.6842                 7.1079

                     79                     80                     81
                      A                      A                      A
 Frequencies --   1507.1957              1511.8709              1518.4023
 Red. masses --      1.0815                 1.1660                 1.1581
 Frc consts  --      1.4475                 1.5703                 1.5732
 IR Inten    --      1.4270                 7.0448                 6.9386

                     82                     83                     84
                      A                      A                      A
 Frequencies --   1519.7915              1520.7660              1528.7129
 Red. masses --      1.0750                 1.1001                 1.0912
 Frc consts  --      1.4629                 1.4990                 1.5025
 IR Inten    --      9.4380                 1.3892                 7.7383

                     85                     86                     87
                      A                      A                      A
 Frequencies --   1545.1100              1585.8600              1622.5749
 Red. masses --      5.5064                 6.5749                10.4114
 Frc consts  --      7.7452                 9.7425                16.1499
 IR Inten    --     20.1585                51.3619               276.2219

                     88                     89                     90
                      A                      A                      A
 Frequencies --   2983.3298              2997.3523              3051.4652
 Red. masses --      1.0710                 1.0731                 1.0641
 Frc consts  --      5.6160                 5.6803                 5.8377
 IR Inten    --     60.7281                92.8026                54.4264

                     91                     92                     93
                      A                      A                      A
 Frequencies --   3056.6136              3061.2416              3069.0608
 Red. masses --      1.0627                 1.0371                 1.0358
 Frc consts  --      5.8499                 5.7259                 5.7485
 IR Inten    --     36.5565                16.3055                16.3887

                     94                     95                     96
                      A                      A                      A
 Frequencies --   3075.3781              3085.9822              3102.9181
 Red. masses --      1.0868                 1.0897                 1.1010
 Frc consts  --      6.0559                 6.1140                 6.2458
 IR Inten    --      0.6345                44.3350                39.6893

                     97                     98                     99
                      A                      A                      A
 Frequencies --   3112.8415              3114.2756              3121.6941
 Red. masses --      1.0997                 1.0941                 1.0989
 Frc consts  --      6.2783                 6.2522                 6.3093
 IR Inten    --     12.4730                45.0218                12.1027

                    100                    101                    102
                      A                      A                      A
 Frequencies --   3139.2533              3145.0687              3153.3919
 Red. masses --      1.1011                 1.1034                 1.1038
 Frc consts  --      6.3932                 6.4304                 6.4669
 IR Inten    --     23.7220                13.6097                22.7604

                    103                    104                    105
                      A                      A                      A
 Frequencies --   3223.6394              3271.4857              3442.3440
 Red. masses --      1.0913                 1.0966                 1.0733
 Frc consts  --      6.6816                 6.9150                 7.4932
 IR Inten    --      7.9843                 0.2207                 8.2506

 - Thermochemistry -
 -------------------
 Temperature   298.150 Kelvin.  Pressure   1.00000 Atm.
 Atom     1 has atomic number  6 and mass  12.00000

 Molecular mass:   278.12013 amu.
 Principal axes and moments of inertia in atomic units:
                           1         2         3
     Eigenvalues --  2823.179458383.178039333.75128
           X            0.99990   0.01282  -0.00557
           Y           -0.01286   0.99989  -0.00712
           Z            0.00548   0.00719   0.99996
 This molecule is an asymmetric top.
 Rotational symmetry number  1.
 Warning -- assumption of classical behavior for rotation
           may cause significant error
 Rotational temperatures (Kelvin)      0.03068     0.01033     0.00928
 Rotational constants (GHZ):           0.63926     0.21528     0.19336
 Zero-point vibrational energy     808131.6 (Joules/Mol)
                                  193.14809 (Kcal/Mol)
 Warning -- explicit consideration of  27 degrees of freedom as
           vibrations may cause significant error
 Vibrational temperatures:     31.52    48.49    72.20   108.89   132.10
          (Kelvin)            144.42   172.88   191.98   277.55   286.24
                              312.29   339.84   349.96   399.06   432.20
                              460.68   468.11   553.48   563.17   645.13
                              666.75   677.06   698.63   709.76   786.20
                              827.53   866.82   902.27   974.33  1004.48
                             1038.35  1079.78  1087.47  1153.91  1182.43
                             1206.01  1213.84  1272.95  1287.11  1292.37
                             1305.93  1361.73  1400.13  1404.13  1448.08
                             1481.13  1489.42  1505.95  1524.50  1540.82
                             1559.30  1582.48  1619.22  1631.70  1634.64
                             1645.24  1735.44  1739.71  1765.10  1824.45
                             1843.82  1861.96  1896.37  1948.57  1970.49
                             1991.81  2010.79  2011.97  2036.92  2047.49
                             2050.35  2055.96  2068.86  2079.57  2106.84
                             2148.76  2165.26  2166.99  2168.52  2175.24
                             2184.64  2186.64  2188.04  2199.48  2223.07
                             2281.70  2334.52  4292.35  4312.52  4390.38
                             4397.79  4404.44  4415.69  4424.78  4440.04
                             4464.41  4478.68  4480.75  4491.42  4516.69
                             4525.05  4537.03  4638.10  4706.94  4952.77

 Zero-point correction=                           0.307801 (Hartree/Particle)
 Thermal correction to Energy=                    0.325451
 Thermal correction to Enthalpy=                  0.326395
 Thermal correction to Gibbs Free Energy=         0.260845
 Sum of electronic and zero-point Energies=          -1198.350930
 Sum of electronic and thermal Energies=             -1198.333280
 Sum of electronic and thermal Enthalpies=           -1198.332336
 Sum of electronic and thermal Free Energies=        -1198.397886

                     E (Thermal)             CV                S
                      KCal/Mol        Cal/Mol-Kelvin    Cal/Mol-Kelvin
 Total                  204.224             67.617            137.962
 Electronic               0.000              0.000              0.000
 Translational            0.889              2.981             42.767
 Rotational               0.889              2.981             33.757
 Vibrational            202.446             61.656             61.438
 Vibration     1          0.593              1.985              6.453
 Vibration     2          0.594              1.983              5.599
 Vibration     3          0.595              1.978              4.810
 Vibration     4          0.599              1.965              4.000
 Vibration     5          0.602              1.955              3.621
 Vibration     6          0.604              1.949              3.447
 Vibration     7          0.609              1.932              3.098
 Vibration     8          0.613              1.920              2.896
 Vibration     9          0.635              1.850              2.200
 Vibration    10          0.637              1.841              2.143
 Vibration    11          0.646              1.815              1.984
 Vibration    12          0.655              1.785              1.831
 Vibration    13          0.659              1.774              1.779
 Vibration    14          0.678              1.715              1.550
 Vibration    15          0.693              1.673              1.415
 Vibration    16          0.706              1.635              1.309
 Vibration    17          0.709              1.625              1.283
 Vibration    18          0.754              1.503              1.021
 Vibration    19          0.759              1.489              0.995
 Vibration    20          0.807              1.364              0.801
 Vibration    21          0.821              1.331              0.756
 Vibration    22          0.828              1.315              0.736
 Vibration    23          0.842              1.282              0.695
 Vibration    24          0.849              1.265              0.675
 Vibration    25          0.902              1.147              0.552
 Vibration    26          0.932              1.085              0.494
 Vibration    27          0.961              1.027              0.445

 Optimization completed.
    -- Stationary point found.
 Normal termination of Gaussian 16 at Mon Dec 14 13:51:31 2020.

 ----------------------------------------------------------------------
 # B3LYP/6-311++G(d,p) empiricaldispersion=gd3bj scf=xqc pop=npa geom=c
 heck
 ----------------------------------------------------------------------

 --------------------------------------
 CID_63343193_JID_9324_Energie_neutraal
 --------------------------------------
 Structure from the checkpoint file:  "JID_9324.chk"
 Charge =  0 Multiplicity = 1

 SCF Done:  E(RB3LYP) =  -1198.89678163     A.U. after   17 cycles
 Normal termination of Gaussian 16 at Mon Dec 14 14:02:09 2020.

 ----------------------------------------------------------------------
 # B3LYP/6-311++G(d,p) empiricaldispersion=gd3bj scf=xqc pop=npa geom=c
 heck
 ----------------------------------------------------------------------

 ------------------------------------
 CID_63343193_JID_9324_Energie_kation
 ------------------------------------
 Structure from the checkpoint file:  "JID_9324.chk"
 Charge =  1 Multiplicity = 2

 SCF Done:  E(UB3LYP) =  -1198.63507677     A.U. after   26 cycles
 Normal termination of Gaussian 16 at Mon Dec 14 14:25:16 2020.
 Gaussian 16:  ES64L-G16RevA.03 25-Dec-2016

 ----------------------------------------------------------------------
 # B3LYP/6-311++G(d,p) empiricaldispersion=gd3bj scf=xqc pop=npa geom=c
 heck
 ----------------------------------------------------------------------

 -----------------------------------
 CID_63343193_JID_9324_Energie_anion
 -----------------------------------
 Structure from the checkpoint file:  "JID_9324.chk"
 Charge = -1 Multiplicity = 2

                         Standard orientation:
 ---------------------------------------------------------------------
 Center     Atomic      Atomic             Coordinates (Angstroms)
 Number     Number       Type             X           Y           Z
 ---------------------------------------------------------------------
      1          6           0        2.087493    1.859398   -1.626890
      2          6           0        2.867338    0.946218   -0.724825
      3          6           0        2.356561   -0.179250   -0.095817
      4         16           0        3.555145   -0.983368    0.893258
      5          6           0        4.740798    0.193180    0.457146
      6          6           0        4.240345    1.141976   -0.394389
      7          6           0        1.016826   -0.690907   -0.182895
      8          7           0        0.008915   -0.237445   -0.889061
      9          6           0       -1.007658   -1.112720   -0.567898
     10          7           0       -0.667171   -2.059365    0.272890
     11          8           0        0.694003   -1.782411    0.544270
     12          6           0       -2.425023   -0.938062   -1.072835
     13          6           0       -3.165229   -2.279267   -1.142009
     14          7           0       -3.201441    0.054658   -0.325339
     15          6           0       -3.283818   -0.102293    1.128249
     16          6           0       -2.228349    0.712955    1.897472
     17          7           0       -2.183492    2.126671    1.504155
     18          6           0       -2.037943    2.255820    0.048311
     19          6           0       -3.096969    1.456971   -0.728073
     20          1           0        1.311134    2.393652   -1.067625
     21          1           0        2.749655    2.597058   -2.089287
     22          1           0        1.570223    1.299492   -2.410684
     23          1           0        5.744218    0.119026    0.854115
     24          1           0        4.827827    1.966540   -0.782908
     25          1           0       -2.332601   -0.542017   -2.089396
     26          1           0       -3.254557   -2.743019   -0.156092
     27          1           0       -4.168186   -2.111174   -1.542480
     28          1           0       -2.629076   -2.982334   -1.787581
     29          1           0       -4.284165    0.233561    1.445804
     30          1           0       -3.205809   -1.163256    1.382527
     31          1           0       -1.232312    0.288687    1.729607
     32          1           0       -2.424805    0.654492    2.974944
     33          1           0       -3.064235    2.564844    1.780131
     34          1           0       -1.039965    1.896991   -0.223827
     35          1           0       -2.097654    3.318885   -0.216906
     36          1           0       -2.907939    1.500833   -1.806625
     37          1           0       -4.080009    1.925164   -0.551815
 ---------------------------------------------------------------------

 SCF Done:  E(UB3LYP) =  -1198.91353088     A.U. after   23 cycles

 The electronic state is 2-A.
 Alpha  occ. eigenvalues --  -88.71927 -19.04410 -14.20320 -14.19982 -14.19729
 Alpha  occ. eigenvalues --  -14.15292 -10.10389 -10.10358 -10.09400 -10.09065
 Alpha  occ. eigenvalues --  -10.08780 -10.08344 -10.08054 -10.05795 -10.04436
 Alpha  occ. eigenvalues --  -10.03981 -10.03451 -10.02973 -10.02817  -7.80592
 Alpha  occ. eigenvalues --   -5.76898  -5.76531  -5.76194  -0.99767  -0.83798
 Alpha  occ. eigenvalues --   -0.79210  -0.77432  -0.74174  -0.71279  -0.65817
 Alpha  occ. eigenvalues --   -0.65440  -0.62554  -0.58971  -0.56936  -0.54106
 Alpha  occ. eigenvalues --   -0.53892  -0.52997  -0.48647  -0.47812  -0.44927
 Alpha  occ. eigenvalues --   -0.41831  -0.40020  -0.38562  -0.37282  -0.36154
 Alpha  occ. eigenvalues --   -0.35308  -0.34716  -0.34322  -0.33390  -0.33310
 Alpha  occ. eigenvalues --   -0.31334  -0.29577  -0.28994  -0.28622  -0.28490
 Alpha  occ. eigenvalues --   -0.27532  -0.26973  -0.25718  -0.25539  -0.24927
 Alpha  occ. eigenvalues --   -0.23970  -0.23760  -0.23504  -0.22731  -0.22596
 Alpha  occ. eigenvalues --   -0.19883  -0.18560  -0.17935  -0.16299  -0.14952
 Alpha  occ. eigenvalues --   -0.14455  -0.10847  -0.09159  -0.08691   0.04165
 Alpha virt. eigenvalues --    0.06687   0.08322   0.08508   0.09004   0.09722
 Alpha virt. eigenvalues --    0.10334   0.10551   0.10875   0.11784   0.12094
 Alpha virt. eigenvalues --    0.12870   0.13358   0.13702   0.13958   0.14237

  Beta  occ. eigenvalues --  -88.71861 -19.04105 -14.20029 -14.19981 -14.19728
  Beta  occ. eigenvalues --  -14.15172 -10.10388 -10.10045 -10.09400 -10.09063
  Beta  occ. eigenvalues --  -10.08812 -10.08344 -10.08054 -10.05795 -10.04374
  Beta  occ. eigenvalues --  -10.03554 -10.03478 -10.03092 -10.02490  -7.80534
  Beta  occ. eigenvalues --   -5.76869  -5.76504  -5.75977  -0.99275  -0.83790
  Beta  occ. eigenvalues --   -0.79151  -0.77145  -0.73738  -0.70864  -0.65799
  Beta  occ. eigenvalues --   -0.65368  -0.62129  -0.58569  -0.56930  -0.54062
  Beta  occ. eigenvalues --   -0.53676  -0.52953  -0.48261  -0.47546  -0.44721
  Beta  occ. eigenvalues --   -0.41569  -0.39814  -0.38431  -0.37184  -0.36123
  Beta  occ. eigenvalues --   -0.35124  -0.34604  -0.34190  -0.33293  -0.32290
  Beta  occ. eigenvalues --   -0.31312  -0.29424  -0.28861  -0.28495  -0.28156
  Beta  occ. eigenvalues --   -0.27454  -0.26891  -0.25617  -0.25371  -0.24916
  Beta  occ. eigenvalues --   -0.23847  -0.23543  -0.23430  -0.22473  -0.21785
  Beta  occ. eigenvalues --   -0.19592  -0.18199  -0.16814  -0.15070  -0.14443
  Beta  occ. eigenvalues --   -0.14244  -0.09843  -0.09107  -0.06839
  Beta virt. eigenvalues --    0.06672   0.08309   0.08491   0.08980   0.09696
  Beta virt. eigenvalues --    0.10276   0.10319   0.10539   0.10875   0.11769
  Beta virt. eigenvalues --    0.12083   0.12844   0.13457   0.13780   0.14277

 Mulliken charges and spin densities:
               1          2
     1  C   -1.056750  -0.023410
     2  C    0.109860   0.229938
     3  C    0.242970   0.037817
     4  S   -0.646971   0.093093
     5  C   -0.224603   0.294230
     6  C    0.048479  -0.074556
     7  C   -0.723572   0.188030
     8  N    0.070429   0.046107
     9  C    0.825279  -0.005377
    10  N   -0.403513   0.138527
    11  O    0.206292   0.066940
    12  C   -0.597980  -0.021013
    13  C   -0.625552   0.003609
    14  N    0.321087   0.006490
    15  C   -0.261610   0.005066
    16  C   -0.316699  -0.001453
    17  N   -0.097230   0.000695
    18  C   -0.460039  -0.003001
    19  C   -0.068300  -0.000586
    20  H    0.148001   0.021127
    21  H    0.115846   0.001283
    22  H    0.150043   0.008689
    23  H    0.177249  -0.021977
    24  H    0.086235   0.005691
    25  H    0.153125   0.000698
    26  H    0.169280   0.000827
    27  H    0.138036  -0.000473
    28  H    0.141621  -0.000155
    29  H    0.142090   0.005652
    30  H    0.126342   0.003344
    31  H    0.208024  -0.009846
    32  H    0.151953   0.001587
    33  H    0.201677   0.001417
    34  H    0.136995   0.001613
    35  H    0.144268   0.000191
    36  H    0.123646  -0.000568
    37  H    0.143993  -0.000247
 Sum of Mulliken charges =  -1.00000   1.00000

 Dipole moment (field-independent basis, Debye):
    X=             -6.4491    Y=              2.5214    Z=             -1.1214  Tot=              7.0147
 Quadrupole moment (field-independent basis, Debye-Ang):
   XX=           -163.2318   YY=           -143.3474   ZZ=           -133.2242
   XY=             -0.9607   XZ=             -2.0922   YZ=             -0.2920

 Summary of Natural Population Analysis:

                                       Natural Population
                Natural  -----------------------------------------------
    Atom  No    Charge         Core      Valence    Rydberg      Total
 -----------------------------------------------------------------------
      C    1   -0.29422      0.99964     2.28959    0.00498     3.29422
      C    2    0.03630      0.99949     1.95318    0.01103     2.96370
      C    3   -0.13284      0.99932     2.12144    0.01208     3.13284
      S    4    0.22104      4.99944     2.75709    0.02243     7.77896
      C    5   -0.10491      0.99946     2.09202    0.01343     3.10491
      C    6   -0.16274      0.99940     2.15228    0.01106     3.16274
      C    7    0.31407      0.99954     1.66829    0.01811     2.68593
      N    8   -0.28472      0.99967     2.77324    0.01181     3.78472
      C    9    0.14779      0.99962     1.83321    0.01938     2.85221
      N   10   -0.07997      0.99965     2.56659    0.01373     3.57997
      O   11   -0.15301      0.99986     3.14285    0.01030     4.15301
      C   12   -0.01586      0.99953     2.00461    0.01172     3.01586
      C   13   -0.28422      0.99965     2.27969    0.00488     3.28422
      N   14   -0.28739      0.99972     2.76952    0.01815     3.78739
      C   15   -0.09441      0.99962     2.08574    0.00905     3.09441
      C   16   -0.10080      0.99963     2.09164    0.00953     3.10080
      N   17   -0.33651      0.99977     2.82177    0.01497     3.83651
      C   18   -0.10733      0.99962     2.09819    0.00951     3.10733
      C   19   -0.08563      0.99962     2.07706    0.00895     3.08563
      H   20    0.10592      0.00000     0.39292    0.00115     0.39408
      H   21    0.08993      0.00000     0.40908    0.00098     0.41007
      H   22    0.11080      0.00000     0.38821    0.00099     0.38920
      H   23    0.09191      0.00000     0.40589    0.00220     0.40809
      H   24    0.09377      0.00000     0.40448    0.00175     0.40623
      H   25    0.10085      0.00000     0.39767    0.00149     0.39915
      H   26    0.10233      0.00000     0.39675    0.00093     0.39767
      H   27    0.09423      0.00000     0.40464    0.00112     0.40577
      H   28    0.10109      0.00000     0.39814    0.00077     0.39891
      H   29    0.08221      0.00000     0.41646    0.00133     0.41779
      H   30    0.10447      0.00000     0.39438    0.00115     0.39553
      H   31    0.10411      0.00000     0.39415    0.00174     0.39589
      H   32    0.08854      0.00000     0.41045    0.00101     0.41146
      H   33    0.15935      0.00000     0.33854    0.00211     0.34065
      H   34    0.11298      0.00000     0.38553    0.00149     0.38702
      H   35    0.08617      0.00000     0.41285    0.00098     0.41383
      H   36    0.09636      0.00000     0.40260    0.00104     0.40364
      H   37    0.08040      0.00000     0.41819    0.00141     0.41960
 =======================================================================
   * Total *    0.00008     22.99225    50.74893    0.25874    73.99992

 Normal termination of Gaussian 16 at Mon Dec 14 14:46:01 2020.
