 Gaussian 16, Revision A.03,

 -----------------------------------------------------------
 # opt freq B3LYP/6-31G(d) empiricaldispersion=gd3bj scf=xqc
 -----------------------------------------------------------

 -----------------------------
 CID_1254470_JID_6235_neutraal
 -----------------------------
 Symbolic Z-matrix:
 Charge =  0 Multiplicity = 1

 SCF Done:  E(RB3LYP) =  -1148.61840787     A.U. after   16 cycles
 SCF Done:  E(RB3LYP) =  -1148.62346191     A.U. after   14 cycles
 SCF Done:  E(RB3LYP) =  -1148.61698045     A.U. after   14 cycles
 SCF Done:  E(RB3LYP) =  -1148.62426289     A.U. after   14 cycles
 SCF Done:  E(RB3LYP) =  -1148.62453056     A.U. after   13 cycles
 SCF Done:  E(RB3LYP) =  -1148.62497607     A.U. after   14 cycles
 SCF Done:  E(RB3LYP) =  -1148.62505202     A.U. after   15 cycles
 SCF Done:  E(RB3LYP) =  -1148.62560800     A.U. after   13 cycles
 SCF Done:  E(RB3LYP) =  -1148.62646619     A.U. after   14 cycles
 SCF Done:  E(RB3LYP) =  -1148.62730348     A.U. after   15 cycles
 SCF Done:  E(RB3LYP) =  -1148.62807857     A.U. after   12 cycles
 SCF Done:  E(RB3LYP) =  -1148.62807916     A.U. after   10 cycles
 SCF Done:  E(RB3LYP) =  -1148.62807996     A.U. after   10 cycles
 SCF Done:  E(RB3LYP) =  -1148.62808006     A.U. after    9 cycles
 SCF Done:  E(RB3LYP) =  -1148.62808009     A.U. after    7 cycles
 Optimization completed.
    -- Stationary point found.
 Normal termination of Gaussian 16 at Thu Dec 10 21:28:43 2020.

 --------------------------------------------------------------------
 #N Geom=AllCheck Guess=TCheck SCRF=Check GenChk RB3LYP/6-31G(d) Freq
 --------------------------------------------------------------------

 Structure from the checkpoint file:  "JID_6235.chk"
 -----------------------------
 CID_1254470_JID_6235_neutraal
 -----------------------------
 Charge =  0 Multiplicity = 1

 SCF Done:  E(RB3LYP) =  -1148.62808009     A.U. after    2 cycles

  Exact polarizability: 158.330  -6.915 128.319   5.156 -10.204 112.062
 Approx polarizability: 227.983 -24.340 221.152  28.403 -43.057 220.451

                      1                      2                      3
                      A                      A                      A
 Frequencies --     20.5787                23.5720                35.6727
 Red. masses --      8.1847                 8.2392                 8.0163
 Frc consts  --      0.0020                 0.0027                 0.0060
 IR Inten    --      2.4071                 2.3735                 2.4833

                      4                      5                      6
                      A                      A                      A
 Frequencies --     67.5439               123.0730               142.7062
 Red. masses --      8.6674                 6.5147                 1.5419
 Frc consts  --      0.0233                 0.0581                 0.0185
 IR Inten    --      0.5578                 2.8535                 0.7026

                      7                      8                      9
                      A                      A                      A
 Frequencies --    152.8387               187.6192               205.3091
 Red. masses --      2.6365                 5.0888                 4.1116
 Frc consts  --      0.0363                 0.1055                 0.1021
 IR Inten    --      1.6320                 1.7024                 2.4267

                     10                     11                     12
                      A                      A                      A
 Frequencies --    227.0830               302.5172               308.8954
 Red. masses --      4.2985                 1.2813                 3.3064
 Frc consts  --      0.1306                 0.0691                 0.1859
 IR Inten    --      6.6138                39.0479                 6.1312

                     13                     14                     15
                      A                      A                      A
 Frequencies --    335.9026               362.9565               391.3386
 Red. masses --      2.5457                 5.5970                 4.2069
 Frc consts  --      0.1692                 0.4344                 0.3796
 IR Inten    --      1.8704                10.6640                 1.1134

                     16                     17                     18
                      A                      A                      A
 Frequencies --    407.7672               447.6496               523.7004
 Red. masses --      3.7652                 5.9700                 2.6451
 Frc consts  --      0.3689                 0.7049                 0.4274
 IR Inten    --      2.8668                 1.3870               164.1804

                     19                     20                     21
                      A                      A                      A
 Frequencies --    570.5404               582.6393               596.0021
 Red. masses --      4.0078                 3.5133                 7.9252
 Frc consts  --      0.7687                 0.7027                 1.6587
 IR Inten    --     55.6311                33.7831                 4.6468

                     22                     23                     24
                      A                      A                      A
 Frequencies --    615.3028               640.8852               646.8410
 Red. masses --      4.9514                 5.3552                 3.4783
 Frc consts  --      1.1045                 1.2959                 0.8575
 IR Inten    --      7.2285                15.0871               139.1193

                     25                     26                     27
                      A                      A                      A
 Frequencies --    662.1736               676.1533               698.9947
 Red. masses --      6.0883                 5.8867                 5.1717
 Frc consts  --      1.5729                 1.5857                 1.4888
 IR Inten    --     10.0409                11.9277                15.4933

                     28                     29                     30
                      A                      A                      A
 Frequencies --    757.5199               785.6328               810.4847
 Red. masses --      3.2364                 4.8531                 2.4250
 Frc consts  --      1.0942                 1.7648                 0.9385
 IR Inten    --     20.6081                 1.3993                 9.2253

                     31                     32                     33
                      A                      A                      A
 Frequencies --    817.9131               845.5204               966.7151
 Red. masses --      5.5401                 6.5211                 2.0747
 Frc consts  --      2.1836                 2.7468                 1.1424
 IR Inten    --      2.8268                59.2180                 7.6913

                     34                     35                     36
                      A                      A                      A
 Frequencies --   1017.5808              1033.5182              1071.5791
 Red. masses --      3.5684                 2.1812                 2.3041
 Frc consts  --      2.1770                 1.3727                 1.5588
 IR Inten    --      9.9807                 9.7067                32.9417

                     37                     38                     39
                      A                      A                      A
 Frequencies --   1077.0966              1146.1694              1157.2970
 Red. masses --      1.4868                 1.7377                 2.7132
 Frc consts  --      1.0163                 1.3450                 2.1411
 IR Inten    --      2.1370                47.2840                15.3152

                     40                     41                     42
                      A                      A                      A
 Frequencies --   1183.4500              1210.8634              1264.9252
 Red. masses --      3.9357                 4.3724                 1.8535
 Frc consts  --      3.2477                 3.7772                 1.7473
 IR Inten    --     21.7755                16.7564                 8.1562

                     43                     44                     45
                      A                      A                      A
 Frequencies --   1336.3309              1350.8572              1374.3858
 Red. masses --      9.3620                 3.2266                 2.0218
 Frc consts  --      9.8502                 3.4691                 2.2501
 IR Inten    --     93.9906                84.7844                91.9103

                     46                     47                     48
                      A                      A                      A
 Frequencies --   1403.0787              1428.0277              1437.0850
 Red. masses --      2.2333                 5.1949                 1.3661
 Frc consts  --      2.5903                 6.2417                 1.6623
 IR Inten    --     98.2272               168.2024                 7.3420

                     49                     50                     51
                      A                      A                      A
 Frequencies --   1453.7498              1501.6475              1513.3615
 Red. masses --      3.4478                 1.0963                 1.0496
 Frc consts  --      4.2930                 1.4565                 1.4163
 IR Inten    --     50.1247                12.7829                10.5456

                     52                     53                     54
                      A                      A                      A
 Frequencies --   1517.3592              1556.4605              1561.1414
 Red. masses --      1.2270                 4.9453                 7.0785
 Frc consts  --      1.6645                 7.0586                10.1643
 IR Inten    --      2.0447               108.5508               105.8805

                     55                     56                     57
                      A                      A                      A
 Frequencies --   1573.7745              1591.1555              1643.4489
 Red. masses --      5.5382                 6.3197                13.7030
 Frc consts  --      8.0818                 9.4270                21.8062
 IR Inten    --     26.9211                41.1609               215.9613

                     58                     59                     60
                      A                      A                      A
 Frequencies --   1672.9290              3047.9470              3098.4748
 Red. masses --      1.3040                 1.0407                 1.0971
 Frc consts  --      2.1503                 5.6960                 6.2055
 IR Inten    --    178.0375                17.2941                17.3747

                     61                     62                     63
                      A                      A                      A
 Frequencies --   3100.4456              3150.1744              3170.1991
 Red. masses --      1.0629                 1.1070                 1.0974
 Frc consts  --      6.0196                 6.4723                 6.4981
 IR Inten    --      5.8776                 1.4633                 1.9467

                     64                     65                     66
                      A                      A                      A
 Frequencies --   3319.7520              3562.2098              3672.5425
 Red. masses --      1.1000                 1.0474                 1.1000
 Frc consts  --      7.1428                 7.8307                 8.7416
 IR Inten    --      8.2292                67.2020                38.1305

 - Thermochemistry -
 -------------------
 Temperature   298.150 Kelvin.  Pressure   1.00000 Atm.
 Atom     1 has atomic number  6 and mass  12.00000

 Molecular mass:   240.04295 amu.
 Principal axes and moments of inertia in atomic units:
                           1         2         3
     Eigenvalues --  2109.758566931.601067685.98122
           X            0.99987  -0.01408  -0.00831
           Y            0.01419   0.99981   0.01341
           Z            0.00812  -0.01352   0.99988
 This molecule is an asymmetric top.
 Rotational symmetry number  1.
 Warning -- assumption of classical behavior for rotation
           may cause significant error
 Rotational temperatures (Kelvin)      0.04105     0.01250     0.01127
 Rotational constants (GHZ):           0.85543     0.26036     0.23481
 Zero-point vibrational energy     449431.4 (Joules/Mol)
                                  107.41668 (Kcal/Mol)
 Warning -- explicit consideration of  22 degrees of freedom as
           vibrations may cause significant error
 Vibrational temperatures:     29.61    33.91    51.33    97.18   177.07
          (Kelvin)            205.32   219.90   269.94   295.39   326.72
                              435.25   444.43   483.29   522.21   563.05
                              586.69   644.07   753.49   820.88   838.29
                              857.51   885.28   922.09   930.66   952.72
                              972.83  1005.70  1089.90  1130.35  1166.11
                             1176.79  1216.52  1390.89  1464.07  1487.00
                             1541.76  1549.70  1649.08  1665.09  1702.72
                             1742.16  1819.95  1922.68  1943.58  1977.43
                             2018.72  2054.61  2067.64  2091.62  2160.54
                             2177.39  2183.14  2239.40  2246.13  2264.31
                             2289.32  2364.56  2406.97  4385.32  4458.01
                             4460.85  4532.40  4561.21  4776.38  5125.23
                             5283.97

 Zero-point correction=                           0.171179 (Hartree/Particle)
 Thermal correction to Energy=                    0.185774
 Thermal correction to Enthalpy=                  0.186719
 Thermal correction to Gibbs Free Energy=         0.126548
 Sum of electronic and zero-point Energies=          -1148.456901
 Sum of electronic and thermal Energies=             -1148.442306
 Sum of electronic and thermal Enthalpies=           -1148.441361
 Sum of electronic and thermal Free Energies=        -1148.501532

                     E (Thermal)             CV                S
                      KCal/Mol        Cal/Mol-Kelvin    Cal/Mol-Kelvin
 Total                  116.575             53.091            126.640
 Electronic               0.000              0.000              0.000
 Translational            0.889              2.981             42.328
 Rotational               0.889              2.981             33.085
 Vibrational            114.798             47.129             51.226
 Vibration     1          0.593              1.986              6.578
 Vibration     2          0.593              1.985              6.308
 Vibration     3          0.594              1.982              5.486
 Vibration     4          0.598              1.970              4.224
 Vibration     5          0.610              1.930              3.052
 Vibration     6          0.616              1.910              2.767
 Vibration     7          0.619              1.900              2.637
 Vibration     8          0.632              1.857              2.251
 Vibration     9          0.640              1.832              2.085
 Vibration    10          0.651              1.800              1.902
 Vibration    11          0.694              1.669              1.403
 Vibration    12          0.698              1.657              1.368
 Vibration    13          0.717              1.604              1.232
 Vibration    14          0.737              1.549              1.109
 Vibration    15          0.759              1.489              0.995
 Vibration    16          0.772              1.453              0.935
 Vibration    17          0.807              1.366              0.803
 Vibration    18          0.879              1.198              0.601
 Vibration    19          0.927              1.095              0.503
 Vibration    20          0.939              1.069              0.480
 Vibration    21          0.954              1.040              0.457
 Vibration    22          0.975              1.000              0.424

 Optimization completed.
    -- Stationary point found.
 Normal termination of Gaussian 16 at Thu Dec 10 21:36:15 2020.

 ----------------------------------------------------------------------
 # B3LYP/6-311++G(d,p) empiricaldispersion=gd3bj scf=xqc pop=npa geom=c
 heck
 ----------------------------------------------------------------------

 -------------------------------------
 CID_1254470_JID_6235_Energie_neutraal
 -------------------------------------
 Structure from the checkpoint file:  "JID_6235.chk"
 Charge =  0 Multiplicity = 1

 SCF Done:  E(RB3LYP) =  -1148.86941373     A.U. after   16 cycles
 Normal termination of Gaussian 16 at Thu Dec 10 21:39:42 2020.

 ----------------------------------------------------------------------
 # B3LYP/6-311++G(d,p) empiricaldispersion=gd3bj scf=xqc pop=npa geom=c
 heck
 ----------------------------------------------------------------------

 -----------------------------------
 CID_1254470_JID_6235_Energie_kation
 -----------------------------------
 Structure from the checkpoint file:  "JID_6235.chk"
 Charge =  1 Multiplicity = 2

 SCF Done:  E(UB3LYP) =  -1148.54374533     A.U. after   31 cycles
 Normal termination of Gaussian 16 at Thu Dec 10 21:49:12 2020.
 Gaussian 16:  ES64L-G16RevA.03 25-Dec-2016

 ----------------------------------------------------------------------
 # B3LYP/6-311++G(d,p) empiricaldispersion=gd3bj scf=xqc pop=npa geom=c
 heck
 ----------------------------------------------------------------------

 ----------------------------------
 CID_1254470_JID_6235_Energie_anion
 ----------------------------------
 Structure from the checkpoint file:  "JID_6235.chk"
 Charge = -1 Multiplicity = 2

                         Standard orientation:
 ---------------------------------------------------------------------
 Center     Atomic      Atomic             Coordinates (Angstroms)
 Number     Number       Type             X           Y           Z
 ---------------------------------------------------------------------
      1          6           0       -0.950367    2.961493   -0.457186
      2          6           0       -1.394453    1.581307   -0.104502
      3          7           0       -2.458551    0.976500   -0.588900
      4          6           0       -2.462277   -0.255823   -0.001604
      5          6           0       -1.401221   -0.428620    0.853068
      6          7           0       -0.722100    0.762706    0.790808
      7          6           0        0.542076    1.043585    1.466755
      8          6           0        1.687788    0.293798    0.859475
      9          7           0        2.352961   -0.617118    1.497057
     10          7           0        3.327537   -1.218807    0.752419
     11          6           0        3.390142   -0.745459   -0.466249
     12         16           0        2.216179    0.526508   -0.810383
     13          7           0        4.329051   -1.138593   -1.379956
     14          7           0       -3.476343   -1.243310   -0.269026
     15          8           0       -4.369386   -0.963669   -1.061708
     16          8           0       -3.360905   -2.317837    0.333604
     17          1           0       -0.926316    3.623610    0.416735
     18          1           0       -1.661295    3.369273   -1.177437
     19          1           0        0.046808    2.970638   -0.914317
     20          1           0       -1.084728   -1.258310    1.463683
     21          1           0        0.703670    2.123608    1.433822
     22          1           0        0.472823    0.739812    2.514107
     23          1           0        4.825684   -1.978250   -1.104449
     24          1           0        4.068814   -1.113796   -2.356551
 ---------------------------------------------------------------------

 SCF Done:  E(UB3LYP) =  -1148.89455774     A.U. after   33 cycles
 SCF Done:  E(UB3LYP) =  -1148.89455774     a.u. after    1 cycles

 The electronic state is 2-A.
 Alpha  occ. eigenvalues --  -88.79089 -18.96818 -18.96674 -14.34989 -14.26818
 Alpha  occ. eigenvalues --  -14.25403 -14.24260 -14.23317 -14.18932 -10.17622
 Alpha  occ. eigenvalues --  -10.14313 -10.13645 -10.13117 -10.09826 -10.09218
 Alpha  occ. eigenvalues --  -10.08160  -7.87712  -5.83983  -5.83684  -5.83276
 Alpha  occ. eigenvalues --   -1.04731  -0.93660  -0.92026  -0.87500  -0.84975
 Alpha  occ. eigenvalues --   -0.79740  -0.72686  -0.69723  -0.68939  -0.64051
 Alpha  occ. eigenvalues --   -0.62376  -0.55683  -0.52085  -0.49971  -0.46861
 Alpha  occ. eigenvalues --   -0.45573  -0.43299  -0.42372  -0.41081  -0.37580
 Alpha  occ. eigenvalues --   -0.37393  -0.36111  -0.35379  -0.35093  -0.33772
 Alpha  occ. eigenvalues --   -0.33216  -0.32853  -0.31944  -0.30826  -0.30305
 Alpha  occ. eigenvalues --   -0.28840  -0.25729  -0.21419  -0.19841  -0.17772
 Alpha  occ. eigenvalues --   -0.17497  -0.17219  -0.15110  -0.14483  -0.14191
 Alpha  occ. eigenvalues --   -0.12329  -0.12224   0.02689
 Alpha virt. eigenvalues --    0.04543   0.05524   0.06843   0.07681   0.08939
 Alpha virt. eigenvalues --    0.09796   0.10230   0.10520   0.11640   0.12257
 Alpha virt. eigenvalues --    0.12603   0.12958   0.13274   0.14083   0.14854

  Beta  occ. eigenvalues --  -88.79079 -18.96411 -18.96394 -14.34465 -14.26759
  Beta  occ. eigenvalues --  -14.25352 -14.24194 -14.23343 -14.18908 -10.17489
  Beta  occ. eigenvalues --  -10.14322 -10.13485 -10.13160 -10.09852 -10.09210
  Beta  occ. eigenvalues --  -10.07930  -7.87703  -5.83969  -5.83684  -5.83246
  Beta  occ. eigenvalues --   -1.03916  -0.93550  -0.91935  -0.86853  -0.84853
  Beta  occ. eigenvalues --   -0.79648  -0.72535  -0.69577  -0.68808  -0.63934
  Beta  occ. eigenvalues --   -0.62000  -0.55205  -0.51884  -0.49801  -0.46717
  Beta  occ. eigenvalues --   -0.45411  -0.43144  -0.42220  -0.40705  -0.37257
  Beta  occ. eigenvalues --   -0.36416  -0.35378  -0.35151  -0.34222  -0.33545
  Beta  occ. eigenvalues --   -0.32924  -0.32671  -0.31801  -0.30715  -0.30202
  Beta  occ. eigenvalues --   -0.28464  -0.25366  -0.21339  -0.19631  -0.17555
  Beta  occ. eigenvalues --   -0.17313  -0.17072  -0.14147  -0.13879  -0.12747
  Beta  occ. eigenvalues --   -0.11879  -0.11544
  Beta virt. eigenvalues --    0.05513   0.06057   0.07152   0.07891   0.08541
  Beta virt. eigenvalues --    0.09128   0.09774   0.10390   0.10942   0.11855
  Beta virt. eigenvalues --    0.12406   0.12619   0.12973   0.13410   0.14073

 Mulliken charges and spin densities:
               1          2
     1  C   -0.578865  -0.015611
     2  C    0.039833  -0.039359
     3  N   -0.050947   0.013575
     4  C   -0.174006  -0.039385
     5  C   -0.003400   0.237208
     6  N    0.209294   0.001103
     7  C   -1.038202   0.061285
     8  C    0.587690  -0.088758
     9  N   -0.080846   0.022640
    10  N   -0.063155  -0.028762
    11  C   -0.132508  -0.103312
    12  S    0.050896   0.085710
    13  N   -0.205750  -0.022075
    14  N   -0.333751   0.159258
    15  O   -0.125360   0.155625
    16  O   -0.173733   0.113680
    17  H    0.138562   0.009595
    18  H    0.179593   0.000537
    19  H    0.120511   0.011151
    20  H    0.205786  -0.015348
    21  H    0.127094   0.031873
    22  H    0.207260   0.026012
    23  H    0.208419   0.048068
    24  H   -0.114416   0.375288
 Sum of Mulliken charges =  -1.00000   1.00000

 Dipole moment (field-independent basis, Debye):
    X=              8.4028    Y=              6.8788    Z=              1.4152  Tot=             10.9512
 Quadrupole moment (field-independent basis, Debye-Ang):
   XX=           -181.8950   YY=           -116.3629   ZZ=           -115.7059
   XY=            -13.9305   XZ=            -12.9391   YZ=              4.7407

 Summary of Natural Population Analysis:

                                       Natural Population
                Natural  -----------------------------------------------
    Atom  No    Charge         Core      Valence    Rydberg      Total
 -----------------------------------------------------------------------
      C    1   -0.30778      0.99963     2.30420    0.00394     3.30778
      C    2    0.17464      0.99963     1.80803    0.01769     2.82536
      N    3   -0.23504      0.99966     2.72699    0.00839     3.73504
      C    4    0.09580      0.99943     1.88274    0.02204     2.90420
      C    5    0.02793      0.99952     1.95947    0.01308     2.97207
      N    6   -0.20354      0.99962     2.69322    0.01070     3.70354
      C    7   -0.10470      0.99955     2.09348    0.01167     3.10470
      C    8    0.03995      0.99961     1.94356    0.01688     2.96005
      N    9   -0.13406      0.99961     2.62014    0.01431     3.63406
      N   10   -0.19304      0.99962     2.67852    0.01490     3.69304
      C   11    0.13998      0.99966     1.83870    0.02166     2.86002
      S   12    0.15328      4.99942     2.82868    0.01863     7.84672
      N   13   -0.39890      0.99968     2.88821    0.01101     3.89890
      N   14    0.29058      0.99970     2.18387    0.02585     3.20942
      O   15   -0.17455      0.99990     3.16747    0.00718     4.17455
      O   16   -0.21486      0.99990     3.20779    0.00717     4.21486
      H   17    0.09906      0.00000     0.39933    0.00161     0.40094
      H   18    0.11704      0.00000     0.38217    0.00079     0.38296
      H   19    0.10262      0.00000     0.39637    0.00101     0.39738
      H   20    0.11267      0.00000     0.38645    0.00089     0.38733
      H   21    0.10701      0.00000     0.39215    0.00084     0.39299
      H   22    0.11539      0.00000     0.38356    0.00105     0.38461
      H   23    0.19460      0.00000     0.30329    0.00211     0.30540
      H   24    0.19592      0.00000     0.30032    0.00377     0.30408
 =======================================================================
   * Total *   -0.00000     19.99414    41.76870    0.23715    62.00000

 Normal termination of Gaussian 16 at Thu Dec 10 21:59:28 2020.
