 Gaussian 16, Revision A.03,

 -----------------------------------------------------------
 # opt freq B3LYP/6-31G(d) empiricaldispersion=gd3bj scf=xqc
 -----------------------------------------------------------

 ------------------------------
 CID_136484959_JID_178_neutraal
 ------------------------------
 Symbolic Z-matrix:
 Charge =  0 Multiplicity = 1

 SCF Done:  E(RB3LYP) =  -468.461279425     A.U. after   15 cycles
 SCF Done:  E(RB3LYP) =  -468.470648823     A.U. after   14 cycles
 SCF Done:  E(RB3LYP) =  -468.472087952     A.U. after   13 cycles
 SCF Done:  E(RB3LYP) =  -468.472456478     A.U. after   12 cycles
 SCF Done:  E(RB3LYP) =  -468.472580334     A.U. after   12 cycles
 SCF Done:  E(RB3LYP) =  -468.472632518     A.U. after   11 cycles
 SCF Done:  E(RB3LYP) =  -468.472646639     A.U. after   10 cycles
 SCF Done:  E(RB3LYP) =  -468.472649796     A.U. after    9 cycles
 SCF Done:  E(RB3LYP) =  -468.472651348     A.U. after    9 cycles
 SCF Done:  E(RB3LYP) =  -468.472651855     A.U. after    8 cycles
 Optimization completed.
    -- Stationary point found.
 Normal termination of Gaussian 16 at Tue Dec  8 10:17:59 2020.

 --------------------------------------------------------------------
 #N Geom=AllCheck Guess=TCheck SCRF=Check GenChk RB3LYP/6-31G(d) Freq
 --------------------------------------------------------------------

 Structure from the checkpoint file:  "JID_178.chk"
 ------------------------------
 CID_136484959_JID_178_neutraal
 ------------------------------
 Charge =  0 Multiplicity = 1

 SCF Done:  E(RB3LYP) =  -468.472651855     A.U. after    1 cycles

  Exact polarizability: 107.602  -7.810  99.517  -0.597  -0.414  42.047
 Approx polarizability: 177.060 -21.948 175.854  -4.423  -0.039  64.548

                      1                      2                      3
                      A                      A                      A
 Frequencies --    108.3585               134.5601               194.0253
 Red. masses --      5.6914                 2.8041                 2.6758
 Frc consts  --      0.0394                 0.0299                 0.0594
 IR Inten    --      0.3529                 2.4253                 2.4328

                      4                      5                      6
                      A                      A                      A
 Frequencies --    228.6235               295.8916               488.7923
 Red. masses --      4.1567                 4.2852                 1.5586
 Frc consts  --      0.1280                 0.2210                 0.2194
 IR Inten    --      1.5106                 3.2700               113.1308

                      7                      8                      9
                      A                      A                      A
 Frequencies --    497.4389               504.3636               542.7877
 Red. masses --      4.6276                 4.8873                 6.6515
 Frc consts  --      0.6747                 0.7325                 1.1546
 IR Inten    --     68.9991                 4.9429                33.0934

                     10                     11                     12
                      A                      A                      A
 Frequencies --    596.8752               681.2095               700.0880
 Red. masses --      5.5275                 6.4038                 5.2284
 Frc consts  --      1.1602                 1.7509                 1.5098
 IR Inten    --      5.9094                 4.6605                 7.2916

                     13                     14                     15
                      A                      A                      A
 Frequencies --    739.6841               758.0064               774.7686
 Red. masses --      3.0520                 1.4500                 2.5247
 Frc consts  --      0.9838                 0.4909                 0.8929
 IR Inten    --     13.5987                13.7426                15.6565

                     16                     17                     18
                      A                      A                      A
 Frequencies --    849.0653               873.1477               909.3357
 Red. masses --      1.2118                 3.4981                 2.2013
 Frc consts  --      0.5147                 1.5713                 1.0725
 IR Inten    --     80.8263                 5.2200                 4.7987

                     19                     20                     21
                      A                      A                      A
 Frequencies --    949.3563              1006.5005              1051.1272
 Red. masses --      2.9627                 3.0793                 3.2398
 Frc consts  --      1.5733                 1.8380                 2.1090
 IR Inten    --      1.8288                 2.5531                18.2952

                     22                     23                     24
                      A                      A                      A
 Frequencies --   1135.6003              1143.2029              1178.9604
 Red. masses --      1.6964                 2.9408                 2.1221
 Frc consts  --      1.2889                 2.2644                 1.7379
 IR Inten    --     28.8520                 8.7975                18.1487

                     25                     26                     27
                      A                      A                      A
 Frequencies --   1203.1009              1234.9195              1266.4793
 Red. masses --      1.7958                 1.4464                 1.4465
 Frc consts  --      1.5314                 1.2996                 1.3670
 IR Inten    --     25.8644                69.5166                58.8374

                     28                     29                     30
                      A                      A                      A
 Frequencies --   1273.4012              1307.2633              1333.4014
 Red. masses --      2.5682                 1.5843                 1.5622
 Frc consts  --      2.4536                 1.5952                 1.6365
 IR Inten    --    122.6220                48.6302                59.6093

                     31                     32                     33
                      A                      A                      A
 Frequencies --   1371.7958              1445.9129              1476.3411
 Red. masses --      1.5437                 2.5096                 2.6381
 Frc consts  --      1.7115                 3.0913                 3.3878
 IR Inten    --      8.6348                41.9680                98.2116

                     34                     35                     36
                      A                      A                      A
 Frequencies --   1530.3368              1553.3746              1577.6644
 Red. masses --      1.3074                 1.1131                 2.9226
 Frc consts  --      1.8040                 1.5825                 4.2860
 IR Inten    --     30.0911                13.9867               172.4188

                     37                     38                     39
                      A                      A                      A
 Frequencies --   1657.6396              1712.3206              3043.0166
 Red. masses --      5.7858                10.6452                 1.0710
 Frc consts  --      9.3669                18.3897                 5.8429
 IR Inten    --    304.7841               330.0235                51.7698

                     40                     41                     42
                      A                      A                      A
 Frequencies --   3079.8154              3130.0954              3154.6748
 Red. masses --      1.0684                 1.0960                 1.0999
 Frc consts  --      5.9707                 6.3268                 6.4491
 IR Inten    --     13.8897                25.2035                 7.1194

                     43                     44                     45
                      A                      A                      A
 Frequencies --   3247.7852              3486.1068              3628.7304
 Red. masses --      1.0925                 1.0733                 1.0780
 Frc consts  --      6.7897                 7.6853                 8.3631
 IR Inten    --      5.0168                 4.5553                46.1029

 - Thermochemistry -
 -------------------
 Temperature   298.150 Kelvin.  Pressure   1.00000 Atm.
 Atom     1 has atomic number  6 and mass  12.00000

 Molecular mass:   137.07015 amu.
 Principal axes and moments of inertia in atomic units:
                           1         2         3
     Eigenvalues --   768.328581224.895501962.16768
           X            0.99997  -0.00580   0.00485
           Y            0.00580   0.99998  -0.00172
           Z           -0.00484   0.00175   0.99999
 This molecule is an asymmetric top.
 Rotational symmetry number  1.
 Warning -- assumption of classical behavior for rotation
           may cause significant error
 Rotational temperatures (Kelvin)      0.11273     0.07071     0.04414
 Rotational constants (GHZ):           2.34892     1.47338     0.91977
 Zero-point vibrational energy     353233.0 (Joules/Mol)
                                   84.42471 (Kcal/Mol)
 Warning -- explicit consideration of  10 degrees of freedom as
           vibrations may cause significant error
 Vibrational temperatures:    155.90   193.60   279.16   328.94   425.72
          (Kelvin)            703.26   715.70   725.67   780.95   858.77
                              980.11  1007.27  1064.24  1090.60  1114.72
                             1221.62  1256.26  1308.33  1365.91  1448.13
                             1512.34  1633.88  1644.81  1696.26  1730.99
                             1776.77  1822.18  1832.14  1880.86  1918.47
                             1973.71  2080.35  2124.13  2201.81  2234.96
                             2269.91  2384.97  2463.65  4378.22  4431.17
                             4503.51  4538.87  4672.84  5015.73  5220.93

 Zero-point correction=                           0.134539 (Hartree/Particle)
 Thermal correction to Energy=                    0.142280
 Thermal correction to Enthalpy=                  0.143224
 Thermal correction to Gibbs Free Energy=         0.101930
 Sum of electronic and zero-point Energies=           -468.338113
 Sum of electronic and thermal Energies=              -468.330372
 Sum of electronic and thermal Enthalpies=            -468.329428
 Sum of electronic and thermal Free Energies=         -468.370722

                     E (Thermal)             CV                S
                      KCal/Mol        Cal/Mol-Kelvin    Cal/Mol-Kelvin
 Total                   89.282             29.967             86.911
 Electronic               0.000              0.000              0.000
 Translational            0.889              2.981             40.658
 Rotational               0.889              2.981             29.003
 Vibrational             87.505             24.006             17.250
 Vibration     1          0.606              1.943              3.298
 Vibration     2          0.613              1.919              2.880
 Vibration     3          0.635              1.848              2.189
 Vibration     4          0.651              1.797              1.890
 Vibration     5          0.690              1.681              1.440
 Vibration     6          0.845              1.275              0.687
 Vibration     7          0.853              1.256              0.665
 Vibration     8          0.860              1.240              0.647
 Vibration     9          0.898              1.155              0.559
 Vibration    10          0.955              1.038              0.455

 Optimization completed.
    -- Stationary point found.
 Normal termination of Gaussian 16 at Tue Dec  8 10:20:42 2020.

 ----------------------------------------------------------------------
 # B3LYP/6-311++G(d,p) empiricaldispersion=gd3bj scf=xqc pop=npa geom=c
 heck
 ----------------------------------------------------------------------

 --------------------------------------
 CID_136484959_JID_178_Energie_neutraal
 --------------------------------------
 Structure from the checkpoint file:  "JID_178.chk"
 Charge =  0 Multiplicity = 1

 SCF Done:  E(RB3LYP) =  -468.604141748     A.U. after   14 cycles
 Normal termination of Gaussian 16 at Tue Dec  8 10:21:33 2020.

 ----------------------------------------------------------------------
 # B3LYP/6-311++G(d,p) empiricaldispersion=gd3bj scf=xqc pop=npa geom=c
 heck
 ----------------------------------------------------------------------

 ------------------------------------
 CID_136484959_JID_178_Energie_kation
 ------------------------------------
 Structure from the checkpoint file:  "JID_178.chk"
 Charge =  1 Multiplicity = 2

 SCF Done:  E(UB3LYP) =  -468.314107578     A.U. after   23 cycles
 Normal termination of Gaussian 16 at Tue Dec  8 10:23:41 2020.
 Gaussian 16:  ES64L-G16RevA.03 25-Dec-2016

 ----------------------------------------------------------------------
 # B3LYP/6-311++G(d,p) empiricaldispersion=gd3bj scf=xqc pop=npa geom=c
 heck
 ----------------------------------------------------------------------

 -----------------------------------
 CID_136484959_JID_178_Energie_anion
 -----------------------------------
 Structure from the checkpoint file:  "JID_178.chk"
 Charge = -1 Multiplicity = 2

                         Standard orientation:
 ---------------------------------------------------------------------
 Center     Atomic      Atomic             Coordinates (Angstroms)
 Number     Number       Type             X           Y           Z
 ---------------------------------------------------------------------
      1          6           0        2.462396    0.373038    0.173705
      2          6           0        1.279898    1.333392   -0.079798
      3          7           0        0.139516    0.425501    0.017985
      4          6           0        0.517237   -0.872121   -0.055865
      5          6           0       -0.462798   -1.843509   -0.035338
      6          7           0       -1.772538   -1.472453    0.048706
      7          7           0       -2.153966   -0.240154    0.075232
      8          6           0       -1.206931    0.808658    0.008439
      9          7           0       -1.482686    2.058145   -0.042356
     10          7           0        1.879229   -0.939347   -0.162933
     11          1           0        3.322018    0.591062   -0.463666
     12          1           0        2.781986    0.406348    1.223747
     13          1           0        1.304085    1.786581   -1.076902
     14          1           0        1.188762    2.132377    0.657303
     15          1           0       -0.250333   -2.903707   -0.071806
     16          1           0       -2.499932    2.155157   -0.019562
     17          1           0        2.347719   -1.786408    0.127597
 ---------------------------------------------------------------------

 SCF Done:  E(UB3LYP) =  -468.607763560     A.U. after   33 cycles
 SCF Done:  E(UB3LYP) =  -468.607814720     a.u. after    3 cycles

 The electronic state is 2-A.
 Alpha  occ. eigenvalues --  -14.23373 -14.22446 -14.18989 -14.17319 -14.13241
 Alpha  occ. eigenvalues --  -10.12757 -10.12325 -10.10737 -10.10539 -10.05221
 Alpha  occ. eigenvalues --   -0.91596  -0.85759  -0.79892  -0.74231  -0.67412
 Alpha  occ. eigenvalues --   -0.62909  -0.54457  -0.53783  -0.51155  -0.42430
 Alpha  occ. eigenvalues --   -0.40558  -0.39724  -0.37185  -0.33586  -0.32380
 Alpha  occ. eigenvalues --   -0.31195  -0.29971  -0.28687  -0.28328  -0.23359
 Alpha  occ. eigenvalues --   -0.20464  -0.19259  -0.14517  -0.13282  -0.08017
 Alpha  occ. eigenvalues --   -0.07571   0.04308
 Alpha virt. eigenvalues --    0.06437   0.08321   0.09476   0.10363   0.11712
 Alpha virt. eigenvalues --    0.12515   0.13072   0.13900   0.14980   0.16889
 Alpha virt. eigenvalues --    0.17178   0.17900   0.18723   0.19153   0.19672

  Beta  occ. eigenvalues --  -14.23218 -14.22391 -14.18504 -14.17087 -14.13188
  Beta  occ. eigenvalues --  -10.12549 -10.12327 -10.10696 -10.10546 -10.05320
  Beta  occ. eigenvalues --   -0.91293  -0.85235  -0.79586  -0.74066  -0.67227
  Beta  occ. eigenvalues --   -0.62601  -0.54335  -0.53477  -0.50825  -0.42205
  Beta  occ. eigenvalues --   -0.40402  -0.39499  -0.37034  -0.33414  -0.32291
  Beta  occ. eigenvalues --   -0.30739  -0.29858  -0.28379  -0.28067  -0.22215
  Beta  occ. eigenvalues --   -0.19459  -0.18878  -0.14344  -0.12798  -0.07531
  Beta  occ. eigenvalues --   -0.06965
  Beta virt. eigenvalues --    0.07502   0.09096   0.09549   0.10544   0.10586
  Beta virt. eigenvalues --    0.11935   0.12651   0.13319   0.14114   0.15206
  Beta virt. eigenvalues --    0.16949   0.17310   0.17932   0.18870   0.19455

 Mulliken charges and spin densities:
               1          2
     1  C    1.345903  -1.711608
     2  C   -0.581984   0.366957
     3  N   -0.041212   0.038457
     4  C    0.517365  -0.114832
     5  C   -0.453224  -0.092519
     6  N   -0.084725   0.189678
     7  N   -0.197120   0.132188
     8  C    0.033256  -0.108758
     9  N   -0.471541   0.023550
    10  N   -0.394189   0.256715
    11  H   -0.299617   0.456909
    12  H   -0.592575   0.776968
    13  H    0.184443  -0.001533
    14  H    0.136356   0.045862
    15  H    0.009818   0.125096
    16  H    0.232356  -0.005805
    17  H   -0.343309   0.622673
 Sum of Mulliken charges =  -1.00000   1.00000

 Dipole moment (field-independent basis, Debye):
    X=              0.9200    Y=              1.3193    Z=             -1.9040  Tot=              2.4924
 Quadrupole moment (field-independent basis, Debye-Ang):
   XX=           -106.8697   YY=            -85.6468   ZZ=            -74.9639
   XY=              2.3310   XZ=             -5.2374   YZ=              0.3960

 Summary of Natural Population Analysis:

                                       Natural Population
                Natural  -----------------------------------------------
    Atom  No    Charge         Core      Valence    Rydberg      Total
 -----------------------------------------------------------------------
      C    1   -0.08763      0.99963     2.07732    0.01067     3.08763
      C    2   -0.08603      0.99964     2.07492    0.01147     3.08603
      N    3   -0.20988      0.99957     2.70085    0.00946     3.70988
      C    4    0.25050      0.99954     1.73635    0.01361     2.74950
      C    5   -0.11754      0.99955     2.10184    0.01615     3.11754
      N    6   -0.02928      0.99975     2.51225    0.01728     3.52928
      N    7   -0.15358      0.99973     2.63511    0.01874     3.65358
      C    8    0.27872      0.99965     1.70178    0.01986     2.72128
      N    9   -0.39220      0.99971     2.88426    0.00822     3.89220
      N   10   -0.30688      0.99968     2.79636    0.01083     3.80688
      H   11    0.09540      0.00000     0.40333    0.00127     0.40460
      H   12    0.09432      0.00000     0.40022    0.00546     0.40568
      H   13    0.09652      0.00000     0.40227    0.00121     0.40348
      H   14    0.10941      0.00000     0.38914    0.00145     0.39059
      H   15    0.09422      0.00000     0.40401    0.00177     0.40578
      H   16    0.16648      0.00000     0.33125    0.00227     0.33352
      H   17    0.19744      0.00000     0.29671    0.00585     0.30256
 =======================================================================
   * Total *   -0.00000      9.99646    25.84796    0.15558    36.00000

 Normal termination of Gaussian 16 at Tue Dec  8 10:32:42 2020.
