 Gaussian 16, Revision A.03,

 -----------------------------------------------------------
 # opt freq B3LYP/6-31G(d) empiricaldispersion=gd3bj scf=xqc
 -----------------------------------------------------------

 ------------------------------
 CID_61313188_JID_3290_neutraal
 ------------------------------
 Symbolic Z-matrix:
 Charge =  0 Multiplicity = 1

 SCF Done:  E(RB3LYP) =  -560.609004242     A.U. after   15 cycles
 SCF Done:  E(RB3LYP) =  -560.633775547     A.U. after   13 cycles
 SCF Done:  E(RB3LYP) =  -560.636465753     A.U. after   13 cycles
 SCF Done:  E(RB3LYP) =  -560.636491152     A.U. after   13 cycles
 SCF Done:  E(RB3LYP) =  -560.637100726     A.U. after   12 cycles
 SCF Done:  E(RB3LYP) =  -560.636961407     A.U. after   13 cycles
 SCF Done:  E(RB3LYP) =  -560.637715406     A.U. after   12 cycles
 SCF Done:  E(RB3LYP) =  -560.638357129     A.U. after   13 cycles
 SCF Done:  E(RB3LYP) =  -560.636440190     A.U. after   15 cycles
 SCF Done:  E(RB3LYP) =  -560.639131095     A.U. after   12 cycles
 SCF Done:  E(RB3LYP) =  -560.640354984     A.U. after   10 cycles
 SCF Done:  E(RB3LYP) =  -560.640360047     A.U. after    9 cycles
 SCF Done:  E(RB3LYP) =  -560.640360744     A.U. after    8 cycles
 SCF Done:  E(RB3LYP) =  -560.640360674     A.U. after    8 cycles
 SCF Done:  E(RB3LYP) =  -560.640360860     A.U. after    8 cycles
 Optimization completed.
    -- Stationary point found.
 Normal termination of Gaussian 16 at Wed Dec  9 22:59:08 2020.

 --------------------------------------------------------------------
 #N Geom=AllCheck Guess=TCheck SCRF=Check GenChk RB3LYP/6-31G(d) Freq
 --------------------------------------------------------------------

 Structure from the checkpoint file:  "JID_3290.chk"
 ------------------------------
 CID_61313188_JID_3290_neutraal
 ------------------------------
 Charge =  0 Multiplicity = 1

 SCF Done:  E(RB3LYP) =  -560.640360860     A.U. after    1 cycles

  Exact polarizability: 126.729   0.010 114.772  -5.774   5.810 112.465
 Approx polarizability: 158.161  -3.558 161.549 -12.485  14.973 185.050

                      1                      2                      3
                      A                      A                      A
 Frequencies --     33.2812                43.8459                48.8506
 Red. masses --      3.6946                 3.3254                 3.7185
 Frc consts  --      0.0024                 0.0038                 0.0052
 IR Inten    --      0.6242                 0.7318                 1.7761

                      4                      5                      6
                      A                      A                      A
 Frequencies --     69.2665                96.3841               128.4469
 Red. masses --      2.7643                 2.5681                 6.8709
 Frc consts  --      0.0078                 0.0141                 0.0668
 IR Inten    --      0.1509                 2.7043                 6.4763

                      7                      8                      9
                      A                      A                      A
 Frequencies --    150.9673               163.5469               176.8961
 Red. masses --      4.5572                 4.0019                 2.2313
 Frc consts  --      0.0612                 0.0631                 0.0411
 IR Inten    --      0.6323                 1.6757                 4.1487

                     10                     11                     12
                      A                      A                      A
 Frequencies --    220.4362               222.9873               247.0778
 Red. masses --      1.1858                 1.4736                 1.1718
 Frc consts  --      0.0339                 0.0432                 0.0421
 IR Inten    --      0.7777                 1.8015                 0.2014

                     13                     14                     15
                      A                      A                      A
 Frequencies --    288.2675               299.3642               319.2691
 Red. masses --      1.6287                 2.6275                 2.4744
 Frc consts  --      0.0797                 0.1387                 0.1486
 IR Inten    --      0.7445                 4.9974                 0.4755

                     16                     17                     18
                      A                      A                      A
 Frequencies --    365.9725               371.5271               403.8580
 Red. masses --      2.7873                 2.4877                 2.5727
 Frc consts  --      0.2200                 0.2023                 0.2472
 IR Inten    --      0.4226                 0.2336                 2.2162

                     19                     20                     21
                      A                      A                      A
 Frequencies --    422.4460               481.9303               500.0760
 Red. masses --      2.4824                 2.6452                 3.8752
 Frc consts  --      0.2610                 0.3620                 0.5710
 IR Inten    --      0.1048                 4.4803                 1.0718

                     22                     23                     24
                      A                      A                      A
 Frequencies --    539.4612               576.6683               679.6691
 Red. masses --      5.4441                 2.9102                 3.1776
 Frc consts  --      0.9335                 0.5702                 0.8649
 IR Inten    --      1.3929                 0.1310                 7.9760

                     25                     26                     27
                      A                      A                      A
 Frequencies --    717.4825               775.0910               807.1446
 Red. masses --      1.6477                 1.5985                 3.1725
 Frc consts  --      0.4998                 0.5658                 1.2177
 IR Inten    --     13.2257                 1.5767                 2.5135

                     28                     29                     30
                      A                      A                      A
 Frequencies --    848.9575               866.0778               903.4129
 Red. masses --      2.4844                 1.5475                 2.1798
 Frc consts  --      1.0550                 0.6839                 1.0482
 IR Inten    --      0.3548                 0.7179                 2.6613

                     31                     32                     33
                      A                      A                      A
 Frequencies --    933.1082               952.1970               964.4145
 Red. masses --      2.1894                 1.1871                 1.5750
 Frc consts  --      1.1231                 0.6342                 0.8631
 IR Inten    --      1.4556                 3.6398                 0.9193

                     34                     35                     36
                      A                      A                      A
 Frequencies --    979.4885               990.0217              1018.9117
 Red. masses --      1.5127                 1.9122                 3.0318
 Frc consts  --      0.8551                 1.1043                 1.8545
 IR Inten    --      1.0047                 1.2688                 0.1543

                     37                     38                     39
                      A                      A                      A
 Frequencies --   1036.4228              1086.9333              1098.4778
 Red. masses --      1.7854                 1.9146                 1.9150
 Frc consts  --      1.1299                 1.3327                 1.3614
 IR Inten    --      2.6848                39.7155                 4.8023

                     40                     41                     42
                      A                      A                      A
 Frequencies --   1128.9850              1144.8294              1153.7949
 Red. masses --      1.8814                 1.9886                 2.1445
 Frc consts  --      1.4129                 1.5356                 1.6820
 IR Inten    --     14.9523                 3.5501                 4.4404

                     43                     44                     45
                      A                      A                      A
 Frequencies --   1179.9395              1199.9255              1225.9921
 Red. masses --      2.5788                 1.6712                 1.2868
 Frc consts  --      2.1154                 1.4177                 1.1395
 IR Inten    --     44.4456                 6.8396                 1.4711

                     46                     47                     48
                      A                      A                      A
 Frequencies --   1248.9713              1269.6622              1300.2590
 Red. masses --      1.4170                 1.3809                 1.2435
 Frc consts  --      1.3024                 1.3116                 1.2386
 IR Inten    --     14.5038                 0.5161                 2.8267

                     49                     50                     51
                      A                      A                      A
 Frequencies --   1318.4568              1339.8653              1370.7814
 Red. masses --      1.3629                 1.1505                 1.3914
 Frc consts  --      1.3958                 1.2169                 1.5404
 IR Inten    --      3.1741                 7.7972                 0.3787

                     52                     53                     54
                      A                      A                      A
 Frequencies --   1379.6325              1384.5363              1397.9287
 Red. masses --      1.2983                 1.3857                 1.5676
 Frc consts  --      1.4559                 1.5650                 1.8050
 IR Inten    --      7.4011                 6.0520                 8.9630

                     55                     56                     57
                      A                      A                      A
 Frequencies --   1415.6860              1423.0422              1436.0134
 Red. masses --      1.3814                 1.4987                 1.2352
 Frc consts  --      1.6311                 1.7881                 1.5007
 IR Inten    --      0.6622                14.9163                 3.4084

                     58                     59                     60
                      A                      A                      A
 Frequencies --   1444.8528              1456.5438              1479.2722
 Red. masses --      1.2644                 1.2197                 1.0851
 Frc consts  --      1.5552                 1.5245                 1.3990
 IR Inten    --      5.2436                 8.3071                13.2474

                     61                     62                     63
                      A                      A                      A
 Frequencies --   1511.1015              1515.2586              1521.5600
 Red. masses --      1.0725                 1.0487                 1.0484
 Frc consts  --      1.4429                 1.4186                 1.4301
 IR Inten    --      5.0673                 0.2259                 1.7654

                     64                     65                     66
                      A                      A                      A
 Frequencies --   1524.4956              1525.8421              1533.2074
 Red. masses --      1.0769                 1.0568                 1.0522
 Frc consts  --      1.4747                 1.4496                 1.4573
 IR Inten    --     11.9119                 1.5411                 3.8876

                     67                     68                     69
                      A                      A                      A
 Frequencies --   1535.2907              1539.9959              1542.0605
 Red. masses --      1.0562                 1.0468                 1.0724
 Frc consts  --      1.4668                 1.4627                 1.5025
 IR Inten    --      5.7977                 7.4576                 7.4256

                     70                     71                     72
                      A                      A                      A
 Frequencies --   1816.7250              2359.9620              3033.1004
 Red. masses --     10.9270                12.6549                 1.0649
 Frc consts  --     21.2486                41.5260                 5.7719
 IR Inten    --    129.8366                10.9199                21.0794

                     73                     74                     75
                      A                      A                      A
 Frequencies --   3039.4183              3039.7263              3042.1975
 Red. masses --      1.0663                 1.0676                 1.0811
 Frc consts  --      5.8039                 5.8121                 5.8950
 IR Inten    --     33.3043                 7.5348                 6.7616

                     76                     77                     78
                      A                      A                      A
 Frequencies --   3046.2248              3051.0750              3059.3582
 Red. masses --      1.0374                 1.0379                 1.0386
 Frc consts  --      5.6717                 5.6926                 5.7274
 IR Inten    --     21.9211                20.3542                22.1171

                     79                     80                     81
                      A                      A                      A
 Frequencies --   3063.8275              3066.7566              3078.4340
 Red. masses --      1.0783                 1.0814                 1.0839
 Frc consts  --      5.9638                 5.9922                 6.0520
 IR Inten    --     22.6372                30.6316                 4.4111

                     82                     83                     84
                      A                      A                      A
 Frequencies --   3081.7022              3090.0697              3107.4838
 Red. masses --      1.0934                 1.0946                 1.1016
 Frc consts  --      6.1177                 6.1580                 6.2673
 IR Inten    --      5.1764                48.1911                43.9384

                     85                     86                     87
                      A                      A                      A
 Frequencies --   3111.5367              3116.6987              3116.7978
 Red. masses --      1.1019                 1.1019                 1.1016
 Frc consts  --      6.2853                 6.3064                 6.3049
 IR Inten    --     52.4772                36.7601                 4.9023

                     88                     89                     90
                      A                      A                      A
 Frequencies --   3124.8190              3135.8718              3145.6871
 Red. masses --      1.1013                 1.1024                 1.1003
 Frc consts  --      6.3357                 6.3872                 6.4151
 IR Inten    --     42.5792                17.2574                21.8600

 - Thermochemistry -
 -------------------
 Temperature   298.150 Kelvin.  Pressure   1.00000 Atm.
 Atom     1 has atomic number  6 and mass  12.00000

 Molecular mass:   181.14666 amu.
 Principal axes and moments of inertia in atomic units:
                           1         2         3
     Eigenvalues --  1822.612213719.316154034.28682
           X            0.99928   0.03221   0.02023
           Y           -0.03191   0.99937  -0.01532
           Z           -0.02071   0.01466   0.99968
 This molecule is an asymmetric top.
 Rotational symmetry number  1.
 Warning -- assumption of classical behavior for rotation
           may cause significant error
 Rotational temperatures (Kelvin)      0.04752     0.02329     0.02147
 Rotational constants (GHZ):           0.99019     0.48523     0.44735
 Zero-point vibrational energy     747689.3 (Joules/Mol)
                                  178.70204 (Kcal/Mol)
 Warning -- explicit consideration of  23 degrees of freedom as
           vibrations may cause significant error
 Vibrational temperatures:     47.88    63.08    70.29    99.66   138.68
          (Kelvin)            184.81   217.21   235.31   254.51   317.16
                              320.83   355.49   414.75   430.72   459.36
                              526.55   534.54   581.06   607.81   693.39
                              719.50   776.16   829.70   977.89  1032.30
                             1115.18  1161.30  1221.46  1246.09  1299.81
                             1342.53  1370.00  1387.58  1409.27  1424.42
                             1465.99  1491.18  1563.85  1580.46  1624.36
                             1647.15  1660.05  1697.67  1726.43  1763.93
                             1796.99  1826.76  1870.78  1896.97  1927.77
                             1972.25  1984.98  1992.04  2011.31  2036.86
                             2047.44  2066.10  2078.82  2095.64  2128.34
                             2174.14  2180.12  2189.19  2193.41  2195.35
                             2205.94  2208.94  2215.71  2218.68  2613.86
                             3395.46  4363.95  4373.05  4373.49  4377.04
                             4382.84  4389.82  4401.73  4408.16  4412.38
                             4429.18  4433.88  4445.92  4470.98  4476.81
                             4484.23  4484.38  4495.92  4511.82  4525.94

 Zero-point correction=                           0.284780 (Hartree/Particle)
 Thermal correction to Energy=                    0.300332
 Thermal correction to Enthalpy=                  0.301276
 Thermal correction to Gibbs Free Energy=         0.241287
 Sum of electronic and zero-point Energies=           -560.355581
 Sum of electronic and thermal Energies=              -560.340029
 Sum of electronic and thermal Enthalpies=            -560.339085
 Sum of electronic and thermal Free Energies=         -560.399074

                     E (Thermal)             CV                S
                      KCal/Mol        Cal/Mol-Kelvin    Cal/Mol-Kelvin
 Total                  188.461             56.260            126.257
 Electronic               0.000              0.000              0.000
 Translational            0.889              2.981             41.489
 Rotational               0.889              2.981             31.681
 Vibrational            186.684             50.299             53.087
 Vibration     1          0.594              1.983              5.624
 Vibration     2          0.595              1.980              5.077
 Vibration     3          0.595              1.978              4.863
 Vibration     4          0.598              1.969              4.174
 Vibration     5          0.603              1.952              3.526
 Vibration     6          0.611              1.925              2.969
 Vibration     7          0.618              1.902              2.660
 Vibration     8          0.623              1.887              2.508
 Vibration     9          0.628              1.871              2.361
 Vibration    10          0.647              1.810              1.956
 Vibration    11          0.649              1.806              1.935
 Vibration    12          0.661              1.768              1.751
 Vibration    13          0.685              1.696              1.484
 Vibration    14          0.692              1.675              1.420
 Vibration    15          0.705              1.637              1.314
 Vibration    16          0.739              1.542              1.097
 Vibration    17          0.743              1.531              1.073
 Vibration    18          0.769              1.462              0.949
 Vibration    19          0.785              1.421              0.884
 Vibration    20          0.838              1.290              0.705
 Vibration    21          0.855              1.250              0.658
 Vibration    22          0.895              1.163              0.566
 Vibration    23          0.933              1.082              0.492

 Optimization completed.
    -- Stationary point found.
 Normal termination of Gaussian 16 at Wed Dec  9 23:07:34 2020.

 ----------------------------------------------------------------------
 # B3LYP/6-311++G(d,p) empiricaldispersion=gd3bj scf=xqc pop=npa geom=c
 heck
 ----------------------------------------------------------------------

 --------------------------------------
 CID_61313188_JID_3290_Energie_neutraal
 --------------------------------------
 Structure from the checkpoint file:  "JID_3290.chk"
 Charge =  0 Multiplicity = 1

 SCF Done:  E(RB3LYP) =  -560.799849195     A.U. after   13 cycles
 Normal termination of Gaussian 16 at Wed Dec  9 23:10:41 2020.

 ----------------------------------------------------------------------
 # B3LYP/6-311++G(d,p) empiricaldispersion=gd3bj scf=xqc pop=npa geom=c
 heck
 ----------------------------------------------------------------------

 ------------------------------------
 CID_61313188_JID_3290_Energie_kation
 ------------------------------------
 Structure from the checkpoint file:  "JID_3290.chk"
 Charge =  1 Multiplicity = 2

 SCF Done:  E(UB3LYP) =  -560.453026873     A.U. after   24 cycles
 Normal termination of Gaussian 16 at Wed Dec  9 23:18:17 2020.
 Gaussian 16:  ES64L-G16RevA.03 25-Dec-2016

 ----------------------------------------------------------------------
 # B3LYP/6-311++G(d,p) empiricaldispersion=gd3bj scf=xqc pop=npa geom=c
 heck
 ----------------------------------------------------------------------

 -----------------------------------
 CID_61313188_JID_3290_Energie_anion
 -----------------------------------
 Structure from the checkpoint file:  "JID_3290.chk"
 Charge = -1 Multiplicity = 2

                         Standard orientation:
 ---------------------------------------------------------------------
 Center     Atomic      Atomic             Coordinates (Angstroms)
 Number     Number       Type             X           Y           Z
 ---------------------------------------------------------------------
      1          6           0       -3.357173    0.747813   -1.659800
      2          6           0       -2.591253    1.139384   -0.392792
      3          6           0       -2.655162    0.090449    0.727880
      4          6           0       -2.123743   -1.303782    0.357264
      5          6           0       -0.684217   -1.313742   -0.164233
      6          6           0        0.341954   -0.881616    0.864665
      7          8           0        0.129448   -0.880083    2.059322
      8          6           0        1.712593   -0.392388    0.341115
      9          6           0        2.201047   -1.254308   -0.737108
     10          7           0        2.560193   -1.937364   -1.604708
     11          6           0        1.636936    1.099828   -0.126446
     12          6           0        1.109767    1.997409    0.998058
     13          6           0        3.010205    1.575302   -0.614025
     14          1           0       -2.925832   -0.138472   -2.138882
     15          1           0       -3.345040    1.558357   -2.396660
     16          1           0       -4.405199    0.520224   -1.429574
     17          1           0       -1.544339    1.350106   -0.651567
     18          1           0       -2.993314    2.083854   -0.004111
     19          1           0       -2.103221    0.458267    1.600542
     20          1           0       -3.699608   -0.017886    1.050172
     21          1           0       -2.179328   -1.946743    1.241899
     22          1           0       -2.765892   -1.759419   -0.405169
     23          1           0       -0.397884   -2.328871   -0.476439
     24          1           0       -0.570983   -0.702578   -1.067725
     25          1           0        2.406675   -0.454966    1.187160
     26          1           0        0.937262    1.140948   -0.971637
     27          1           0        1.753591    1.931621    1.882844
     28          1           0        1.098704    3.040145    0.664250
     29          1           0        0.095799    1.730742    1.306475
     30          1           0        3.386330    0.956752   -1.434393
     31          1           0        2.946909    2.609622   -0.968048
     32          1           0        3.742707    1.544417    0.201778
 ---------------------------------------------------------------------

 SCF Done:  E(UB3LYP) =  -560.793041693     A.U. after   33 cycles
 SCF Done:  E(UB3LYP) =  -560.793041693     a.u. after    1 cycles

 The electronic state is 2-A.
 Alpha  occ. eigenvalues --  -18.97108 -14.20191 -10.11090 -10.10241 -10.10164
 Alpha  occ. eigenvalues --  -10.08641 -10.06193 -10.05924 -10.05891 -10.05870
 Alpha  occ. eigenvalues --  -10.05601 -10.05593 -10.05482  -0.91233  -0.80167
 Alpha  occ. eigenvalues --   -0.72360  -0.69996  -0.65423  -0.63216  -0.58818
 Alpha  occ. eigenvalues --   -0.58326  -0.52640  -0.48269  -0.46275  -0.42885
 Alpha  occ. eigenvalues --   -0.40226  -0.37535  -0.37050  -0.35188  -0.34311
 Alpha  occ. eigenvalues --   -0.32768  -0.31737  -0.30500  -0.29926  -0.29346
 Alpha  occ. eigenvalues --   -0.28490  -0.27417  -0.26699  -0.26490  -0.25818
 Alpha  occ. eigenvalues --   -0.24991  -0.24645  -0.24092  -0.23420  -0.22746
 Alpha  occ. eigenvalues --   -0.21878  -0.21364  -0.21350  -0.21023  -0.12445
 Alpha  occ. eigenvalues --    0.04796
 Alpha virt. eigenvalues --    0.06676   0.07282   0.08632   0.08783   0.09681
 Alpha virt. eigenvalues --    0.09882   0.10343   0.11541   0.11599   0.11912
 Alpha virt. eigenvalues --    0.12398   0.12724   0.13155   0.13436   0.13806

  Beta  occ. eigenvalues --  -18.96764 -14.20155 -10.10661 -10.10277 -10.10137
  Beta  occ. eigenvalues --  -10.08569 -10.06171 -10.05961 -10.05876 -10.05864
  Beta  occ. eigenvalues --  -10.05593 -10.05568 -10.05477  -0.90542  -0.80098
  Beta  occ. eigenvalues --   -0.72203  -0.69956  -0.65259  -0.63123  -0.58766
  Beta  occ. eigenvalues --   -0.58245  -0.52498  -0.48166  -0.46054  -0.42516
  Beta  occ. eigenvalues --   -0.39987  -0.37393  -0.36823  -0.35073  -0.34177
  Beta  occ. eigenvalues --   -0.32635  -0.31486  -0.30398  -0.29755  -0.29277
  Beta  occ. eigenvalues --   -0.28408  -0.27138  -0.26600  -0.26296  -0.25723
  Beta  occ. eigenvalues --   -0.24885  -0.24421  -0.23987  -0.22823  -0.22447
  Beta  occ. eigenvalues --   -0.21776  -0.21314  -0.21293  -0.20384  -0.12182
  Beta virt. eigenvalues --    0.07124   0.07728   0.08740   0.08909   0.09687
  Beta virt. eigenvalues --    0.09915   0.10479   0.10844   0.11735   0.11843
  Beta virt. eigenvalues --    0.12138   0.12489   0.12928   0.13324   0.13482

 Mulliken charges and spin densities:
               1          2
     1  C    0.532799  -1.186500
     2  C   -0.656975   0.435959
     3  C    0.245518  -0.363830
     4  C   -0.487760   0.058111
     5  C    0.011660  -0.134644
     6  C   -0.228279   0.223139
     7  O   -0.321942   0.123011
     8  C    0.902796  -0.219307
     9  C   -0.532323  -0.056759
    10  N   -0.310203   0.029438
    11  C   -0.403947   0.783523
    12  C   -0.260804  -0.454948
    13  C    0.150745  -0.822156
    14  H   -0.016389   0.154924
    15  H   -0.387981   0.530214
    16  H    0.005398   0.121863
    17  H    0.206527  -0.067406
    18  H   -0.402085   0.557994
    19  H    0.162201   0.021023
    20  H    0.019502   0.120469
    21  H    0.173294  -0.004234
    22  H    0.156582  -0.008464
    23  H    0.164391   0.033676
    24  H    0.127016   0.050978
    25  H    0.241827  -0.004590
    26  H    0.048876   0.111148
    27  H    0.080617   0.063827
    28  H   -0.221915   0.373785
    29  H    0.122285  -0.029341
    30  H    0.098788   0.065356
    31  H   -0.305861   0.453250
    32  H    0.085642   0.040492
 Sum of Mulliken charges =  -1.00000   1.00000

 Dipole moment (field-independent basis, Debye):
    X=              0.0832    Y=             -2.8617    Z=              2.0547  Tot=              3.5239
 Quadrupole moment (field-independent basis, Debye-Ang):
   XX=           -130.8907   YY=           -127.6081   ZZ=           -119.0891
   XY=             10.7463   XZ=              4.1666   YZ=              3.8577

 Summary of Natural Population Analysis:

                                       Natural Population
                Natural  -----------------------------------------------
    Atom  No    Charge         Core      Valence    Rydberg      Total
 -----------------------------------------------------------------------
      C    1   -0.28735      0.99967     2.28215    0.00554     3.28735
      C    2   -0.19420      0.99964     2.18620    0.00836     3.19420
      C    3   -0.19177      0.99963     2.18303    0.00911     3.19177
      C    4   -0.18811      0.99963     2.17977    0.00870     3.18811
      C    5   -0.24505      0.99958     2.23803    0.00744     3.24505
      C    6    0.35032      0.99966     1.62682    0.02321     2.64968
      O    7   -0.26566      0.99987     3.25978    0.00600     4.26566
      C    8   -0.20311      0.99946     2.19327    0.01037     3.20311
      C    9    0.16909      0.99965     1.81141    0.01985     2.83091
      N   10   -0.19284      0.99979     2.68235    0.01070     3.69284
      C   11   -0.09502      0.99960     2.08585    0.00957     3.09502
      C   12   -0.28656      0.99964     2.28048    0.00644     3.28656
      C   13   -0.28665      0.99965     2.28079    0.00621     3.28665
      H   14    0.09479      0.00000     0.40439    0.00082     0.40521
      H   15    0.10052      0.00000     0.39839    0.00109     0.39948
      H   16    0.09297      0.00000     0.40616    0.00087     0.40703
      H   17    0.09423      0.00000     0.40406    0.00172     0.40577
      H   18    0.09627      0.00000     0.40238    0.00136     0.40373
      H   19    0.10601      0.00000     0.39297    0.00102     0.39399
      H   20    0.09080      0.00000     0.40830    0.00090     0.40920
      H   21    0.10325      0.00000     0.39579    0.00096     0.39675
      H   22    0.09153      0.00000     0.40748    0.00099     0.40847
      H   23    0.11587      0.00000     0.38319    0.00093     0.38413
      H   24    0.10441      0.00000     0.39456    0.00103     0.39559
      H   25    0.12329      0.00000     0.37516    0.00155     0.37671
      H   26    0.09535      0.00000     0.40166    0.00299     0.40465
      H   27    0.09676      0.00000     0.40248    0.00077     0.40324
      H   28    0.10120      0.00000     0.39775    0.00105     0.39880
      H   29    0.10837      0.00000     0.39067    0.00096     0.39163
      H   30    0.10439      0.00000     0.39474    0.00087     0.39561
      H   31    0.10348      0.00000     0.39532    0.00119     0.39652
      H   32    0.09342      0.00000     0.40564    0.00094     0.40658
 =======================================================================
   * Total *   -0.00000     12.99546    36.85104    0.15350    50.00000

 Normal termination of Gaussian 16 at Wed Dec  9 23:28:47 2020.
