 Gaussian 16, Revision A.03,

 -----------------------------------------------------------
 # opt freq B3LYP/6-31G(d) empiricaldispersion=gd3bj scf=xqc
 -----------------------------------------------------------

 ---------------------------
 CID_24022_JID_7160_neutraal
 ---------------------------
 Symbolic Z-matrix:
 Charge =  0 Multiplicity = 1

 SCF Done:  E(RB3LYP) =  -750.173559621     A.U. after   14 cycles
 SCF Done:  E(RB3LYP) =  -750.177830213     A.U. after   12 cycles
 SCF Done:  E(RB3LYP) =  -750.178220678     A.U. after   12 cycles
 SCF Done:  E(RB3LYP) =  -750.178584659     A.U. after   11 cycles
 SCF Done:  E(RB3LYP) =  -750.178685149     A.U. after   11 cycles
 SCF Done:  E(RB3LYP) =  -750.178753122     A.U. after   11 cycles
 SCF Done:  E(RB3LYP) =  -750.178843560     A.U. after   12 cycles
 SCF Done:  E(RB3LYP) =  -750.178931921     A.U. after   11 cycles
 SCF Done:  E(RB3LYP) =  -750.178969142     A.U. after   11 cycles
 SCF Done:  E(RB3LYP) =  -750.178973109     A.U. after    9 cycles
 SCF Done:  E(RB3LYP) =  -750.178987514     A.U. after   10 cycles
 SCF Done:  E(RB3LYP) =  -750.178988166     A.U. after    9 cycles
 SCF Done:  E(RB3LYP) =  -750.178988230     A.U. after    7 cycles
 SCF Done:  E(RB3LYP) =  -750.178988271     A.U. after    7 cycles
 Optimization completed.
    -- Stationary point found.
 Normal termination of Gaussian 16 at Mon Dec 14 13:24:27 2020.

 --------------------------------------------------------------------
 #N Geom=AllCheck Guess=TCheck SCRF=Check GenChk RB3LYP/6-31G(d) Freq
 --------------------------------------------------------------------

 Structure from the checkpoint file:  "JID_7160.chk"
 ---------------------------
 CID_24022_JID_7160_neutraal
 ---------------------------
 Charge =  0 Multiplicity = 1

 SCF Done:  E(RB3LYP) =  -750.178988271     A.U. after    1 cycles

  Exact polarizability: 172.157  10.060 161.865 -16.915   7.549 115.221
 Approx polarizability: 231.802  16.581 241.228 -32.557  20.509 186.124

                      1                      2                      3
                      A                      A                      A
 Frequencies --     19.2014                27.0653                63.2082
 Red. masses --      4.7338                 3.6049                 3.4229
 Frc consts  --      0.0010                 0.0016                 0.0081
 IR Inten    --      0.2716                 0.1039                 0.4120

                      4                      5                      6
                      A                      A                      A
 Frequencies --    101.0964               123.7205               164.4449
 Red. masses --      3.4761                 4.2372                 5.7239
 Frc consts  --      0.0209                 0.0382                 0.0912
 IR Inten    --      0.3223                 0.4675                 1.5926

                      7                      8                      9
                      A                      A                      A
 Frequencies --    185.6009               232.4949               254.0316
 Red. masses --      4.2612                 2.4544                 3.8269
 Frc consts  --      0.0865                 0.0782                 0.1455
 IR Inten    --      0.1716                 2.8757                 2.8860

                     10                     11                     12
                      A                      A                      A
 Frequencies --    257.8112               312.7138               333.8268
 Red. masses --      2.3683                 4.2526                 2.7172
 Frc consts  --      0.0927                 0.2450                 0.1784
 IR Inten    --      1.5974                 1.1640                 0.3815

                     13                     14                     15
                      A                      A                      A
 Frequencies --    367.6471               404.8074               418.5139
 Red. masses --      2.8345                 3.2479                 3.1000
 Frc consts  --      0.2257                 0.3136                 0.3199
 IR Inten    --      0.7577                 4.0354                 0.2189

                     16                     17                     18
                      A                      A                      A
 Frequencies --    445.8632               464.1462               492.2929
 Red. masses --      3.1644                 3.0091                 3.7980
 Frc consts  --      0.3706                 0.3819                 0.5423
 IR Inten    --      7.8189                 0.9379                 1.2335

                     19                     20                     21
                      A                      A                      A
 Frequencies --    539.1502               625.4169               635.9301
 Red. masses --      1.5366                 3.3213                 6.0255
 Frc consts  --      0.2632                 0.7654                 1.4357
 IR Inten    --     14.5121                 6.1632                 0.7621

                     22                     23                     24
                      A                      A                      A
 Frequencies --    650.4868               712.5104               724.6348
 Red. masses --      4.6378                 3.1708                 2.4440
 Frc consts  --      1.1562                 0.9484                 0.7561
 IR Inten    --      5.5824                11.0167                21.3863

                     25                     26                     27
                      A                      A                      A
 Frequencies --    768.5616               772.1375               793.6301
 Red. masses --      1.8372                 1.8335                 3.6092
 Frc consts  --      0.6394                 0.6441                 1.3393
 IR Inten    --     93.9278                11.4116                 4.2635

                     28                     29                     30
                      A                      A                      A
 Frequencies --    813.8736               854.8866               865.8430
 Red. masses --      2.9162                 2.2531                 1.8558
 Frc consts  --      1.1381                 0.9702                 0.8197
 IR Inten    --      2.3839                 5.5644                 4.0000

                     31                     32                     33
                      A                      A                      A
 Frequencies --    866.8987               871.1743               915.6511
 Red. masses --      1.7325                 1.8717                 1.9519
 Frc consts  --      0.7671                 0.8370                 0.9642
 IR Inten    --      3.3162                 3.8511                 1.6798

                     34                     35                     36
                      A                      A                      A
 Frequencies --    939.7242               942.7601               952.3857
 Red. masses --      2.0660                 1.5694                 2.0103
 Frc consts  --      1.0749                 0.8219                 1.0743
 IR Inten    --      0.1713                 8.0240                 1.2588

                     37                     38                     39
                      A                      A                      A
 Frequencies --    979.8157               997.8298              1002.7084
 Red. masses --      1.3349                 2.1761                 1.8748
 Frc consts  --      0.7551                 1.2766                 1.1106
 IR Inten    --      2.6785                11.2409                17.5348

                     40                     41                     42
                      A                      A                      A
 Frequencies --   1011.4025              1016.9711              1022.7593
 Red. masses --      2.0513                 2.5055                 5.9930
 Frc consts  --      1.2363                 1.5267                 3.6935
 IR Inten    --     21.1646                16.9468                 2.6688

                     43                     44                     45
                      A                      A                      A
 Frequencies --   1040.5411              1057.6864              1065.8553
 Red. masses --      2.4826                 2.2934                 2.3419
 Frc consts  --      1.5837                 1.5116                 1.5675
 IR Inten    --     32.1853                14.8297                26.5827

                     46                     47                     48
                      A                      A                      A
 Frequencies --   1078.6988              1096.4075              1116.2916
 Red. masses --      1.8437                 1.9781                 1.6981
 Frc consts  --      1.2639                 1.4010                 1.2467
 IR Inten    --      5.2088                29.2092                 4.5361

                     49                     50                     51
                      A                      A                      A
 Frequencies --   1124.8831              1151.1861              1155.8362
 Red. masses --      2.8174                 3.1573                 2.9117
 Frc consts  --      2.1005                 2.4652                 2.2919
 IR Inten    --    108.4098                82.3452                47.1940

                     52                     53                     54
                      A                      A                      A
 Frequencies --   1166.6574              1193.0068              1193.9163
 Red. masses --      1.9764                 1.2547                 1.1143
 Frc consts  --      1.5849                 1.0521                 0.9358
 IR Inten    --     19.9620                 3.8817                 0.6475

                     55                     56                     57
                      A                      A                      A
 Frequencies --   1211.9759              1241.0121              1252.8980
 Red. masses --      1.1327                 1.3856                 2.3805
 Frc consts  --      0.9803                 1.2573                 2.2017
 IR Inten    --      6.8930                 6.7784                41.0035

                     58                     59                     60
                      A                      A                      A
 Frequencies --   1261.3233              1291.0272              1310.8488
 Red. masses --      1.3037                 1.2221                 1.2338
 Frc consts  --      1.2221                 1.2001                 1.2491
 IR Inten    --     20.5687                 4.6123                12.6040

                     61                     62                     63
                      A                      A                      A
 Frequencies --   1328.3458              1334.9132              1352.4214
 Red. masses --      1.2888                 1.6168                 1.3248
 Frc consts  --      1.3399                 1.6975                 1.4277
 IR Inten    --      2.7641                 0.4456                24.4811

                     64                     65                     66
                      A                      A                      A
 Frequencies --   1363.1614              1368.3740              1375.0832
 Red. masses --      1.3326                 2.6484                 1.3351
 Frc consts  --      1.4590                 2.9217                 1.4874
 IR Inten    --     16.4790                 1.4963                27.9379

                     67                     68                     69
                      A                      A                      A
 Frequencies --   1381.5018              1395.8818              1402.7222
 Red. masses --      1.3848                 1.2626                 1.4410
 Frc consts  --      1.5572                 1.4495                 1.6705
 IR Inten    --      7.5323                11.0234                18.4487

                     70                     71                     72
                      A                      A                      A
 Frequencies --   1404.7277              1415.4865              1422.1470
 Red. masses --      1.4614                 1.5214                 1.5866
 Frc consts  --      1.6990                 1.7960                 1.8906
 IR Inten    --      0.1184                 4.6708                86.4219

                     73                     74                     75
                      A                      A                      A
 Frequencies --   1448.7127              1500.3440              1501.6525
 Red. masses --      1.5044                 1.1105                 2.1859
 Frc consts  --      1.8603                 1.4728                 2.9042
 IR Inten    --      8.6220                 6.8367                11.8609

                     76                     77                     78
                      A                      A                      A
 Frequencies --   1511.7590              1518.2006              1523.8020
 Red. masses --      1.0890                 1.2618                 1.1502
 Frc consts  --      1.4664                 1.7135                 1.5735
 IR Inten    --      7.3465                 4.7066                 2.8941

                     79                     80                     81
                      A                      A                      A
 Frequencies --   1535.1520              1540.5081              1549.1439
 Red. masses --      1.1075                 1.1062                 2.2811
 Frc consts  --      1.5378                 1.5467                 3.2254
 IR Inten    --      0.7914                 3.7699                 2.8786

                     82                     83                     84
                      A                      A                      A
 Frequencies --   1649.5078              1670.5969              2860.4268
 Red. masses --      5.7435                 5.5661                 1.0794
 Frc consts  --      9.2074                 9.1526                 5.2034
 IR Inten    --      0.5793                 0.0495                75.5730

                     85                     86                     87
                      A                      A                      A
 Frequencies --   2911.9007              2957.3780              3011.9145
 Red. masses --      1.0734                 1.0828                 1.0737
 Frc consts  --      5.3626                 5.5795                 5.7387
 IR Inten    --    111.9515               100.4253                42.6763

                     88                     89                     90
                      A                      A                      A
 Frequencies --   3020.8188              3033.4485              3046.5541
 Red. masses --      1.0678                 1.0836                 1.0611
 Frc consts  --      5.7411                 5.8750                 5.8026
 IR Inten    --     39.1573               118.2765                18.4861

                     91                     92                     93
                      A                      A                      A
 Frequencies --   3073.7146              3079.6448              3083.5119
 Red. masses --      1.0818                 1.0855                 1.0773
 Frc consts  --      6.0219                 6.0655                 6.0348
 IR Inten    --     26.3993                76.2154                20.9375

                     94                     95                     96
                      A                      A                      A
 Frequencies --   3091.7689              3130.9539              3135.7625
 Red. masses --      1.1049                 1.1001                 1.0954
 Frc consts  --      6.2226                 6.3537                 6.3460
 IR Inten    --     51.9002                 9.5941                28.1421

                     97                     98                     99
                      A                      A                      A
 Frequencies --   3180.8812              3189.6935              3199.0292
 Red. masses --      1.0848                 1.0883                 1.0928
 Frc consts  --      6.4671                 6.5236                 6.5889
 IR Inten    --      0.2180                 7.4915                31.7927

                    100                    101                    102
                      A                      A                      A
 Frequencies --   3208.9183              3228.2969              3486.1301
 Red. masses --      1.0970                 1.0928                 1.0743
 Frc consts  --      6.6557                 6.7102                 7.6922
 IR Inten    --     25.9643                 2.7116                 2.5177

 - Thermochemistry -
 -------------------
 Temperature   298.150 Kelvin.  Pressure   1.00000 Atm.
 Atom     1 has atomic number  6 and mass  12.00000

 Molecular mass:   233.14158 amu.
 Principal axes and moments of inertia in atomic units:
                           1         2         3
     Eigenvalues --  2459.099225325.187056605.91789
           X            0.99997  -0.00789   0.00016
           Y            0.00789   0.99997  -0.00086
           Z           -0.00015   0.00086   1.00000
 This molecule is an asymmetric top.
 Rotational symmetry number  1.
 Warning -- assumption of classical behavior for rotation
           may cause significant error
 Rotational temperatures (Kelvin)      0.03522     0.01626     0.01311
 Rotational constants (GHZ):           0.73390     0.33891     0.27320
 Zero-point vibrational energy     827699.6 (Joules/Mol)
                                  197.82496 (Kcal/Mol)
 Warning -- explicit consideration of  19 degrees of freedom as
           vibrations may cause significant error
 Vibrational temperatures:     27.63    38.94    90.94   145.46   178.01
          (Kelvin)            236.60   267.04   334.51   365.49   370.93
                              449.93   480.30   528.96   582.43   602.15
                              641.50   667.80   708.30   775.72   899.84
                              914.96   935.91  1025.14  1042.59  1105.79
                             1110.93  1141.86  1170.98  1229.99  1245.75
                             1247.27  1253.43  1317.42  1352.05  1356.42
                             1370.27  1409.74  1435.65  1442.67  1455.18
                             1463.19  1471.52  1497.11  1521.77  1533.53
                             1552.01  1577.49  1606.09  1618.46  1656.30
                             1662.99  1678.56  1716.47  1717.78  1743.76
                             1785.54  1802.64  1814.76  1857.50  1886.02
                             1911.19  1920.64  1945.83  1961.29  1968.78
                             1978.44  1987.67  2008.36  2018.20  2021.09
                             2036.57  2046.15  2084.37  2158.66  2160.54
                             2175.08  2184.35  2192.41  2208.74  2216.45
                             2228.87  2373.27  2403.62  4115.52  4189.58
                             4255.01  4333.47  4346.28  4364.46  4383.31
                             4422.39  4430.92  4436.49  4448.37  4504.74
                             4511.66  4576.58  4589.26  4602.69  4616.92
                             4644.80  5015.76

 Zero-point correction=                           0.315254 (Hartree/Particle)
 Thermal correction to Energy=                    0.329560
 Thermal correction to Enthalpy=                  0.330504
 Thermal correction to Gibbs Free Energy=         0.272293
 Sum of electronic and zero-point Energies=           -749.863734
 Sum of electronic and thermal Energies=              -749.849428
 Sum of electronic and thermal Enthalpies=            -749.848484
 Sum of electronic and thermal Free Energies=         -749.906696

                     E (Thermal)             CV                S
                      KCal/Mol        Cal/Mol-Kelvin    Cal/Mol-Kelvin
 Total                  206.802             57.323            122.517
 Electronic               0.000              0.000              0.000
 Translational            0.889              2.981             42.241
 Rotational               0.889              2.981             32.825
 Vibrational            205.025             51.361             47.451
 Vibration     1          0.593              1.986              6.715
 Vibration     2          0.593              1.984              6.034
 Vibration     3          0.597              1.972              4.354
 Vibration     4          0.604              1.948              3.433
 Vibration     5          0.610              1.929              3.041
 Vibration     6          0.623              1.886              2.498
 Vibration     7          0.632              1.860              2.271
 Vibration     8          0.653              1.791              1.860
 Vibration     9          0.665              1.756              1.702
 Vibration    10          0.667              1.750              1.677
 Vibration    11          0.701              1.649              1.348
 Vibration    12          0.715              1.608              1.242
 Vibration    13          0.740              1.539              1.090
 Vibration    14          0.770              1.460              0.945
 Vibration    15          0.781              1.430              0.897
 Vibration    16          0.805              1.370              0.808
 Vibration    17          0.822              1.330              0.754
 Vibration    18          0.848              1.267              0.678
 Vibration    19          0.894              1.163              0.567

 Optimization completed.
    -- Stationary point found.
 Normal termination of Gaussian 16 at Mon Dec 14 13:39:22 2020.

 ----------------------------------------------------------------------
 # B3LYP/6-311++G(d,p) empiricaldispersion=gd3bj scf=xqc pop=npa geom=c
 heck
 ----------------------------------------------------------------------

 -----------------------------------
 CID_24022_JID_7160_Energie_neutraal
 -----------------------------------
 Structure from the checkpoint file:  "JID_7160.chk"
 Charge =  0 Multiplicity = 1

 SCF Done:  E(RB3LYP) =  -750.383594455     A.U. after   15 cycles
 Normal termination of Gaussian 16 at Mon Dec 14 13:46:21 2020.

 ----------------------------------------------------------------------
 # B3LYP/6-311++G(d,p) empiricaldispersion=gd3bj scf=xqc pop=npa geom=c
 heck
 ----------------------------------------------------------------------

 ---------------------------------
 CID_24022_JID_7160_Energie_kation
 ---------------------------------
 Structure from the checkpoint file:  "JID_7160.chk"
 Charge =  1 Multiplicity = 2

 SCF Done:  E(UB3LYP) =  -750.085451544     A.U. after   33 cycles
 SCF Done:  E(UB3LYP) =  -750.086289720     a.u. after   20 cycles
 Normal termination of Gaussian 16 at Mon Dec 14 20:05:14 2020.
 Gaussian 16:  ES64L-G16RevA.03 25-Dec-2016

 ----------------------------------------------------------------------
 # B3LYP/6-311++G(d,p) empiricaldispersion=gd3bj scf=xqc pop=npa geom=c
 heck
 ----------------------------------------------------------------------

 --------------------------------
 CID_24022_JID_7160_Energie_anion
 --------------------------------
 Structure from the checkpoint file:  "JID_7160.chk"
 Charge = -1 Multiplicity = 2

                         Standard orientation:
 ---------------------------------------------------------------------
 Center     Atomic      Atomic             Coordinates (Angstroms)
 Number     Number       Type             X           Y           Z
 ---------------------------------------------------------------------
      1          6           0        2.395426   -1.369734    1.543962
      2          6           0        2.943119   -2.144829    0.339801
      3          6           0        3.548055   -1.176700   -0.677968
      4          7           0        2.540485   -0.194239   -1.075138
      5          6           0        2.082544    0.632695    0.041030
      6          6           0        1.423425   -0.272740    1.090189
      7          6           0        1.173624    1.745373   -0.497614
      8          6           0        0.532378    2.625294    0.585705
      9          8           0       -0.715390    1.985538    0.820137
     10          6           0       -1.134238    1.519081   -0.453311
     11          8           0        0.039604    1.224967   -1.195080
     12          6           0       -2.019276    0.307426   -0.293791
     13          6           0       -1.688351   -0.906799   -0.898962
     14          6           0       -2.522326   -2.014622   -0.737263
     15          6           0       -3.685777   -1.913624    0.025547
     16          6           0       -4.017137   -0.698108    0.629131
     17          6           0       -3.188340    0.410123    0.466270
     18          1           0        1.896845   -2.048203    2.246388
     19          1           0        3.234620   -0.911878    2.088666
     20          1           0        3.698578   -2.874359    0.656320
     21          1           0        2.128165   -2.697132   -0.144556
     22          1           0        4.445952   -0.703462   -0.230188
     23          1           0        3.876307   -1.714806   -1.574383
     24          1           0        2.907462    0.399834   -1.816375
     25          1           0        2.933205    1.154797    0.534419
     26          1           0        0.532561   -0.726976    0.647698
     27          1           0        1.090161    0.320012    1.948280
     28          1           0        1.751301    2.351955   -1.209157
     29          1           0        0.384540    3.653411    0.222005
     30          1           0        1.086973    2.651375    1.526140
     31          1           0       -1.673456    2.330641   -0.974009
     32          1           0       -0.775320   -0.971905   -1.480387
     33          1           0       -2.260559   -2.958133   -1.208353
     34          1           0       -4.333492   -2.777107    0.149959
     35          1           0       -4.920683   -0.614812    1.226782
     36          1           0       -3.439033    1.355369    0.939916
 ---------------------------------------------------------------------

 SCF Done:  E(UB3LYP) =  -750.369823904     A.U. after   33 cycles
 SCF Done:  E(UB3LYP) =  -750.369823903     a.u. after    1 cycles

 The electronic state is 2-A.
 Alpha  occ. eigenvalues --  -19.04376 -19.03447 -14.19707 -10.18192 -10.12982
 Alpha  occ. eigenvalues --  -10.12864 -10.10000 -10.09323 -10.09167 -10.08907
 Alpha  occ. eigenvalues --  -10.08833 -10.08772 -10.08754 -10.08267 -10.07015
 Alpha  occ. eigenvalues --  -10.06908 -10.06188  -1.00390  -0.90864  -0.81688
 Alpha  occ. eigenvalues --   -0.77243  -0.70628  -0.68998  -0.66823  -0.65998
 Alpha  occ. eigenvalues --   -0.63290  -0.56328  -0.55424  -0.53722  -0.52075
 Alpha  occ. eigenvalues --   -0.50070  -0.49309  -0.45676  -0.44161  -0.42627
 Alpha  occ. eigenvalues --   -0.41615  -0.39006  -0.37371  -0.37313  -0.36642
 Alpha  occ. eigenvalues --   -0.36206  -0.34837  -0.34495  -0.33485  -0.32366
 Alpha  occ. eigenvalues --   -0.31931  -0.31378  -0.30123  -0.28754  -0.27963
 Alpha  occ. eigenvalues --   -0.26745  -0.26201  -0.25375  -0.24711  -0.24537
 Alpha  occ. eigenvalues --   -0.23488  -0.23357  -0.21593  -0.18249  -0.17213
 Alpha  occ. eigenvalues --   -0.16745  -0.16239  -0.13049   0.04177
 Alpha virt. eigenvalues --    0.05529   0.06246   0.06811   0.07358   0.07384
 Alpha virt. eigenvalues --    0.07667   0.07913   0.08962   0.09192   0.09598
 Alpha virt. eigenvalues --    0.09894   0.10736   0.11376   0.11524   0.12273

  Beta  occ. eigenvalues --  -19.04370 -19.03444 -14.19690 -10.18184 -10.12959
  Beta  occ. eigenvalues --  -10.12838 -10.09988 -10.09303 -10.09154 -10.08897
  Beta  occ. eigenvalues --  -10.08820 -10.08765 -10.08749 -10.08265 -10.07006
  Beta  occ. eigenvalues --  -10.06901 -10.06184  -1.00377  -0.90852  -0.81661
  Beta  occ. eigenvalues --   -0.77222  -0.70592  -0.68976  -0.66792  -0.65980
  Beta  occ. eigenvalues --   -0.63255  -0.56298  -0.55381  -0.53681  -0.52055
  Beta  occ. eigenvalues --   -0.50036  -0.49279  -0.45635  -0.44134  -0.42584
  Beta  occ. eigenvalues --   -0.41572  -0.38964  -0.37334  -0.37263  -0.36614
  Beta  occ. eigenvalues --   -0.36170  -0.34809  -0.34470  -0.33467  -0.32341
  Beta  occ. eigenvalues --   -0.31902  -0.31345  -0.30104  -0.28729  -0.27929
  Beta  occ. eigenvalues --   -0.26722  -0.26183  -0.25343  -0.24684  -0.24518
  Beta  occ. eigenvalues --   -0.23463  -0.23335  -0.21567  -0.18215  -0.17170
  Beta  occ. eigenvalues --   -0.16711  -0.16200  -0.13004
  Beta virt. eigenvalues --    0.05980   0.06545   0.06662   0.07257   0.07382
  Beta virt. eigenvalues --    0.07918   0.08123   0.08351   0.09361   0.09651
  Beta virt. eigenvalues --    0.09893   0.10304   0.10901   0.11723   0.11890

 Mulliken charges and spin densities:
               1          2
     1  C    0.523527  -0.956854
     2  C   -0.785663   0.404501
     3  C    1.015549  -1.244128
     4  N   -0.171142   0.195346
     5  C    0.883042  -1.755363
     6  C   -0.718578   0.720613
     7  C   -1.219311   1.680737
     8  C    1.509048  -2.068158
     9  O   -0.012356   0.004340
    10  C    1.088913  -1.781393
    11  O   -0.075330  -0.025476
    12  C   -0.195213   0.793426
    13  C   -0.696857   0.636787
    14  C   -0.093674  -0.149373
    15  C    0.299246  -0.758465
    16  C    0.444212  -0.644803
    17  C   -0.661153   0.606358
    18  H   -0.037639   0.200821
    19  H   -0.019649   0.141773
    20  H   -0.133111   0.295322
    21  H    0.186348  -0.067158
    22  H   -0.201892   0.318351
    23  H   -0.157914   0.308580
    24  H    0.028010   0.217780
    25  H   -0.205120   0.371234
    26  H    0.394318  -0.289670
    27  H    0.195222  -0.007606
    28  H   -1.030343   1.281756
    29  H   -0.408088   0.574137
    30  H   -0.170575   0.323563
    31  H   -0.071735   0.239553
    32  H    0.148332   0.099406
    33  H   -0.042509   0.211814
    34  H   -0.264433   0.419380
    35  H   -0.272776   0.442408
    36  H   -0.070705   0.260459
 Sum of Mulliken charges =  -1.00000   1.00000

 Dipole moment (field-independent basis, Debye):
    X=             -2.5973    Y=             -3.0231    Z=              1.0664  Tot=              4.1258
 Quadrupole moment (field-independent basis, Debye-Ang):
   XX=           -184.2364   YY=           -156.8214   ZZ=           -137.8283
   XY=            -10.1472   XZ=              6.3140   YZ=              4.8942

 Summary of Natural Population Analysis:

                                       Natural Population
                Natural  -----------------------------------------------
    Atom  No    Charge         Core      Valence    Rydberg      Total
 -----------------------------------------------------------------------
      C    1   -0.18788      0.99963     2.18058    0.00767     3.18788
      C    2   -0.19363      0.99963     2.18595    0.00805     3.19363
      C    3   -0.08470      0.99962     2.07370    0.01138     3.08470
      N    4   -0.33919      0.99971     2.82809    0.01138     3.83919
      C    5   -0.01652      0.99956     2.00209    0.01487     3.01652
      C    6   -0.19956      0.99960     2.19072    0.00924     3.19956
      C    7    0.05532      0.99952     1.92752    0.01763     2.94468
      C    8   -0.02157      0.99957     2.00943    0.01256     3.02157
      O    9   -0.29551      0.99989     3.28793    0.00769     4.29551
      C   10    0.22079      0.99954     1.76068    0.01899     2.77921
      O   11   -0.30180      0.99988     3.29363    0.00830     4.30180
      C   12   -0.03244      0.99947     2.02280    0.01017     3.03244
      C   13   -0.09777      0.99951     2.08988    0.00838     3.09777
      C   14   -0.10162      0.99957     2.09173    0.01032     3.10162
      C   15   -0.10341      0.99957     2.09398    0.00987     3.10341
      C   16   -0.10223      0.99957     2.09278    0.00989     3.10223
      C   17   -0.09348      0.99952     2.08455    0.00942     3.09348
      H   18    0.09725      0.00000     0.40196    0.00079     0.40275
      H   19    0.09274      0.00000     0.40590    0.00137     0.40726
      H   20    0.09666      0.00000     0.40245    0.00089     0.40334
      H   21    0.09602      0.00000     0.40253    0.00144     0.40398
      H   22    0.07701      0.00000     0.42108    0.00191     0.42299
      H   23    0.09437      0.00000     0.40466    0.00098     0.40563
      H   24    0.17670      0.00000     0.32020    0.00309     0.32330
      H   25    0.08142      0.00000     0.41608    0.00250     0.41858
      H   26    0.10463      0.00000     0.39282    0.00255     0.39537
      H   27    0.10189      0.00000     0.39692    0.00119     0.39811
      H   28    0.09384      0.00000     0.40302    0.00314     0.40616
      H   29    0.08680      0.00000     0.41107    0.00213     0.41320
      H   30    0.09684      0.00000     0.40175    0.00141     0.40316
      H   31    0.07489      0.00000     0.42367    0.00144     0.42511
      H   32    0.11808      0.00000     0.38039    0.00153     0.38192
      H   33    0.10011      0.00000     0.39908    0.00081     0.39989
      H   34    0.10040      0.00000     0.39863    0.00097     0.39960
      H   35    0.10066      0.00000     0.39839    0.00095     0.39934
      H   36    0.10488      0.00000     0.39392    0.00120     0.39512
 =======================================================================
   * Total *    0.00000     16.99335    45.79055    0.21609    63.00000

 Normal termination of Gaussian 16 at Mon Dec 14 20:26:49 2020.
