 Gaussian 16, Revision A.03,

 -----------------------------------------------------------
 # opt freq B3LYP/6-31G(d) empiricaldispersion=gd3bj scf=xqc
 -----------------------------------------------------------

 ------------------------------
 CID_81169714_JID_8182_neutraal
 ------------------------------
 Symbolic Z-matrix:
 Charge =  0 Multiplicity = 1

 SCF Done:  E(RB3LYP) =  -843.862314543     A.U. after   15 cycles
 SCF Done:  E(RB3LYP) =  -843.878146001     A.U. after   12 cycles
 SCF Done:  E(RB3LYP) =  -843.878907837     A.U. after   12 cycles
 SCF Done:  E(RB3LYP) =  -843.878439988     A.U. after   12 cycles
 SCF Done:  E(RB3LYP) =  -843.876957310     A.U. after   12 cycles
 SCF Done:  E(RB3LYP) =  -843.874656016     A.U. after   12 cycles
 SCF Done:  E(RB3LYP) =  -843.879417501     A.U. after    9 cycles
 SCF Done:  E(RB3LYP) =  -843.880425513     A.U. after   12 cycles
 SCF Done:  E(RB3LYP) =  -843.880146860     A.U. after   11 cycles
 SCF Done:  E(RB3LYP) =  -843.880669732     A.U. after   11 cycles
 SCF Done:  E(RB3LYP) =  -843.880865749     A.U. after    9 cycles
 SCF Done:  E(RB3LYP) =  -843.880866292     A.U. after    8 cycles
 SCF Done:  E(RB3LYP) =  -843.880866357     A.U. after    6 cycles
 SCF Done:  E(RB3LYP) =  -843.880866398     A.U. after    7 cycles
 Optimization completed.
    -- Stationary point found.
 Normal termination of Gaussian 16 at Fri Dec 11 19:34:37 2020.

 --------------------------------------------------------------------
 #N Geom=AllCheck Guess=TCheck SCRF=Check GenChk RB3LYP/6-31G(d) Freq
 --------------------------------------------------------------------

 Structure from the checkpoint file:  "JID_8182.chk"
 ------------------------------
 CID_81169714_JID_8182_neutraal
 ------------------------------
 Charge =  0 Multiplicity = 1

 SCF Done:  E(RB3LYP) =  -843.880866398     A.U. after    1 cycles

  Exact polarizability: 178.513   7.185 142.581   4.114  -1.290 132.211
 Approx polarizability: 226.938   3.768 201.426   9.523 -12.805 216.744

                      1                      2                      3
                      A                      A                      A
 Frequencies --     20.7009                29.5121                38.7149
 Red. masses --      5.2325                 7.8989                 5.8988
 Frc consts  --      0.0013                 0.0041                 0.0052
 IR Inten    --      0.3553                 0.6322                 1.6155

                      4                      5                      6
                      A                      A                      A
 Frequencies --     60.7451                70.5647                91.3757
 Red. masses --      3.4059                 4.9204                 3.1802
 Frc consts  --      0.0074                 0.0144                 0.0156
 IR Inten    --      0.1006                 2.0694                 1.3988

                      7                      8                      9
                      A                      A                      A
 Frequencies --    111.1778               117.0501               160.0219
 Red. masses --      2.8117                 4.4458                 2.9164
 Frc consts  --      0.0205                 0.0359                 0.0440
 IR Inten    --      0.9107                 0.5780                 5.2092

                     10                     11                     12
                      A                      A                      A
 Frequencies --    184.6677               223.1505               232.5864
 Red. masses --      2.7126                 1.3204                 2.8966
 Frc consts  --      0.0545                 0.0387                 0.0923
 IR Inten    --      0.7155                28.4019                 2.3417

                     13                     14                     15
                      A                      A                      A
 Frequencies --    272.4950               292.4447               307.4620
 Red. masses --      3.1070                 2.7337                 2.7882
 Frc consts  --      0.1359                 0.1377                 0.1553
 IR Inten    --      2.5009                 3.1679                 2.0443

                     16                     17                     18
                      A                      A                      A
 Frequencies --    314.1702               341.9990               376.0957
 Red. masses --      3.0654                 2.1351                 2.5926
 Frc consts  --      0.1783                 0.1471                 0.2161
 IR Inten    --      4.0746                 3.9852                 1.6408

                     19                     20                     21
                      A                      A                      A
 Frequencies --    387.2992               413.7348               438.8720
 Red. masses --      3.2250                 2.9046                 2.0456
 Frc consts  --      0.2850                 0.2929                 0.2321
 IR Inten    --     14.5001                 9.6967                 2.5664

                     22                     23                     24
                      A                      A                      A
 Frequencies --    479.0390               526.7852               530.9013
 Red. masses --      2.8084                 2.1500                 2.7642
 Frc consts  --      0.3797                 0.3515                 0.4590
 IR Inten    --      7.8895                18.2952                 8.8832

                     25                     26                     27
                      A                      A                      A
 Frequencies --    545.5444               556.8899               627.0962
 Red. masses --      3.0035                 3.9855                 3.1839
 Frc consts  --      0.5267                 0.7282                 0.7377
 IR Inten    --     25.2363                 7.3496                 0.7905

                     28                     29                     30
                      A                      A                      A
 Frequencies --    638.9888               648.8132               689.4787
 Red. masses --      3.0767                 2.1463                 1.4022
 Frc consts  --      0.7402                 0.5323                 0.3927
 IR Inten    --     13.1870                 4.0850                92.6485

                     31                     32                     33
                      A                      A                      A
 Frequencies --    714.2222               748.0174               776.6915
 Red. masses --      2.6888                 3.3884                 2.7125
 Frc consts  --      0.8081                 1.1170                 0.9641
 IR Inten    --     11.0474                 1.2344                14.9744

                     34                     35                     36
                      A                      A                      A
 Frequencies --    798.7370               819.9216               825.1046
 Red. masses --      1.2977                 2.2172                 2.7829
 Frc consts  --      0.4878                 0.8782                 1.1162
 IR Inten    --      0.3557                 0.3879                 7.1082

                     37                     38                     39
                      A                      A                      A
 Frequencies --    869.5745               886.4824               894.9667
 Red. masses --      2.3210                 1.4441                 2.2892
 Frc consts  --      1.0341                 0.6687                 1.0803
 IR Inten    --      1.5115                31.2972                 3.8248

                     40                     41                     42
                      A                      A                      A
 Frequencies --    901.7499               912.4607               927.2996
 Red. masses --      1.4842                 2.0535                 2.3379
 Frc consts  --      0.7111                 1.0073                 1.1844
 IR Inten    --    168.2407                 0.5061                 3.5745

                     43                     44                     45
                      A                      A                      A
 Frequencies --    959.6279               960.9351               990.7622
 Red. masses --      2.4018                 2.4790                 2.6111
 Frc consts  --      1.3032                 1.3487                 1.5101
 IR Inten    --      1.0408                 1.3443                 1.8880

                     46                     47                     48
                      A                      A                      A
 Frequencies --    994.0265              1006.6069              1017.4683
 Red. masses --      2.4056                 1.5746                 2.3763
 Frc consts  --      1.4005                 0.9400                 1.4494
 IR Inten    --      7.3403                 4.7928                10.5359

                     49                     50                     51
                      A                      A                      A
 Frequencies --   1040.7290              1067.4199              1073.5311
 Red. masses --      1.9450                 1.7804                 1.8935
 Frc consts  --      1.2412                 1.1952                 1.2857
 IR Inten    --     13.8577                 0.8351                26.1402

                     52                     53                     54
                      A                      A                      A
 Frequencies --   1083.4744              1123.7659              1143.5601
 Red. masses --      1.3889                 1.6753                 2.1472
 Frc consts  --      0.9606                 1.2465                 1.6544
 IR Inten    --      6.1517                27.4158                25.6581

                     55                     56                     57
                      A                      A                      A
 Frequencies --   1164.7543              1165.6865              1191.2212
 Red. masses --      1.9090                 1.9846                 2.6621
 Frc consts  --      1.5259                 1.5888                 2.2256
 IR Inten    --    116.0970               175.0091                45.0397

                     58                     59                     60
                      A                      A                      A
 Frequencies --   1205.8444              1210.8978              1217.3959
 Red. masses --      2.4080                 1.4437                 1.3108
 Frc consts  --      2.0630                 1.2472                 1.1446
 IR Inten    --      6.7536                48.2253                14.6964

                     61                     62                     63
                      A                      A                      A
 Frequencies --   1243.8154              1256.9879              1265.6297
 Red. masses --      1.3649                 1.4050                 1.3988
 Frc consts  --      1.2441                 1.3079                 1.3201
 IR Inten    --     34.2916                 1.7230                73.5878

                     64                     65                     66
                      A                      A                      A
 Frequencies --   1273.9499              1283.3632              1292.0101
 Red. masses --      1.3269                 1.5337                 1.5512
 Frc consts  --      1.2688                 1.4883                 1.5257
 IR Inten    --     21.6290                 8.1633                10.3781

                     67                     68                     69
                      A                      A                      A
 Frequencies --   1308.6361              1315.3673              1319.6151
 Red. masses --      1.6870                 1.4865                 1.3770
 Frc consts  --      1.7022                 1.5153                 1.4128
 IR Inten    --     17.8516                19.0326                23.4226

                     70                     71                     72
                      A                      A                      A
 Frequencies --   1332.9842              1337.0166              1345.6655
 Red. masses --      1.5129                 1.6588                 1.4285
 Frc consts  --      1.5839                 1.7471                 1.5241
 IR Inten    --      6.8473                14.5384                 8.5208

                     73                     74                     75
                      A                      A                      A
 Frequencies --   1377.1239              1384.3523              1403.3380
 Red. masses --      1.2966                 1.3967                 1.5307
 Frc consts  --      1.4488                 1.5770                 1.7761
 IR Inten    --      0.2958                 3.1364                 1.7467

                     76                     77                     78
                      A                      A                      A
 Frequencies --   1410.2368              1417.5383              1435.0096
 Red. masses --      1.5583                 1.5017                 1.4106
 Frc consts  --      1.8260                 1.7778                 1.7115
 IR Inten    --      5.4701                 1.9465                11.0292

                     79                     80                     81
                      A                      A                      A
 Frequencies --   1438.4536              1455.7560              1491.3949
 Red. masses --      1.9677                 2.3511                 1.0938
 Frc consts  --      2.3989                 2.9356                 1.4334
 IR Inten    --     76.1760               122.9638                16.3149

                     82                     83                     84
                      A                      A                      A
 Frequencies --   1495.3665              1508.3548              1511.7682
 Red. masses --      1.0939                 1.0873                 1.0913
 Frc consts  --      1.4411                 1.4575                 1.4695
 IR Inten    --      1.5417                11.6568                 1.7630

                     85                     86                     87
                      A                      A                      A
 Frequencies --   1523.5033              1525.3713              1528.9979
 Red. masses --      1.0812                 1.0904                 1.0898
 Frc consts  --      1.4785                 1.4948                 1.5011
 IR Inten    --      2.8041                 7.9016                 6.4934

                     88                     89                     90
                      A                      A                      A
 Frequencies --   1533.7708              1541.3083              1693.0404
 Red. masses --      1.1288                 1.0967                 1.0940
 Frc consts  --      1.5645                 1.5351                 1.8476
 IR Inten    --      4.2598                 8.3145                20.3803

                     91                     92                     93
                      A                      A                      A
 Frequencies --   1734.2123              1841.9355              2978.6612
 Red. masses --     11.1436                 9.4190                 1.0745
 Frc consts  --     19.7461                18.8280                 5.6169
 IR Inten    --    253.2709               213.6982                36.0097

                     94                     95                     96
                      A                      A                      A
 Frequencies --   2988.3769              3033.1139              3050.7078
 Red. masses --      1.0743                 1.0693                 1.0629
 Frc consts  --      5.6524                 5.7959                 5.8282
 IR Inten    --     60.1774                31.8563                30.9372

                     97                     98                     99
                      A                      A                      A
 Frequencies --   3053.0223              3065.4333              3078.7836
 Red. masses --      1.0662                 1.0613                 1.0597
 Frc consts  --      5.8553                 5.8758                 5.9183
 IR Inten    --      8.3031                19.9789                44.7909

                    100                    101                    102
                      A                      A                      A
 Frequencies --   3079.3835              3084.9295              3087.6710
 Red. masses --      1.0855                 1.0932                 1.0605
 Frc consts  --      6.0645                 6.1300                 5.9571
 IR Inten    --      6.1967                43.6667                19.3380

                    103                    104                    105
                      A                      A                      A
 Frequencies --   3092.5390              3092.8753              3102.7836
 Red. masses --      1.1042                 1.0650                 1.0979
 Frc consts  --      6.2222                 6.0022                 6.2275
 IR Inten    --     60.3618                14.0388                18.3070

                    106                    107                    108
                      A                      A                      A
 Frequencies --   3115.3294              3127.1544              3152.5721
 Red. masses --      1.0958                 1.1055                 1.1046
 Frc consts  --      6.2659                 6.3695                 6.4682
 IR Inten    --     21.0421                25.1786                39.0524

                    109                    110                    111
                      A                      A                      A
 Frequencies --   3165.2426              3169.9444              3172.6934
 Red. masses --      1.0890                 1.1044                 1.0891
 Frc consts  --      6.4284                 6.5384                 6.4592
 IR Inten    --      7.4146                 8.3675                 5.8706

                    112                    113                    114
                      A                      A                      A
 Frequencies --   3462.6962              3552.2338              3682.0588
 Red. masses --      1.0501                 1.0910                 1.0639
 Frc consts  --      7.4186                 8.1113                 8.4985
 IR Inten    --      1.4381                 0.9894                49.1656

 - Thermochemistry -
 -------------------
 Temperature   298.150 Kelvin.  Pressure   1.00000 Atm.
 Atom     1 has atomic number  6 and mass  12.00000

 Molecular mass:   254.16304 amu.
 Principal axes and moments of inertia in atomic units:
                           1         2         3
     Eigenvalues --  2513.114977913.606069079.83555
           X            0.99979   0.02016  -0.00353
           Y           -0.02008   0.99957   0.02138
           Z            0.00396  -0.02130   0.99977
 This molecule is an asymmetric top.
 Rotational symmetry number  1.
 Warning -- assumption of classical behavior for rotation
           may cause significant error
 Rotational temperatures (Kelvin)      0.03446     0.01094     0.00954
 Rotational constants (GHZ):           0.71813     0.22806     0.19876
 Zero-point vibrational energy     924925.0 (Joules/Mol)
                                  221.06239 (Kcal/Mol)
 Warning -- explicit consideration of  26 degrees of freedom as
           vibrations may cause significant error
 Vibrational temperatures:     29.78    42.46    55.70    87.40   101.53
          (Kelvin)            131.47   159.96   168.41   230.24   265.70
                              321.06   334.64   392.06   420.76   442.37
                              452.02   492.06   541.12   557.24   595.27
                              631.44   689.23   757.93   763.85   784.92
                              801.24   902.25   919.36   933.50   992.01
                             1027.61  1076.23  1117.49  1149.20  1179.68
                             1187.14  1251.12  1275.45  1287.66  1297.42
                             1312.83  1334.18  1380.69  1382.57  1425.49
                             1430.18  1448.28  1463.91  1497.38  1535.78
                             1544.57  1558.88  1616.85  1645.33  1675.82
                             1677.16  1713.90  1734.94  1742.21  1751.56
                             1789.57  1808.53  1820.96  1832.93  1846.47
                             1858.91  1882.84  1892.52  1898.63  1917.87
                             1923.67  1936.11  1981.37  1991.77  2019.09
                             2029.02  2039.52  2064.66  2069.61  2094.51
                             2145.78  2151.50  2170.19  2175.10  2191.98
                             2194.67  2199.89  2206.75  2217.60  2435.91
                             2495.14  2650.13  4285.63  4299.61  4363.97
                             4389.29  4392.62  4410.47  4429.68  4430.55
                             4438.53  4442.47  4449.47  4449.96  4464.21
                             4482.26  4499.28  4535.85  4554.08  4560.84
                             4564.80  4982.05  5110.87  5297.66

 Zero-point correction=                           0.352285 (Hartree/Particle)
 Thermal correction to Energy=                    0.370199
 Thermal correction to Enthalpy=                  0.371144
 Thermal correction to Gibbs Free Energy=         0.304492
 Sum of electronic and zero-point Energies=           -843.528581
 Sum of electronic and thermal Energies=              -843.510667
 Sum of electronic and thermal Enthalpies=            -843.509723
 Sum of electronic and thermal Free Energies=         -843.576374

                     E (Thermal)             CV                S
                      KCal/Mol        Cal/Mol-Kelvin    Cal/Mol-Kelvin
 Total                  232.304             68.648            140.280
 Electronic               0.000              0.000              0.000
 Translational            0.889              2.981             42.499
 Rotational               0.889              2.981             33.556
 Vibrational            230.526             62.687             64.225
 Vibration     1          0.593              1.986              6.566
 Vibration     2          0.593              1.984              5.862
 Vibration     3          0.594              1.981              5.324
 Vibration     4          0.597              1.973              4.433
 Vibration     5          0.598              1.968              4.138
 Vibration     6          0.602              1.955              3.630
 Vibration     7          0.607              1.940              3.248
 Vibration     8          0.608              1.935              3.149
 Vibration     9          0.622              1.891              2.550
 Vibration    10          0.631              1.861              2.281
 Vibration    11          0.649              1.806              1.933
 Vibration    12          0.653              1.791              1.859
 Vibration    13          0.675              1.724              1.580
 Vibration    14          0.688              1.688              1.460
 Vibration    15          0.697              1.660              1.376
 Vibration    16          0.702              1.647              1.340
 Vibration    17          0.721              1.592              1.203
 Vibration    18          0.747              1.521              1.055
 Vibration    19          0.756              1.497              1.011
 Vibration    20          0.777              1.440              0.914
 Vibration    21          0.799              1.385              0.830
 Vibration    22          0.835              1.297              0.713
 Vibration    23          0.882              1.191              0.594
 Vibration    24          0.886              1.182              0.585
 Vibration    25          0.901              1.149              0.553
 Vibration    26          0.912              1.125              0.530

 Optimization completed.
    -- Stationary point found.
 Normal termination of Gaussian 16 at Fri Dec 11 19:53:49 2020.

 ----------------------------------------------------------------------
 # B3LYP/6-311++G(d,p) empiricaldispersion=gd3bj scf=xqc pop=npa geom=c
 heck
 ----------------------------------------------------------------------

 --------------------------------------
 CID_81169714_JID_8182_Energie_neutraal
 --------------------------------------
 Structure from the checkpoint file:  "JID_8182.chk"
 Charge =  0 Multiplicity = 1

 SCF Done:  E(RB3LYP) =  -844.134556756     A.U. after   15 cycles
 Normal termination of Gaussian 16 at Fri Dec 11 20:01:36 2020.

 ----------------------------------------------------------------------
 # B3LYP/6-311++G(d,p) empiricaldispersion=gd3bj scf=xqc pop=npa geom=c
 heck
 ----------------------------------------------------------------------

 ------------------------------------
 CID_81169714_JID_8182_Energie_kation
 ------------------------------------
 Structure from the checkpoint file:  "JID_8182.chk"
 Charge =  1 Multiplicity = 2

 SCF Done:  E(UB3LYP) =  -843.831035511     A.U. after   33 cycles
 SCF Done:  E(UB3LYP) =  -843.831035511     a.u. after    1 cycles
 Normal termination of Gaussian 16 at Fri Dec 11 20:24:33 2020.
 Gaussian 16:  ES64L-G16RevA.03 25-Dec-2016

 ----------------------------------------------------------------------
 # B3LYP/6-311++G(d,p) empiricaldispersion=gd3bj scf=xqc pop=npa geom=c
 heck
 ----------------------------------------------------------------------

 -----------------------------------
 CID_81169714_JID_8182_Energie_anion
 -----------------------------------
 Structure from the checkpoint file:  "JID_8182.chk"
 Charge = -1 Multiplicity = 2

                         Standard orientation:
 ---------------------------------------------------------------------
 Center     Atomic      Atomic             Coordinates (Angstroms)
 Number     Number       Type             X           Y           Z
 ---------------------------------------------------------------------
      1          6           0        0.883389    2.495751   -0.662365
      2          6           0        1.793445    1.850251    0.387827
      3          6           0        1.328591    0.423130    0.726292
      4          6           0       -0.147398    0.465576    1.167693
      5          7           0       -0.993647    1.109929    0.165808
      6          6           0       -0.573246    2.466510   -0.198490
      7          6           0       -2.252178    0.697002   -0.221674
      8          8           0       -2.934045    1.381776   -0.981787
      9          6           0       -2.810164   -0.617178    0.369292
     10          6           0       -4.023683   -1.119622   -0.452874
     11          6           0       -3.097480   -2.122114   -1.182950
     12          6           0       -2.044612   -1.908193   -0.068429
     13          7           0       -3.112241   -0.498530    1.801541
     14          6           0        1.512308   -0.586872   -0.422754
     15          6           0        2.914980   -0.634450   -1.031004
     16          6           0        3.982432   -1.035508   -0.037580
     17          8           0        3.794924   -1.578524    1.029832
     18          8           0        5.224711   -0.736248   -0.491072
     19          1           0        1.180840    3.535570   -0.842688
     20          1           0        0.968798    1.968429   -1.620552
     21          1           0        2.838871    1.856432    0.059884
     22          1           0        1.758993    2.452465    1.306738
     23          1           0        1.907790    0.059281    1.581812
     24          1           0       -0.497772   -0.548059    1.356024
     25          1           0       -0.217036    1.025742    2.115603
     26          1           0       -0.687850    3.120522    0.682135
     27          1           0       -1.257378    2.818565   -0.968823
     28          1           0       -4.729954   -1.623837    0.212538
     29          1           0       -4.533066   -0.364285   -1.051532
     30          1           0       -2.757657   -1.733605   -2.147878
     31          1           0       -3.470770   -3.139714   -1.325539
     32          1           0       -1.003892   -1.808543   -0.382861
     33          1           0       -2.115167   -2.656843    0.725996
     34          1           0       -3.866285    0.179374    1.914958
     35          1           0       -2.320317   -0.131284    2.325790
     36          1           0        1.268673   -1.584228   -0.040151
     37          1           0        0.797284   -0.371102   -1.223919
     38          1           0        2.945570   -1.375141   -1.841768
     39          1           0        3.203260    0.315559   -1.491448
     40          1           0        5.845261   -1.056831    0.190551
 ---------------------------------------------------------------------

 SCF Done:  E(UB3LYP) =  -844.126078383     A.U. after   33 cycles
 SCF Done:  E(UB3LYP) =  -844.126078384     a.u. after    1 cycles

 The electronic state is 2-A.
 Alpha  occ. eigenvalues --  -19.07505 -19.02386 -18.99533 -14.25051 -14.21668
 Alpha  occ. eigenvalues --  -10.21501 -10.17686 -10.12981 -10.11807 -10.10553
 Alpha  occ. eigenvalues --  -10.09618 -10.08796 -10.08717 -10.08580 -10.08315
 Alpha  occ. eigenvalues --  -10.07965 -10.07899 -10.07487  -1.01667  -0.94816
 Alpha  occ. eigenvalues --   -0.92818  -0.84932  -0.81764  -0.74014  -0.73406
 Alpha  occ. eigenvalues --   -0.69356  -0.67121  -0.60304  -0.59030  -0.58284
 Alpha  occ. eigenvalues --   -0.56548  -0.53710  -0.50935  -0.48850  -0.46469
 Alpha  occ. eigenvalues --   -0.44569  -0.42253  -0.41414  -0.40615  -0.40126
 Alpha  occ. eigenvalues --   -0.39469  -0.39313  -0.38045  -0.37257  -0.36530
 Alpha  occ. eigenvalues --   -0.35570  -0.34492  -0.34068  -0.32068  -0.31906
 Alpha  occ. eigenvalues --   -0.30954  -0.30733  -0.30172  -0.29434  -0.27966
 Alpha  occ. eigenvalues --   -0.27429  -0.26828  -0.25715  -0.25213  -0.24851
 Alpha  occ. eigenvalues --   -0.23870  -0.23616  -0.23140  -0.22625  -0.22031
 Alpha  occ. eigenvalues --   -0.19491  -0.19129  -0.15331  -0.14743   0.03900
 Alpha virt. eigenvalues --    0.05485   0.06392   0.06926   0.07405   0.08052
 Alpha virt. eigenvalues --    0.08563   0.08891   0.09473   0.09839   0.10099
 Alpha virt. eigenvalues --    0.10200   0.10524   0.11145   0.11641   0.12036

  Beta  occ. eigenvalues --  -19.07449 -19.02371 -18.99497 -14.25062 -14.21640
  Beta  occ. eigenvalues --  -10.21498 -10.17658 -10.12980 -10.11785 -10.10537
  Beta  occ. eigenvalues --  -10.09587 -10.08794 -10.08715 -10.08577 -10.08305
  Beta  occ. eigenvalues --  -10.07963 -10.07884 -10.07463  -1.01597  -0.94759
  Beta  occ. eigenvalues --   -0.92758  -0.84915  -0.81726  -0.73986  -0.73379
  Beta  occ. eigenvalues --   -0.69320  -0.67079  -0.60252  -0.58966  -0.58274
  Beta  occ. eigenvalues --   -0.56520  -0.53670  -0.50865  -0.48796  -0.46440
  Beta  occ. eigenvalues --   -0.44517  -0.42225  -0.41375  -0.40584  -0.40100
  Beta  occ. eigenvalues --   -0.39439  -0.39277  -0.38013  -0.37227  -0.36494
  Beta  occ. eigenvalues --   -0.35536  -0.34458  -0.34036  -0.32030  -0.31857
  Beta  occ. eigenvalues --   -0.30936  -0.30694  -0.30134  -0.29342  -0.27927
  Beta  occ. eigenvalues --   -0.27404  -0.26810  -0.25680  -0.25201  -0.24828
  Beta  occ. eigenvalues --   -0.23828  -0.23570  -0.23116  -0.22589  -0.22015
  Beta  occ. eigenvalues --   -0.19457  -0.19091  -0.15292  -0.14703
  Beta virt. eigenvalues --    0.06078   0.06454   0.06777   0.07597   0.07776
  Beta virt. eigenvalues --    0.08288   0.08770   0.08961   0.09757   0.10094
  Beta virt. eigenvalues --    0.10244   0.10449   0.10869   0.11309   0.11819

 Mulliken charges and spin densities:
               1          2
     1  C   -0.699193   0.334057
     2  C    0.351349  -0.973308
     3  C    1.162193  -0.007834
     4  C   -1.275547   0.191865
     5  N    0.209107  -0.035096
     6  C    0.592014  -0.788317
     7  C   -0.914953   0.478445
     8  O   -0.292177   0.008713
     9  C    1.124743  -0.709459
    10  C   -0.207771  -0.364689
    11  C   -0.370970   0.002153
    12  C   -0.048054  -0.116072
    13  N   -0.373378   0.147410
    14  C   -1.378562   0.918261
    15  C    2.367743  -2.958401
    16  C   -0.596450   0.459753
    17  O   -0.231316  -0.013642
    18  O   -0.168333   0.068117
    19  H   -0.151726   0.332564
    20  H   -0.048173   0.183939
    21  H   -0.280404   0.455437
    22  H   -0.174390   0.330785
    23  H    0.116205   0.163310
    24  H    0.127818   0.033243
    25  H   -0.570942   0.786484
    26  H   -0.227989   0.396288
    27  H    0.159873   0.040907
    28  H    0.127034   0.006508
    29  H    0.189346   0.007401
    30  H    0.083070   0.059908
    31  H    0.148181  -0.005032
    32  H   -0.060713   0.118760
    33  H    0.137690   0.053192
    34  H    0.065594   0.180371
    35  H    0.061706   0.186209
    36  H    0.321398  -0.158009
    37  H    0.399936  -0.228115
    38  H   -0.385984   0.584015
    39  H    0.301313  -0.053672
    40  H   -0.589287   0.883549
 Sum of Mulliken charges =  -1.00000   1.00000

 Dipole moment (field-independent basis, Debye):
    X=             -7.1043    Y=             -2.1481    Z=             -2.6911  Tot=              7.8948
 Quadrupole moment (field-independent basis, Debye-Ang):
   XX=           -216.9167   YY=           -153.7246   ZZ=           -149.6724
   XY=             12.5194   XZ=             -0.5499   YZ=             -0.7069

 Summary of Natural Population Analysis:

                                       Natural Population
                Natural  -----------------------------------------------
    Atom  No    Charge         Core      Valence    Rydberg      Total
 -----------------------------------------------------------------------
      C    1   -0.19529      0.99962     2.18746    0.00821     3.19529
      C    2   -0.19232      0.99961     2.18333    0.00939     3.19232
      C    3   -0.11737      0.99958     2.10635    0.01144     3.11737
      C    4   -0.08441      0.99958     2.07290    0.01194     3.08441
      N    5   -0.26217      0.99963     2.75104    0.01150     3.76217
      C    6   -0.08670      0.99960     2.07635    0.01074     3.08670
      C    7    0.34603      0.99956     1.62880    0.02561     2.65397
      O    8   -0.32668      0.99988     3.32183    0.00497     4.32668
      C    9    0.01899      0.99952     1.96707    0.01442     2.98101
      C   10   -0.18605      0.99961     2.17849    0.00794     3.18605
      C   11   -0.19157      0.99965     2.18467    0.00724     3.19157
      C   12   -0.19187      0.99960     2.18526    0.00701     3.19187
      N   13   -0.41768      0.99975     2.90769    0.01024     3.91768
      C   14   -0.19346      0.99961     2.18395    0.00991     3.19346
      C   15   -0.24079      0.99957     2.23223    0.00899     3.24079
      C   16    0.40848      0.99972     1.56674    0.02506     2.59152
      O   17   -0.30812      0.99987     3.30194    0.00631     4.30812
      O   18   -0.34337      0.99988     3.33685    0.00665     4.34337
      H   19    0.10259      0.00000     0.39651    0.00090     0.39741
      H   20    0.09483      0.00000     0.40376    0.00141     0.40517
      H   21    0.10262      0.00000     0.39605    0.00133     0.39738
      H   22    0.10119      0.00000     0.39710    0.00171     0.39881
      H   23    0.11129      0.00000     0.38728    0.00143     0.38871
      H   24    0.10294      0.00000     0.39532    0.00174     0.39706
      H   25    0.09656      0.00000     0.40149    0.00196     0.40344
      H   26    0.09084      0.00000     0.40761    0.00154     0.40916
      H   27    0.11641      0.00000     0.38241    0.00119     0.38359
      H   28    0.09898      0.00000     0.39988    0.00114     0.40102
      H   29    0.11219      0.00000     0.38685    0.00097     0.38781
      H   30    0.09775      0.00000     0.40099    0.00125     0.40225
      H   31    0.09387      0.00000     0.40515    0.00097     0.40613
      H   32    0.10205      0.00000     0.39671    0.00124     0.39795
      H   33    0.10360      0.00000     0.39516    0.00123     0.39640
      H   34    0.17745      0.00000     0.32096    0.00160     0.32255
      H   35    0.17921      0.00000     0.31890    0.00189     0.32079
      H   36    0.10436      0.00000     0.39442    0.00122     0.39564
      H   37    0.10081      0.00000     0.39778    0.00141     0.39919
      H   38    0.11736      0.00000     0.38159    0.00105     0.38264
      H   39    0.11294      0.00000     0.38571    0.00134     0.38706
      H   40    0.24453      0.00000     0.23526    0.02021     0.25547
 =======================================================================
   * Total *   -0.00000     17.99385    50.75987    0.24628    69.00000

 Normal termination of Gaussian 16 at Fri Dec 11 20:47:45 2020.
