 Gaussian 16, Revision A.03,

 -----------------------------------------------------------
 # opt freq B3LYP/6-31G(d) empiricaldispersion=gd3bj scf=xqc
 -----------------------------------------------------------

 -------------------------------
 CID_149755759_JID_2803_neutraal
 -------------------------------
 Symbolic Z-matrix:
 Charge =  0 Multiplicity = 1

 SCF Done:  E(RB3LYP) =  -952.010895963     A.U. after   14 cycles
 SCF Done:  E(RB3LYP) =  -952.022197661     A.U. after   15 cycles
 SCF Done:  E(RB3LYP) =  -952.022052813     A.U. after   13 cycles
 SCF Done:  E(RB3LYP) =  -952.024336732     A.U. after   12 cycles
 SCF Done:  E(RB3LYP) =  -952.024952438     A.U. after   14 cycles
 SCF Done:  E(RB3LYP) =  -952.026018202     A.U. after   13 cycles
 SCF Done:  E(RB3LYP) =  -952.026320842     A.U. after   12 cycles
 SCF Done:  E(RB3LYP) =  -952.026442926     A.U. after   12 cycles
 SCF Done:  E(RB3LYP) =  -952.026526955     A.U. after   11 cycles
 SCF Done:  E(RB3LYP) =  -952.026562101     A.U. after   11 cycles
 SCF Done:  E(RB3LYP) =  -952.030103830     A.U. after   12 cycles
 SCF Done:  E(RB3LYP) =  -952.030111972     A.U. after   10 cycles
 SCF Done:  E(RB3LYP) =  -952.030113821     A.U. after   10 cycles
 SCF Done:  E(RB3LYP) =  -952.030114267     A.U. after    8 cycles
 SCF Done:  E(RB3LYP) =  -952.030114381     A.U. after    8 cycles
 SCF Done:  E(RB3LYP) =  -952.030114445     A.U. after    7 cycles
 Optimization completed.
    -- Stationary point found.
 Normal termination of Gaussian 16 at Wed Dec  9 18:10:38 2020.

 --------------------------------------------------------------------
 #N Geom=AllCheck Guess=TCheck SCRF=Check GenChk RB3LYP/6-31G(d) Freq
 --------------------------------------------------------------------

 Structure from the checkpoint file:  "JID_2803.chk"
 -------------------------------
 CID_149755759_JID_2803_neutraal
 -------------------------------
 Charge =  0 Multiplicity = 1

 SCF Done:  E(RB3LYP) =  -952.030114444     A.U. after    1 cycles

  Exact polarizability:  98.663  -3.972  97.115 -12.245   0.946  98.761
 Approx polarizability: 132.257 -11.832 148.751 -28.069   3.537 162.701

                      1                      2                      3
                      A                      A                      A
 Frequencies --     15.5285                23.2574                49.8015
 Red. masses --      7.7459                11.1323                 4.8741
 Frc consts  --      0.0011                 0.0035                 0.0071
 IR Inten    --      0.4242                 1.3556                 1.0595

                      4                      5                      6
                      A                      A                      A
 Frequencies --     60.8780                88.3723               123.7368
 Red. masses --      6.8880                 5.9959                 4.3734
 Frc consts  --      0.0150                 0.0276                 0.0395
 IR Inten    --      0.1601                 2.9323                 0.8645

                      7                      8                      9
                      A                      A                      A
 Frequencies --    143.5899               211.5219               234.6219
 Red. masses --      5.1225                 2.6515                 1.1931
 Frc consts  --      0.0622                 0.0699                 0.0387
 IR Inten    --      3.5490                10.7404                28.6279

                     10                     11                     12
                      A                      A                      A
 Frequencies --    259.4440               267.1015               312.6563
 Red. masses --      3.3476                 1.1347                 4.4999
 Frc consts  --      0.1328                 0.0477                 0.2592
 IR Inten    --      1.2815                 0.4186                 5.8339

                     13                     14                     15
                      A                      A                      A
 Frequencies --    321.5942               336.1872               399.4260
 Red. masses --      3.0810                 2.8384                 2.6767
 Frc consts  --      0.1877                 0.1890                 0.2516
 IR Inten    --      5.1756                 7.3079                 3.9072

                     16                     17                     18
                      A                      A                      A
 Frequencies --    502.4861               512.2726               574.0772
 Red. masses --      2.7102                 2.8722                 6.0226
 Frc consts  --      0.4032                 0.4441                 1.1694
 IR Inten    --      6.8620                 2.2366                 3.2995

                     19                     20                     21
                      A                      A                      A
 Frequencies --    578.0715               636.5427               646.0873
 Red. masses --     10.3346                 4.8376                 5.4509
 Frc consts  --      2.0347                 1.1549                 1.3406
 IR Inten    --     21.3907                19.2185                30.6729

                     22                     23                     24
                      A                      A                      A
 Frequencies --    752.6752               842.2907               848.9147
 Red. masses --      3.3169                 3.9158                 2.9507
 Frc consts  --      1.1071                 1.6368                 1.2529
 IR Inten    --      2.8722                26.7292                14.4822

                     25                     26                     27
                      A                      A                      A
 Frequencies --    878.0058               901.7450               937.6716
 Red. masses --      1.2883                 2.2758                 2.1810
 Frc consts  --      0.5851                 1.0903                 1.1298
 IR Inten    --      2.0735                 1.0661                25.5532

                     28                     29                     30
                      A                      A                      A
 Frequencies --    956.8172              1002.8389              1029.9712
 Red. masses --      2.1330                 2.3996                 1.8314
 Frc consts  --      1.1505                 1.4218                 1.1447
 IR Inten    --     10.3158                13.6226                 2.8966

                     31                     32                     33
                      A                      A                      A
 Frequencies --   1082.2974              1114.9086              1136.3996
 Red. masses --      3.5737                 1.6451                 1.9918
 Frc consts  --      2.4664                 1.2048                 1.5155
 IR Inten    --     72.3726                 7.9291                 0.8541

                     34                     35                     36
                      A                      A                      A
 Frequencies --   1146.8514              1199.9907              1271.7698
 Red. masses --      2.2262                 2.1045                 1.1459
 Frc consts  --      1.7251                 1.7855                 1.0920
 IR Inten    --      7.9662               191.0553                28.8740

                     37                     38                     39
                      A                      A                      A
 Frequencies --   1289.5872              1301.4722              1314.8327
 Red. masses --      1.3959                 1.1866                 1.3569
 Frc consts  --      1.3677                 1.1842                 1.3821
 IR Inten    --     41.1507                37.9091                30.0810

                     40                     41                     42
                      A                      A                      A
 Frequencies --   1340.2964              1385.9532              1403.9583
 Red. masses --      1.3381                 1.3772                 1.3644
 Frc consts  --      1.4162                 1.5587                 1.5845
 IR Inten    --      6.2329                18.5501                33.3494

                     43                     44                     45
                      A                      A                      A
 Frequencies --   1414.6901              1442.4501              1476.6206
 Red. masses --      1.4724                 1.2375                 6.0381
 Frc consts  --      1.7362                 1.5171                 7.7569
 IR Inten    --      6.8040                 5.6208                12.5793

                     46                     47                     48
                      A                      A                      A
 Frequencies --   1496.1167              1520.1496              1530.5021
 Red. masses --      1.0880                 1.0439                 1.1219
 Frc consts  --      1.4349                 1.4213                 1.5484
 IR Inten    --     10.1983                 6.0210                 2.9568

                     49                     50                     51
                      A                      A                      A
 Frequencies --   1530.8722              1532.5177              1840.9592
 Red. masses --      1.0573                 1.0855                11.4314
 Frc consts  --      1.4600                 1.5020                22.8265
 IR Inten    --      2.6432                 7.0194               227.2863

                     52                     53                     54
                      A                      A                      A
 Frequencies --   2356.3370              2704.1509              3049.6515
 Red. masses --     12.3757                 1.0376                 1.0385
 Frc consts  --     40.4851                 4.4703                 5.6908
 IR Inten    --    735.5303                 4.8491                19.6840

                     55                     56                     57
                      A                      A                      A
 Frequencies --   3059.9608              3074.6368              3083.3262
 Red. masses --      1.0662                 1.0731                 1.0641
 Frc consts  --      5.8821                 5.9770                 5.9605
 IR Inten    --     25.9611                 3.6871                28.1389

                     58                     59                     60
                      A                      A                      A
 Frequencies --   3083.9551              3115.1138              3117.4716
 Red. masses --      1.0718                 1.0998                 1.0991
 Frc consts  --      6.0058                 6.2880                 6.2932
 IR Inten    --      7.0514                24.5401                22.2640

                     61                     62                     63
                      A                      A                      A
 Frequencies --   3130.9994              3147.8049              3158.9750
 Red. masses --      1.1051                 1.1013                 1.1029
 Frc consts  --      6.3828                 6.4292                 6.4846
 IR Inten    --      8.2602                18.5538                 8.9314

 - Thermochemistry -
 -------------------
 Temperature   298.150 Kelvin.  Pressure   1.00000 Atm.
 Atom     1 has atomic number  6 and mass  12.00000

 Molecular mass:   189.04597 amu.
 Principal axes and moments of inertia in atomic units:
                           1         2         3
     Eigenvalues --  1677.835803267.518323676.78301
           X            0.99966   0.00727  -0.02505
           Y           -0.00633   0.99928   0.03734
           Z            0.02531  -0.03717   0.99899
 This molecule is an asymmetric top.
 Rotational symmetry number  1.
 Warning -- assumption of classical behavior for rotation
           may cause significant error
 Rotational temperatures (Kelvin)      0.05162     0.02651     0.02356
 Rotational constants (GHZ):           1.07564     0.55233     0.49085
 Zero-point vibrational energy     474341.8 (Joules/Mol)
                                  113.37042 (Kcal/Mol)
 Warning -- explicit consideration of  19 degrees of freedom as
           vibrations may cause significant error
 Vibrational temperatures:     22.34    33.46    71.65    87.59   127.15
          (Kelvin)            178.03   206.59   304.33   337.57   373.28
                              384.30   449.84   462.70   483.70   574.68
                              722.97   737.05   825.97   831.72   915.84
                              929.58  1082.93  1211.87  1221.40  1263.25
                             1297.41  1349.10  1376.65  1442.86  1481.90
                             1557.18  1604.10  1635.03  1650.06  1726.52
                             1829.79  1855.43  1872.53  1891.75  1928.39
                             1994.08  2019.98  2035.42  2075.36  2124.53
                             2152.58  2187.16  2202.05  2202.58  2204.95
                             2648.73  3390.24  3890.67  4387.77  4402.60
                             4423.72  4436.22  4437.12  4481.95  4485.35
                             4504.81  4528.99  4545.06

 Zero-point correction=                           0.180667 (Hartree/Particle)
 Thermal correction to Energy=                    0.194305
 Thermal correction to Enthalpy=                  0.195249
 Thermal correction to Gibbs Free Energy=         0.137243
 Sum of electronic and zero-point Energies=           -951.849447
 Sum of electronic and thermal Energies=              -951.835809
 Sum of electronic and thermal Enthalpies=            -951.834865
 Sum of electronic and thermal Free Energies=         -951.892871

                     E (Thermal)             CV                S
                      KCal/Mol        Cal/Mol-Kelvin    Cal/Mol-Kelvin
 Total                  121.928             47.023            122.084
 Electronic               0.000              0.000              0.000
 Translational            0.889              2.981             41.616
 Rotational               0.889              2.981             31.378
 Vibrational            120.151             41.061             49.090
 Vibration     1          0.593              1.986              7.137
 Vibration     2          0.593              1.985              6.335
 Vibration     3          0.595              1.978              4.825
 Vibration     4          0.597              1.973              4.429
 Vibration     5          0.601              1.957              3.696
 Vibration     6          0.610              1.929              3.041
 Vibration     7          0.616              1.910              2.755
 Vibration     8          0.643              1.823              2.030
 Vibration     9          0.654              1.788              1.843
 Vibration    10          0.668              1.747              1.666
 Vibration    11          0.672              1.734              1.615
 Vibration    12          0.701              1.650              1.348
 Vibration    13          0.707              1.632              1.302
 Vibration    14          0.717              1.603              1.230
 Vibration    15          0.765              1.471              0.965
 Vibration    16          0.858              1.244              0.652
 Vibration    17          0.867              1.223              0.628
 Vibration    18          0.930              1.087              0.496
 Vibration    19          0.935              1.079              0.489

                           ! Non-Optimized Parameters !
 Normal termination of Gaussian 16 at Wed Dec  9 18:15:58 2020.

 ----------------------------------------------------------------------
 # B3LYP/6-311++G(d,p) empiricaldispersion=gd3bj scf=xqc pop=npa geom=c
 heck
 ----------------------------------------------------------------------

 ---------------------------------------
 CID_149755759_JID_2803_Energie_neutraal
 ---------------------------------------
 Structure from the checkpoint file:  "JID_2803.chk"
 Charge =  0 Multiplicity = 1

 SCF Done:  E(RB3LYP) =  -952.226448518     A.U. after   14 cycles
 Normal termination of Gaussian 16 at Wed Dec  9 18:17:59 2020.

 ----------------------------------------------------------------------
 # B3LYP/6-311++G(d,p) empiricaldispersion=gd3bj scf=xqc pop=npa geom=c
 heck
 ----------------------------------------------------------------------

 -------------------------------------
 CID_149755759_JID_2803_Energie_kation
 -------------------------------------
 Structure from the checkpoint file:  "JID_2803.chk"
 Charge =  1 Multiplicity = 2

 SCF Done:  E(UB3LYP) =  -951.896444957     A.U. after   26 cycles
 Normal termination of Gaussian 16 at Wed Dec  9 18:22:45 2020.
 Gaussian 16:  ES64L-G16RevA.03 25-Dec-2016

 ----------------------------------------------------------------------
 # B3LYP/6-311++G(d,p) empiricaldispersion=gd3bj scf=xqc pop=npa geom=c
 heck
 ----------------------------------------------------------------------

 ------------------------------------
 CID_149755759_JID_2803_Energie_anion
 ------------------------------------
 Structure from the checkpoint file:  "JID_2803.chk"
 Charge = -1 Multiplicity = 2

                         Standard orientation:
 ---------------------------------------------------------------------
 Center     Atomic      Atomic             Coordinates (Angstroms)
 Number     Number       Type             X           Y           Z
 ---------------------------------------------------------------------
      1          6           0       -2.960174   -0.938107   -0.469952
      2          6           0       -2.366281    0.205266    0.355022
      3          6           0       -1.215000   -0.264847    1.270758
      4          6           0       -0.183665   -1.156720    0.613926
      5          8           0        0.128160   -2.261551    0.988556
      6          8           0        0.388534   -0.544572   -0.465828
      7          6           0        1.500941   -1.202501   -1.095946
      8          6           0        2.531247   -0.126969   -1.416520
      9          7           0        2.980014    0.561555   -0.225854
     10          6           0        2.377061    1.032150    0.715593
     11          8           0        1.930808    1.522991    1.690109
     12         16           0       -1.959291    1.682283   -0.680744
     13          1           0       -2.234517   -1.309464   -1.201847
     14          1           0       -3.846949   -0.604718   -1.014339
     15          1           0       -3.240060   -1.775361    0.181638
     16          1           0       -3.141440    0.605484    1.017237
     17          1           0       -0.695266    0.601352    1.694050
     18          1           0       -1.631776   -0.852289    2.094066
     19          1           0        1.900990   -1.958722   -0.418619
     20          1           0        1.151294   -1.687013   -2.013616
     21          1           0        3.397357   -0.592802   -1.895528
     22          1           0        2.112303    0.599114   -2.124065
     23          1           0       -0.968159    1.102421   -1.386069
 ---------------------------------------------------------------------

 SCF Done:  E(UB3LYP) =  -952.217702315     A.U. after   27 cycles

 The electronic state is 2-A.
 Alpha  occ. eigenvalues --  -88.73623 -19.07536 -19.06996 -19.02047 -14.23830
 Alpha  occ. eigenvalues --  -10.20824 -10.20555 -10.13455 -10.12711 -10.12158
 Alpha  occ. eigenvalues --  -10.09253 -10.07114  -7.82351  -5.78719  -5.78373
 Alpha  occ. eigenvalues --   -5.77737  -1.01514  -1.00564  -0.93229  -0.85774
 Alpha  occ. eigenvalues --   -0.73390  -0.68835  -0.63649  -0.60634  -0.57879
 Alpha  occ. eigenvalues --   -0.50530  -0.47843  -0.44102  -0.41528  -0.40108
 Alpha  occ. eigenvalues --   -0.39684  -0.38919  -0.37451  -0.36284  -0.35157
 Alpha  occ. eigenvalues --   -0.35081  -0.32469  -0.32194  -0.31516  -0.30489
 Alpha  occ. eigenvalues --   -0.29025  -0.27422  -0.26005  -0.24852  -0.22642
 Alpha  occ. eigenvalues --   -0.21979  -0.20467  -0.18962  -0.18565  -0.13965
 Alpha  occ. eigenvalues --    0.04292
 Alpha virt. eigenvalues --    0.06159   0.08000   0.08626   0.08797   0.09408
 Alpha virt. eigenvalues --    0.09618   0.10254   0.11003   0.11409   0.12062
 Alpha virt. eigenvalues --    0.12438   0.12895   0.13555   0.14147   0.14544

  Beta  occ. eigenvalues --  -88.73612 -19.07520 -19.06972 -19.02006 -14.23832
  Beta  occ. eigenvalues --  -10.20772 -10.20530 -10.13421 -10.12643 -10.12137
  Beta  occ. eigenvalues --  -10.09249 -10.07080  -7.82339  -5.78701  -5.78365
  Beta  occ. eigenvalues --   -5.77728  -1.01459  -1.00516  -0.93170  -0.85729
  Beta  occ. eigenvalues --   -0.73344  -0.68756  -0.63580  -0.60573  -0.57782
  Beta  occ. eigenvalues --   -0.50429  -0.47772  -0.44023  -0.41448  -0.40049
  Beta  occ. eigenvalues --   -0.39601  -0.38848  -0.37360  -0.36216  -0.35103
  Beta  occ. eigenvalues --   -0.35033  -0.32394  -0.32119  -0.31396  -0.30433
  Beta  occ. eigenvalues --   -0.28954  -0.27360  -0.25947  -0.24790  -0.22581
  Beta  occ. eigenvalues --   -0.21916  -0.20396  -0.18917  -0.18528  -0.13938
  Beta virt. eigenvalues --    0.06708   0.07601   0.08434   0.09232   0.09327
  Beta virt. eigenvalues --    0.10100   0.10182   0.10538   0.11313   0.11466
  Beta virt. eigenvalues --    0.12194   0.12721   0.13362   0.13687   0.14498

 Mulliken charges and spin densities:
               1          2
     1  C    0.549502  -1.183075
     2  C   -0.380830   0.599481
     3  C    0.025329  -0.379977
     4  C   -0.085683  -0.122386
     5  O   -0.248791   0.032326
     6  O   -0.028670   0.032968
     7  C    0.148225  -0.289144
     8  C    1.620381  -2.072538
     9  N   -0.366793   0.241257
    10  C    0.334120   0.032127
    11  O   -0.273871   0.009319
    12  S    0.116534  -0.236099
    13  H   -0.134607   0.308276
    14  H   -0.216977   0.365787
    15  H   -0.043253   0.177673
    16  H   -0.372025   0.640288
    17  H    0.098012   0.073935
    18  H   -0.036263   0.242470
    19  H    0.158680   0.047437
    20  H   -0.575975   0.756711
    21  H   -0.892630   1.100522
    22  H   -0.417076   0.624233
    23  H    0.022662  -0.001591
 Sum of Mulliken charges =  -1.00000   1.00000

 Dipole moment (field-independent basis, Debye):
    X=             -1.4983    Y=              1.0108    Z=              3.7175  Tot=              4.1336
 Quadrupole moment (field-independent basis, Debye-Ang):
   XX=           -139.2673   YY=           -114.9875   ZZ=           -122.7818
   XY=              4.6410   XZ=             10.6225   YZ=             -4.0814

 Summary of Natural Population Analysis:

                                       Natural Population
                Natural  -----------------------------------------------
    Atom  No    Charge         Core      Valence    Rydberg      Total
 -----------------------------------------------------------------------
      C    1   -0.29074      0.99963     2.28498    0.00613     3.29074
      C    2   -0.16067      0.99957     2.14783    0.01326     3.16067
      C    3   -0.24408      0.99954     2.23384    0.01070     3.24408
      C    4    0.42249      0.99968     1.55323    0.02460     2.57751
      O    5   -0.29804      0.99987     3.29265    0.00551     4.29804
      O    6   -0.29801      0.99986     3.28602    0.01213     4.29801
      C    7   -0.02007      0.99955     2.00840    0.01213     3.02007
      C    8   -0.09661      0.99958     2.08489    0.01214     3.09661
      N    9   -0.28168      0.99952     2.77256    0.00959     3.78168
      C   10    0.42558      0.99958     1.55637    0.01847     2.57442
      O   11   -0.26519      0.99987     3.25774    0.00758     4.26519
      S   12   -0.02821      4.99963     3.01385    0.01473     8.02821
      H   13    0.10234      0.00000     0.39610    0.00157     0.39766
      H   14    0.10608      0.00000     0.39242    0.00149     0.39392
      H   15    0.10052      0.00000     0.39810    0.00138     0.39948
      H   16    0.10597      0.00000     0.39233    0.00170     0.39403
      H   17    0.12493      0.00000     0.37360    0.00147     0.37507
      H   18    0.11144      0.00000     0.38746    0.00111     0.38856
      H   19    0.10129      0.00000     0.39725    0.00145     0.39871
      H   20    0.10040      0.00000     0.39598    0.00362     0.39960
      H   21    0.10803      0.00000     0.38741    0.00456     0.39197
      H   22    0.10313      0.00000     0.39335    0.00352     0.39687
      H   23    0.07109      0.00000     0.42539    0.00351     0.42891
 =======================================================================
   * Total *    0.00000     15.99587    33.83176    0.17237    50.00000

 Normal termination of Gaussian 16 at Wed Dec  9 18:27:09 2020.
