 Gaussian 16, Revision A.03,

 -----------------------------------------------------------
 # opt freq B3LYP/6-31G(d) empiricaldispersion=gd3bj scf=xqc
 -----------------------------------------------------------

 ------------------------------
 CID_20348351_JID_4587_neutraal
 ------------------------------
 Symbolic Z-matrix:
 Charge =  0 Multiplicity = 1

 SCF Done:  E(RB3LYP) =  -1065.27389430     A.U. after   15 cycles
 SCF Done:  E(RB3LYP) =  -1065.28072534     A.U. after   12 cycles
 SCF Done:  E(RB3LYP) =  -1065.28258595     A.U. after   12 cycles
 SCF Done:  E(RB3LYP) =  -1065.28405186     A.U. after   13 cycles
 SCF Done:  E(RB3LYP) =  -1065.28488474     A.U. after   13 cycles
 SCF Done:  E(RB3LYP) =  -1065.28544291     A.U. after   12 cycles
 SCF Done:  E(RB3LYP) =  -1065.28574228     A.U. after   13 cycles
 SCF Done:  E(RB3LYP) =  -1065.28590257     A.U. after   12 cycles
 SCF Done:  E(RB3LYP) =  -1065.28594715     A.U. after   11 cycles
 SCF Done:  E(RB3LYP) =  -1065.28595655     A.U. after   11 cycles
 SCF Done:  E(RB3LYP) =  -1065.28595865     A.U. after    9 cycles
 SCF Done:  E(RB3LYP) =  -1065.28595916     A.U. after    9 cycles
 SCF Done:  E(RB3LYP) =  -1065.28595929     A.U. after    8 cycles
 SCF Done:  E(RB3LYP) =  -1065.28595931     A.U. after    8 cycles
 Optimization completed.
    -- Stationary point found.
 Normal termination of Gaussian 16 at Thu Dec 10 10:08:10 2020.

 --------------------------------------------------------------------
 #N Geom=AllCheck Guess=TCheck SCRF=Check GenChk RB3LYP/6-31G(d) Freq
 --------------------------------------------------------------------

 Structure from the checkpoint file:  "JID_4587.chk"
 ------------------------------
 CID_20348351_JID_4587_neutraal
 ------------------------------
 Charge =  0 Multiplicity = 1

 SCF Done:  E(RB3LYP) =  -1065.28595931     A.U. after    1 cycles

  Exact polarizability: 163.823   5.054 123.248   2.226   4.896  72.465
 Approx polarizability: 222.498  10.616 214.740  10.053  12.202 113.379

                      1                      2                      3
                      A                      A                      A
 Frequencies --     27.4187                50.6687                85.6990
 Red. masses --      7.6184                 4.8534                 3.5835
 Frc consts  --      0.0034                 0.0073                 0.0155
 IR Inten    --      1.5586                 1.9660                 4.2328

                      4                      5                      6
                      A                      A                      A
 Frequencies --    105.5668               124.2601               132.6041
 Red. masses --      5.0194                 6.2891                 1.3635
 Frc consts  --      0.0330                 0.0572                 0.0141
 IR Inten    --      1.0930                 0.3321                90.4659

                      7                      8                      9
                      A                      A                      A
 Frequencies --    171.4768               240.2932               247.6748
 Red. masses --      6.1599                 1.8009                 4.1919
 Frc consts  --      0.1067                 0.0613                 0.1515
 IR Inten    --      1.4320                 0.8983                 2.4131

                     10                     11                     12
                      A                      A                      A
 Frequencies --    258.7952               287.7640               328.7284
 Red. masses --      1.6227                 5.7513                 3.1905
 Frc consts  --      0.0640                 0.2806                 0.2031
 IR Inten    --      0.6959                 0.9731                18.0394

                     13                     14                     15
                      A                      A                      A
 Frequencies --    342.2086               348.4390               388.8610
 Red. masses --      2.8375                 1.6621                 3.0750
 Frc consts  --      0.1958                 0.1189                 0.2740
 IR Inten    --     36.1809                99.9091                 8.8413

                     16                     17                     18
                      A                      A                      A
 Frequencies --    433.4793               455.5466               473.3093
 Red. masses --      4.4272                 4.2344                 3.1685
 Frc consts  --      0.4901                 0.5177                 0.4182
 IR Inten    --     14.7383                21.2173                55.1372

                     19                     20                     21
                      A                      A                      A
 Frequencies --    491.9860               495.6236               572.7612
 Red. masses --      3.9282                 1.6269                 8.2293
 Frc consts  --      0.5602                 0.2355                 1.5906
 IR Inten    --     23.4973                69.9853               117.3304

                     22                     23                     24
                      A                      A                      A
 Frequencies --    590.9564               610.4079               649.5363
 Red. masses --      4.0921                 4.9808                 4.7501
 Frc consts  --      0.8420                 1.0934                 1.1808
 IR Inten    --     17.0246                18.2776                 7.7578

                     25                     26                     27
                      A                      A                      A
 Frequencies --    696.0550               723.3564               787.4717
 Red. masses --      2.6582                 7.0927                 7.8804
 Frc consts  --      0.7588                 2.1866                 2.8792
 IR Inten    --      6.2513                10.9374               323.4673

                     28                     29                     30
                      A                      A                      A
 Frequencies --    800.9436               866.1228               880.3745
 Red. masses --      1.4344                 2.5726                 1.4507
 Frc consts  --      0.5421                 1.1371                 0.6625
 IR Inten    --     10.1198                10.5951                18.1683

                     31                     32                     33
                      A                      A                      A
 Frequencies --    912.5184               920.1703               990.1672
 Red. masses --      2.2483                 1.5567                 1.2818
 Frc consts  --      1.1030                 0.7766                 0.7404
 IR Inten    --     23.9964                 8.7773                 0.8023

                     34                     35                     36
                      A                      A                      A
 Frequencies --    998.1696              1011.9568              1071.5650
 Red. masses --      2.1238                 5.8982                 2.0193
 Frc consts  --      1.2467                 3.5587                 1.3661
 IR Inten    --     21.6793                 7.1257                78.0885

                     37                     38                     39
                      A                      A                      A
 Frequencies --   1105.0145              1118.6751              1131.2441
 Red. masses --      2.7042                 2.3306                 1.7644
 Frc consts  --      1.9455                 1.7184                 1.3304
 IR Inten    --     24.5741                11.5674                34.7628

                     40                     41                     42
                      A                      A                      A
 Frequencies --   1141.3653              1180.0352              1188.2930
 Red. masses --      1.6591                 2.1556                 2.4050
 Frc consts  --      1.2734                 1.7685                 2.0009
 IR Inten    --     62.6308               200.4126               113.5800

                     43                     44                     45
                      A                      A                      A
 Frequencies --   1213.7310              1290.9660              1318.3569
 Red. masses --      1.1668                 1.9636                 1.3738
 Frc consts  --      1.0128                 1.9281                 1.4068
 IR Inten    --      3.4349                71.9255                16.4701

                     46                     47                     48
                      A                      A                      A
 Frequencies --   1352.4610              1358.0905              1372.1014
 Red. masses --      2.1002                 2.0819                 4.3140
 Frc consts  --      2.2634                 2.2624                 4.7852
 IR Inten    --     80.5080                45.7734               122.9478

                     49                     50                     51
                      A                      A                      A
 Frequencies --   1389.0479              1435.5045              1443.9747
 Red. masses --      2.0263                 1.3116                 1.3066
 Frc consts  --      2.3035                 1.5924                 1.6051
 IR Inten    --     50.9431                14.5077                90.1340

                     52                     53                     54
                      A                      A                      A
 Frequencies --   1469.2141              1522.1028              1523.0413
 Red. masses --      1.9066                 1.0794                 1.0572
 Frc consts  --      2.4249                 1.4734                 1.4449
 IR Inten    --     18.7609                 4.2725                 8.1573

                     55                     56                     57
                      A                      A                      A
 Frequencies --   1536.4331              1553.8579              1639.9021
 Red. masses --      2.5271                 1.7390                 4.5825
 Frc consts  --      3.5148                 2.4738                 7.2608
 IR Inten    --    110.4631               104.7722                 6.1374

                     58                     59                     60
                      A                      A                      A
 Frequencies --   1666.5052              3041.5844              3051.2972
 Red. masses --      5.8352                 1.0838                 1.0400
 Frc consts  --      9.5481                 5.9073                 5.7050
 IR Inten    --    119.3698                26.7320                16.3436

                     61                     62                     63
                      A                      A                      A
 Frequencies --   3116.8086              3156.6397              3202.5823
 Red. masses --      1.1024                 1.1001                 1.0891
 Frc consts  --      6.3095                 6.4584                 6.5814
 IR Inten    --     30.0118                13.3350                12.4773

                     64                     65                     66
                      A                      A                      A
 Frequencies --   3210.0539              3237.5140              3241.1243
 Red. masses --      1.0904                 1.0915                 1.0942
 Frc consts  --      6.6199                 6.7405                 6.7722
 IR Inten    --      3.8783                 0.3016                 1.3574

                     67                     68                     69
                      A                      A                      A
 Frequencies --   3590.0805              3707.1801              3714.6853
 Red. masses --      1.0762                 1.0659                 1.0652
 Frc consts  --      8.1725                 8.6312                 8.6601
 IR Inten    --     12.6234               107.0758                16.8960

 - Thermochemistry -
 -------------------
 Temperature   298.150 Kelvin.  Pressure   1.00000 Atm.
 Atom     1 has atomic number  6 and mass  12.00000

 Molecular mass:   217.04088 amu.
 Principal axes and moments of inertia in atomic units:
                           1         2         3
     Eigenvalues --  1233.202246360.410897091.15816
           X            0.99987   0.01503  -0.00599
           Y           -0.01499   0.99987   0.00611
           Z            0.00608  -0.00602   0.99996
 This molecule is an asymmetric top.
 Rotational symmetry number  1.
 Warning -- assumption of classical behavior for rotation
           may cause significant error
 Rotational temperatures (Kelvin)      0.07023     0.01362     0.01221
 Rotational constants (GHZ):           1.46346     0.28375     0.25451
 Zero-point vibrational energy     507171.2 (Joules/Mol)
                                  121.21683 (Kcal/Mol)
 Warning -- explicit consideration of  23 degrees of freedom as
           vibrations may cause significant error
 Vibrational temperatures:     39.45    72.90   123.30   151.89   178.78
          (Kelvin)            190.79   246.72   345.73   356.35   372.35
                              414.03   472.97   492.36   501.33   559.48
                              623.68   655.43   680.99   707.86   713.09
                              824.08   850.25   878.24   934.54  1001.47
                             1040.75  1133.00  1152.38  1246.16  1266.66
                             1312.91  1323.92  1424.63  1436.14  1455.98
                             1541.74  1589.87  1609.52  1627.61  1642.17
                             1697.81  1709.69  1746.29  1857.41  1896.82
                             1945.89  1953.99  1974.15  1998.53  2065.37
                             2077.56  2113.87  2189.97  2191.32  2210.58
                             2235.66  2359.45  2397.73  4376.16  4390.14
                             4484.39  4541.70  4607.80  4618.55  4658.06
                             4663.26  5165.33  5333.81  5344.60

 Zero-point correction=                           0.193171 (Hartree/Particle)
 Thermal correction to Energy=                    0.207361
 Thermal correction to Enthalpy=                  0.208305
 Thermal correction to Gibbs Free Energy=         0.151278
 Sum of electronic and zero-point Energies=          -1065.092788
 Sum of electronic and thermal Energies=             -1065.078598
 Sum of electronic and thermal Enthalpies=           -1065.077654
 Sum of electronic and thermal Free Energies=        -1065.134681

                     E (Thermal)             CV                S
                      KCal/Mol        Cal/Mol-Kelvin    Cal/Mol-Kelvin
 Total                  130.121             52.954            120.024
 Electronic               0.000              0.000              0.000
 Translational            0.889              2.981             42.028
 Rotational               0.889              2.981             32.386
 Vibrational            128.344             46.992             45.610
 Vibration     1          0.593              1.984              6.008
 Vibration     2          0.595              1.977              4.791
 Vibration     3          0.601              1.959              3.756
 Vibration     4          0.605              1.945              3.349
 Vibration     5          0.610              1.929              3.033
 Vibration     6          0.613              1.921              2.908
 Vibration     7          0.626              1.878              2.419
 Vibration     8          0.657              1.779              1.801
 Vibration     9          0.661              1.767              1.747
 Vibration    10          0.668              1.748              1.670
 Vibration    11          0.685              1.696              1.487
 Vibration    12          0.712              1.618              1.266
 Vibration    13          0.721              1.591              1.202
 Vibration    14          0.726              1.578              1.173
 Vibration    15          0.757              1.494              1.005
 Vibration    16          0.794              1.397              0.847
 Vibration    17          0.814              1.349              0.779
 Vibration    18          0.830              1.309              0.728
 Vibration    19          0.848              1.268              0.678
 Vibration    20          0.851              1.260              0.669
 Vibration    21          0.929              1.090              0.499
 Vibration    22          0.948              1.051              0.465
 Vibration    23          0.969              1.010              0.432

                           ! Non-Optimized Parameters !
 Normal termination of Gaussian 16 at Thu Dec 10 10:14:16 2020.

 ----------------------------------------------------------------------
 # B3LYP/6-311++G(d,p) empiricaldispersion=gd3bj scf=xqc pop=npa geom=c
 heck
 ----------------------------------------------------------------------

 --------------------------------------
 CID_20348351_JID_4587_Energie_neutraal
 --------------------------------------
 Structure from the checkpoint file:  "JID_4587.chk"
 Charge =  0 Multiplicity = 1

 SCF Done:  E(RB3LYP) =  -1065.52044764     A.U. after   17 cycles
 Normal termination of Gaussian 16 at Thu Dec 10 10:16:52 2020.

 ----------------------------------------------------------------------
 # B3LYP/6-311++G(d,p) empiricaldispersion=gd3bj scf=xqc pop=npa geom=c
 heck
 ----------------------------------------------------------------------

 ------------------------------------
 CID_20348351_JID_4587_Energie_kation
 ------------------------------------
 Structure from the checkpoint file:  "JID_4587.chk"
 Charge =  1 Multiplicity = 2

 SCF Done:  E(UB3LYP) =  -1065.21470859     A.U. after   26 cycles
 Normal termination of Gaussian 16 at Thu Dec 10 10:22:04 2020.
 Gaussian 16:  ES64L-G16RevA.03 25-Dec-2016

 ----------------------------------------------------------------------
 # B3LYP/6-311++G(d,p) empiricaldispersion=gd3bj scf=xqc pop=npa geom=c
 heck
 ----------------------------------------------------------------------

 -----------------------------------
 CID_20348351_JID_4587_Energie_anion
 -----------------------------------
 Structure from the checkpoint file:  "JID_4587.chk"
 Charge = -1 Multiplicity = 2

                         Standard orientation:
 ---------------------------------------------------------------------
 Center     Atomic      Atomic             Coordinates (Angstroms)
 Number     Number       Type             X           Y           Z
 ---------------------------------------------------------------------
      1          6           0       -4.532909   -1.491353    0.442757
      2          6           0       -3.631569   -0.274280    0.261296
      3          7           0       -2.329320   -0.700442   -0.219883
      4          6           0       -1.201011    0.107980   -0.072274
      5          6           0        0.073080   -0.480891   -0.044778
      6          6           0        1.194404    0.329066    0.094061
      7          6           0        1.110125    1.715489    0.220565
      8          6           0       -0.159427    2.288811    0.181252
      9          6           0       -1.303515    1.507776    0.028610
     10         16           0        2.797981   -0.445401    0.112927
     11          8           0        3.687519    0.334371    0.958697
     12          8           0        2.634958   -1.891753    0.276257
     13          8           0        3.310448   -0.210939   -1.437805
     14          8           0       -4.208480    0.678723   -0.620945
     15          1           0       -4.609908   -2.052182   -0.496880
     16          1           0       -5.533512   -1.160434    0.729604
     17          1           0       -4.149985   -2.161906    1.220669
     18          1           0       -3.536038    0.271010    1.210023
     19          1           0       -2.144112   -1.687818   -0.097542
     20          1           0        0.192139   -1.557836   -0.108594
     21          1           0        2.004638    2.312351    0.351325
     22          1           0       -0.263729    3.366253    0.268113
     23          1           0       -2.280096    1.972434   -0.035508
     24          1           0        3.280647   -1.084480   -1.870496
     25          1           0       -4.113143    0.313319   -1.516931
 ---------------------------------------------------------------------

 SCF Done:  E(UB3LYP) =  -1065.52239407     A.U. after   32 cycles

 The electronic state is 2-A.
 Alpha  occ. eigenvalues --  -88.95894 -19.06057 -19.02284 -19.01318 -19.01083
 Alpha  occ. eigenvalues --  -14.21982 -10.15736 -10.10118 -10.07733 -10.07005
 Alpha  occ. eigenvalues --  -10.05917 -10.05708 -10.05690 -10.04267  -8.02014
 Alpha  occ. eigenvalues --   -5.98422  -5.98244  -5.98007  -1.03530  -0.93627
 Alpha  occ. eigenvalues --   -0.92815  -0.90768  -0.82389  -0.73989  -0.66290
 Alpha  occ. eigenvalues --   -0.64988  -0.61359  -0.56790  -0.53454  -0.50170
 Alpha  occ. eigenvalues --   -0.48943  -0.45053  -0.41629  -0.41226  -0.38421
 Alpha  occ. eigenvalues --   -0.37943  -0.37315  -0.36814  -0.34219  -0.33278
 Alpha  occ. eigenvalues --   -0.32343  -0.31879  -0.29585  -0.29293  -0.27676
 Alpha  occ. eigenvalues --   -0.26570  -0.25697  -0.25289  -0.24613  -0.23881
 Alpha  occ. eigenvalues --   -0.21989  -0.21046  -0.20375  -0.20210  -0.18057
 Alpha  occ. eigenvalues --   -0.14996  -0.10557   0.04094
 Alpha virt. eigenvalues --    0.06306   0.07372   0.08260   0.08786   0.09238
 Alpha virt. eigenvalues --    0.10071   0.10678   0.11756   0.11831   0.12262
 Alpha virt. eigenvalues --    0.13839   0.14249   0.14943   0.15877   0.16063

  Beta  occ. eigenvalues --  -88.95865 -19.05952 -19.02255 -19.01285 -19.01040
  Beta  occ. eigenvalues --  -14.21982 -10.15734 -10.10155 -10.07524 -10.06960
  Beta  occ. eigenvalues --  -10.05910 -10.05633 -10.05572 -10.04011  -8.01984
  Beta  occ. eigenvalues --   -5.98336  -5.98223  -5.97991  -1.03376  -0.93569
  Beta  occ. eigenvalues --   -0.92616  -0.90698  -0.82344  -0.73699  -0.66122
  Beta  occ. eigenvalues --   -0.64622  -0.61148  -0.56453  -0.53364  -0.50084
  Beta  occ. eigenvalues --   -0.48618  -0.44921  -0.41496  -0.41134  -0.38292
  Beta  occ. eigenvalues --   -0.37902  -0.37142  -0.36663  -0.34107  -0.33185
  Beta  occ. eigenvalues --   -0.32247  -0.31785  -0.29538  -0.29154  -0.27328
  Beta  occ. eigenvalues --   -0.26273  -0.25536  -0.25199  -0.24498  -0.23684
  Beta  occ. eigenvalues --   -0.21820  -0.20873  -0.20139  -0.20019  -0.17946
  Beta  occ. eigenvalues --   -0.13781  -0.09892
  Beta virt. eigenvalues --    0.06760   0.07525   0.08651   0.08786   0.09005
  Beta virt. eigenvalues --    0.09568   0.10257   0.10900   0.11829   0.12122
  Beta virt. eigenvalues --    0.12478   0.13835   0.14213   0.14870   0.15906

 Mulliken charges and spin densities:
               1          2
     1  C    1.134412  -1.808720
     2  C   -0.582142   0.521703
     3  N   -0.167587   0.130825
     4  C   -0.018022  -0.058169
     5  C   -0.025034   0.205071
     6  C   -0.648915  -0.264260
     7  C   -0.444204   0.057201
     8  C   -0.811205   0.231185
     9  C    0.574838   0.181106
    10  S    0.675266  -0.163523
    11  O   -0.212029   0.010854
    12  O   -0.283513   0.007484
    13  O   -0.122367  -0.023371
    14  O   -0.205197   0.020700
    15  H   -0.437167   0.595235
    16  H   -0.056925   0.211725
    17  H   -0.264941   0.418228
    18  H    0.204177  -0.018975
    19  H    0.123643   0.173263
    20  H   -0.035869   0.181179
    21  H    0.169165   0.009482
    22  H    0.112900   0.019309
    23  H    0.145592   0.021930
    24  H    0.155107   0.121130
    25  H    0.020018   0.219408
 Sum of Mulliken charges =  -1.00000   1.00000

 Dipole moment (field-independent basis, Debye):
    X=              1.2594    Y=              1.4582    Z=             -0.7672  Tot=              2.0739
 Quadrupole moment (field-independent basis, Debye-Ang):
   XX=           -168.3542   YY=           -115.3287   ZZ=           -107.6683
   XY=             -6.6635   XZ=            -10.0200   YZ=              3.9741

 Summary of Natural Population Analysis:

                                       Natural Population
                Natural  -----------------------------------------------
    Atom  No    Charge         Core      Valence    Rydberg      Total
 -----------------------------------------------------------------------
      C    1   -0.29954      0.99965     2.29408    0.00581     3.29954
      C    2    0.14742      0.99962     1.83708    0.01588     2.85258
      N    3   -0.32787      0.99966     2.81735    0.01087     3.82787
      C    4    0.08156      0.99949     1.90725    0.01170     2.91844
      C    5   -0.09504      0.99947     2.08443    0.01113     3.09504
      C    6   -0.10251      0.99936     2.08917    0.01398     3.10251
      C    7   -0.10430      0.99951     2.09445    0.01034     3.10430
      C    8   -0.09668      0.99958     2.08747    0.00964     3.09668
      C    9   -0.07712      0.99953     2.06942    0.00817     3.07712
      S   10    1.13770      4.99927     1.76119    0.10184     6.86230
      O   11   -0.45145      0.99990     3.44606    0.00549     4.45145
      O   12   -0.46872      0.99991     3.46250    0.00631     4.46872
      O   13   -0.43458      0.99991     3.42784    0.00683     4.43458
      O   14   -0.37390      0.99990     3.36741    0.00659     4.37390
      H   15    0.10173      0.00000     0.39591    0.00236     0.39827
      H   16    0.10524      0.00000     0.39379    0.00096     0.39476
      H   17    0.10176      0.00000     0.39690    0.00134     0.39824
      H   18    0.07815      0.00000     0.41939    0.00247     0.42185
      H   19    0.18833      0.00000     0.30888    0.00279     0.31167
      H   20    0.10808      0.00000     0.39063    0.00130     0.39192
      H   21    0.10720      0.00000     0.39172    0.00108     0.39280
      H   22    0.09531      0.00000     0.40384    0.00085     0.40469
      H   23    0.10706      0.00000     0.39171    0.00124     0.39294
      H   24    0.24255      0.00000     0.25335    0.00410     0.25745
      H   25    0.22964      0.00000     0.26668    0.00368     0.27036
 =======================================================================
   * Total *    0.00000     17.99475    38.75850    0.24675    57.00000

 Normal termination of Gaussian 16 at Thu Dec 10 10:30:18 2020.
