 Gaussian 16, Revision A.03,

 -----------------------------------------------------------
 # opt freq B3LYP/6-31G(d) empiricaldispersion=gd3bj scf=xqc
 -----------------------------------------------------------

 -----------------------------
 CID_19035669_JID_234_neutraal
 -----------------------------
 Symbolic Z-matrix:
 Charge =  0 Multiplicity = 1

 SCF Done:  E(RB3LYP) =  -792.536299686     A.U. after   22 cycles
 SCF Done:  E(RB3LYP) =  -792.585223841     A.U. after   18 cycles
 SCF Done:  E(RB3LYP) =  -792.645870137     A.U. after   20 cycles
 SCF Done:  E(RB3LYP) =  -792.690824521     A.U. after   21 cycles
 SCF Done:  E(RB3LYP) =  -792.729674653     A.U. after   19 cycles
 SCF Done:  E(RB3LYP) =  -792.777672174     A.U. after   18 cycles
 SCF Done:  E(RB3LYP) =  -792.810851913     A.U. after   16 cycles
 SCF Done:  E(RB3LYP) =  -792.829023231     A.U. after   17 cycles
 SCF Done:  E(RB3LYP) =  -792.833959018     A.U. after   16 cycles
 SCF Done:  E(RB3LYP) =  -792.835051501     A.U. after   16 cycles
 SCF Done:  E(RB3LYP) =  -792.835825790     A.U. after   15 cycles
 SCF Done:  E(RB3LYP) =  -792.835949473     A.U. after   15 cycles
 SCF Done:  E(RB3LYP) =  -792.836041553     A.U. after   12 cycles
 SCF Done:  E(RB3LYP) =  -792.836062904     A.U. after   12 cycles
 SCF Done:  E(RB3LYP) =  -792.836065162     A.U. after   11 cycles
 Optimization completed.
    -- Stationary point found.
 Normal termination of Gaussian 16 at Tue Dec  8 10:21:36 2020.

 --------------------------------------------------------------------
 #N Geom=AllCheck Guess=TCheck SCRF=Check GenChk RB3LYP/6-31G(d) Freq
 --------------------------------------------------------------------

 Structure from the checkpoint file:  "JID_234.chk"
 -----------------------------
 CID_19035669_JID_234_neutraal
 -----------------------------
 Charge =  0 Multiplicity = 1

 SCF Done:  E(RB3LYP) =  -792.836065162     A.U. after    1 cycles

  Exact polarizability: 149.595   1.684 113.739   0.006  -0.002  36.280
 Approx polarizability: 346.291  16.044 224.089   0.029  -0.015  59.142

                      1                      2                      3
                      A                      A                      A
 Frequencies --     77.0852               206.4215               234.2277
 Red. masses --      8.3178                 5.0841                 7.4002
 Frc consts  --      0.0291                 0.1276                 0.2392
 IR Inten    --      5.5415                 0.8995                 1.9107

                      4                      5                      6
                      A                      A                      A
 Frequencies --    236.8709               397.0213               435.6721
 Red. masses --      9.5271                 3.0806                14.7539
 Frc consts  --      0.3149                 0.2861                 1.6500
 IR Inten    --      1.2513                 6.1476                 2.6883

                      7                      8                      9
                      A                      A                      A
 Frequencies --    508.3145               535.7715               569.1151
 Red. masses --      7.0552                 3.0026                10.2939
 Frc consts  --      1.0741                 0.5078                 1.9644
 IR Inten    --      1.1866                 2.0708                 4.5166

                     10                     11                     12
                      A                      A                      A
 Frequencies --    669.4142               689.1331               794.6281
 Red. masses --      6.8951                 8.4392                 8.3312
 Frc consts  --      1.8205                 2.3613                 3.0995
 IR Inten    --      0.2983                 5.7067                 6.9794

                     13                     14                     15
                      A                      A                      A
 Frequencies --    847.6808               866.9628               870.9518
 Red. masses --      7.5185                 8.9617                 1.3626
 Frc consts  --      3.1831                 3.9686                 0.6090
 IR Inten    --     11.6749                12.5493                26.1211

                     16                     17                     18
                      A                      A                      A
 Frequencies --    951.8338               961.5060               965.0369
 Red. masses --      3.2739                 1.5814                 3.3229
 Frc consts  --      1.7476                 0.8614                 1.8233
 IR Inten    --     17.8282                 0.2865                18.7439

                     19                     20                     21
                      A                      A                      A
 Frequencies --    978.1566              1063.0478              1181.6623
 Red. masses --      1.5217                 7.4528                 4.9115
 Frc consts  --      0.8578                 4.9622                 4.0406
 IR Inten    --      1.1581                16.2272                68.8337

                     22                     23                     24
                      A                      A                      A
 Frequencies --   1207.6867              1271.4684              1336.3572
 Red. masses --      4.3242                 2.0796                 2.4014
 Frc consts  --      3.7159                 1.9808                 2.5267
 IR Inten    --      5.3004                95.2941                60.0697

                     25                     26                     27
                      A                      A                      A
 Frequencies --   1354.6823              1428.6647              1514.0981
 Red. masses --      3.2380                 1.2666                 8.4527
 Frc consts  --      3.5011                 1.5231                11.4170
 IR Inten    --     28.8532                30.6569                 1.6803

                     28                     29                     30
                      A                      A                      A
 Frequencies --   1538.2639              1646.6159              1710.6042
 Red. masses --      8.7142                 6.9513                 9.9106
 Frc consts  --     12.1490                11.1045                17.0864
 IR Inten    --     69.9852                21.1635                87.8856

                     31                     32                     33
                      A                      A                      A
 Frequencies --   3204.5429              3220.6982              3266.2435
 Red. masses --      1.0916                 1.0947                 1.0972
 Frc consts  --      6.6048                 6.6902                 6.8965
 IR Inten    --     23.1285                14.4269                 0.1268

 - Thermochemistry -
 -------------------
 Temperature   298.150 Kelvin.  Pressure   1.00000 Atm.
 Atom     1 has atomic number  6 and mass  12.00000

 Molecular mass:   149.00477 amu.
 Principal axes and moments of inertia in atomic units:
                           1         2         3
     Eigenvalues --   868.558841608.373992476.93256
           X            0.99913  -0.04162  -0.00000
           Y            0.04162   0.99913   0.00000
           Z            0.00000  -0.00000   1.00000
 This molecule is an asymmetric top.
 Rotational symmetry number  1.
 Warning -- assumption of classical behavior for rotation
           may cause significant error
 Rotational temperatures (Kelvin)      0.09972     0.05385     0.03497
 Rotational constants (GHZ):           2.07786     1.12209     0.72862
 Zero-point vibrational energy     219756.6 (Joules/Mol)
                                   52.52310 (Kcal/Mol)
 Warning -- explicit consideration of   9 degrees of freedom as
           vibrations may cause significant error
 Vibrational temperatures:    110.91   296.99   337.00   340.80   571.23
          (Kelvin)            626.84   731.35   770.86   818.83   963.14
                              991.51  1143.29  1219.62  1247.37  1253.11
                             1369.48  1383.39  1388.47  1407.35  1529.49
                             1700.15  1737.59  1829.36  1922.72  1949.09
                             2055.53  2178.45  2213.22  2369.11  2461.18
                             4610.62  4633.87  4699.40

 Zero-point correction=                           0.083701 (Hartree/Particle)
 Thermal correction to Energy=                    0.090855
 Thermal correction to Enthalpy=                  0.091799
 Thermal correction to Gibbs Free Energy=         0.051007
 Sum of electronic and zero-point Energies=           -792.752364
 Sum of electronic and thermal Energies=              -792.745211
 Sum of electronic and thermal Enthalpies=            -792.744266
 Sum of electronic and thermal Free Energies=         -792.785058

                     E (Thermal)             CV                S
                      KCal/Mol        Cal/Mol-Kelvin    Cal/Mol-Kelvin
 Total                   57.012             26.894             85.854
 Electronic               0.000              0.000              0.000
 Translational            0.889              2.981             40.907
 Rotational               0.889              2.981             29.627
 Vibrational             55.235             20.932             15.320
 Vibration     1          0.599              1.964              3.964
 Vibration     2          0.641              1.831              2.075
 Vibration     3          0.654              1.788              1.846
 Vibration     4          0.656              1.784              1.826
 Vibration     5          0.764              1.477              0.974
 Vibration     6          0.796              1.392              0.840
 Vibration     7          0.863              1.232              0.638
 Vibration     8          0.891              1.171              0.574
 Vibration     9          0.925              1.098              0.506

 Optimization completed.
    -- Stationary point found.
 Normal termination of Gaussian 16 at Tue Dec  8 10:23:45 2020.

 ----------------------------------------------------------------------
 # B3LYP/6-311++G(d,p) empiricaldispersion=gd3bj scf=xqc pop=npa geom=c
 heck
 ----------------------------------------------------------------------

 -------------------------------------
 CID_19035669_JID_234_Energie_neutraal
 -------------------------------------
 Structure from the checkpoint file:  "JID_234.chk"
 Charge =  0 Multiplicity = 1

 SCF Done:  E(RB3LYP) =  -792.959371588     A.U. after   18 cycles
 Normal termination of Gaussian 16 at Tue Dec  8 10:24:33 2020.

 ----------------------------------------------------------------------
 # B3LYP/6-311++G(d,p) empiricaldispersion=gd3bj scf=xqc pop=npa geom=c
 heck
 ----------------------------------------------------------------------

 -----------------------------------
 CID_19035669_JID_234_Energie_kation
 -----------------------------------
 Structure from the checkpoint file:  "JID_234.chk"
 Charge =  1 Multiplicity = 2

 SCF Done:  E(UB3LYP) =  -792.632575744     A.U. after   28 cycles
 Normal termination of Gaussian 16 at Tue Dec  8 10:26:27 2020.
 Gaussian 16:  ES64L-G16RevA.03 25-Dec-2016

 ----------------------------------------------------------------------
 # B3LYP/6-311++G(d,p) empiricaldispersion=gd3bj scf=xqc pop=npa geom=c
 heck
 ----------------------------------------------------------------------

 ----------------------------------
 CID_19035669_JID_234_Energie_anion
 ----------------------------------
 Structure from the checkpoint file:  "JID_234.chk"
 Charge = -1 Multiplicity = 2

                         Standard orientation:
 ---------------------------------------------------------------------
 Center     Atomic      Atomic             Coordinates (Angstroms)
 Number     Number       Type             X           Y           Z
 ---------------------------------------------------------------------
      1          6           0        0.817995   -1.689293    0.000789
      2          6           0        0.215575   -0.472952    0.000445
      3          6           0        1.318688    0.510779   -0.000178
      4          7           0        1.144155    1.784907   -0.000625
      5          6           0       -0.213277    2.166976    0.000222
      6          7           0       -1.280753    1.430333    0.000683
      7          6           0       -1.142401    0.037865    0.000171
      8         16           0       -2.487990   -0.926653   -0.000487
      9          7           0        2.580115   -0.140682   -0.000503
     10          6           0        2.279507   -1.404452   -0.000002
     11          1           0        0.352067   -2.666311    0.001453
     12          1           0       -0.357999    3.244736    0.001043
     13          1           0        3.052620   -2.167426   -0.000279
 ---------------------------------------------------------------------

 SCF Done:  E(UB3LYP) =  -793.076770686     A.U. after   26 cycles

 The electronic state is 2-A.
 Alpha  occ. eigenvalues --  -88.66342 -14.17756 -14.17230 -14.16501 -10.10514
 Alpha  occ. eigenvalues --  -10.10165 -10.09622 -10.08040 -10.04440 -10.04357
 Alpha  occ. eigenvalues --   -7.75135  -5.71380  -5.71379  -5.70556  -0.85199
 Alpha  occ. eigenvalues --   -0.80697  -0.74916  -0.66049  -0.61018  -0.55742
 Alpha  occ. eigenvalues --   -0.49292  -0.47378  -0.41054  -0.39561  -0.34631
 Alpha  occ. eigenvalues --   -0.31754  -0.30665  -0.28548  -0.27373  -0.24354
 Alpha  occ. eigenvalues --   -0.23103  -0.20239  -0.17132  -0.14152  -0.13636
 Alpha  occ. eigenvalues --   -0.11677  -0.11296  -0.07774  -0.05143
 Alpha virt. eigenvalues --    0.09021   0.09463   0.10778   0.11810   0.12855
 Alpha virt. eigenvalues --    0.14263   0.15208   0.15335   0.16032   0.17276
 Alpha virt. eigenvalues --    0.17901   0.18309   0.18783   0.18998   0.19465

  Beta  occ. eigenvalues --  -88.66159 -14.17633 -14.17198 -14.16399 -10.10456
  Beta  occ. eigenvalues --  -10.10025 -10.09444 -10.07893 -10.04373 -10.04133
  Beta  occ. eigenvalues --   -7.74970  -5.71279  -5.70812  -5.70452  -0.84824
  Beta  occ. eigenvalues --   -0.80371  -0.74617  -0.65751  -0.60461  -0.55003
  Beta  occ. eigenvalues --   -0.48824  -0.46895  -0.40582  -0.39382  -0.34350
  Beta  occ. eigenvalues --   -0.31529  -0.29545  -0.28258  -0.27206  -0.23289
  Beta  occ. eigenvalues --   -0.22644  -0.18814  -0.16919  -0.13968  -0.12875
  Beta  occ. eigenvalues --   -0.11568  -0.09034  -0.07353
  Beta virt. eigenvalues --    0.00609   0.09457   0.10528   0.10774   0.11802
  Beta virt. eigenvalues --    0.13918   0.14289   0.15239   0.15488   0.16036
  Beta virt. eigenvalues --    0.17891   0.18052   0.18782   0.18997   0.19206

 Mulliken charges and spin densities:
               1          2
     1  C   -0.365532   0.313003
     2  C    1.467940  -0.093222
     3  C   -0.788434   0.109008
     4  N   -0.151828   0.071366
     5  C    0.073419   0.096200
     6  N    0.040406   0.011028
     7  C   -0.828634   0.071419
     8  S   -0.770921   0.321458
     9  N   -0.163682   0.043215
    10  C    0.066094   0.089471
    11  H    0.101948  -0.013114
    12  H    0.181922  -0.008553
    13  H    0.137303  -0.011280
 Sum of Mulliken charges =  -1.00000   1.00000

 Dipole moment (field-independent basis, Debye):
    X=              1.4073    Y=             -1.4272    Z=              0.0024  Tot=              2.0043
 Quadrupole moment (field-independent basis, Debye-Ang):
   XX=           -102.0377   YY=            -74.9130   ZZ=            -69.1221
   XY=             -7.4898   XZ=              0.0038   YZ=              0.0010

 Summary of Natural Population Analysis:

                                       Natural Population
                Natural  -----------------------------------------------
    Atom  No    Charge         Core      Valence    Rydberg      Total
 -----------------------------------------------------------------------
      C    1   -0.02563      0.99951     2.01861    0.00751     3.02563
      C    2   -0.09496      0.99942     2.08120    0.01435     3.09496
      C    3    0.25185      0.99951     1.72466    0.02399     2.74815
      N    4   -0.22429      0.99965     2.71394    0.01069     3.72429
      C    5    0.17225      0.99965     1.80985    0.01826     2.82775
      N    6   -0.25720      0.99967     2.74316    0.01437     3.75720
      C    7    0.01530      0.99953     1.96803    0.01714     2.98470
      S    8    0.07058      4.99943     2.91515    0.01484     7.92942
      N    9   -0.24183      0.99970     2.72949    0.01264     3.74183
      C   10    0.08212      0.99966     1.90352    0.01470     2.91788
      H   11    0.09957      0.00000     0.39926    0.00117     0.40043
      H   12    0.07347      0.00000     0.42521    0.00132     0.42653
      H   13    0.07878      0.00000     0.42003    0.00119     0.42122
 =======================================================================
   * Total *    0.00000     13.99573    23.85211    0.15216    38.00000

 Normal termination of Gaussian 16 at Tue Dec  8 10:28:08 2020.
