 Gaussian 16, Revision A.03,

 -----------------------------------------------------------
 # opt freq B3LYP/6-31G(d) empiricaldispersion=gd3bj scf=xqc
 -----------------------------------------------------------

 -------------------------------
 CID_121731135_JID_9165_neutraal
 -------------------------------
 Symbolic Z-matrix:
 Charge =  0 Multiplicity = 1

 SCF Done:  E(RB3LYP) =  -842.222628380     A.U. after   15 cycles
 SCF Done:  E(RB3LYP) =  -842.228475806     A.U. after   12 cycles
 SCF Done:  E(RB3LYP) =  -842.228400710     A.U. after   12 cycles
 SCF Done:  E(RB3LYP) =  -842.227160482     A.U. after   13 cycles
 SCF Done:  E(RB3LYP) =  -842.225069946     A.U. after   12 cycles
 SCF Done:  E(RB3LYP) =  -842.228560336     A.U. after    9 cycles
 SCF Done:  E(RB3LYP) =  -842.229387281     A.U. after   12 cycles
 SCF Done:  E(RB3LYP) =  -842.229432433     A.U. after   12 cycles
 SCF Done:  E(RB3LYP) =  -842.229704925     A.U. after   11 cycles
 SCF Done:  E(RB3LYP) =  -842.230050553     A.U. after   12 cycles
 SCF Done:  E(RB3LYP) =  -842.231391828     A.U. after    9 cycles
 SCF Done:  E(RB3LYP) =  -842.231394250     A.U. after   10 cycles
 SCF Done:  E(RB3LYP) =  -842.231396595     A.U. after    9 cycles
 SCF Done:  E(RB3LYP) =  -842.231397456     A.U. after    9 cycles
 SCF Done:  E(RB3LYP) =  -842.231397877     A.U. after    7 cycles
 SCF Done:  E(RB3LYP) =  -842.231397949     A.U. after    7 cycles
 Optimization completed.
    -- Stationary point found.
 Normal termination of Gaussian 16 at Sat Dec 12 10:35:15 2020.

 --------------------------------------------------------------------
 #N Geom=AllCheck Guess=TCheck SCRF=Check GenChk RB3LYP/6-31G(d) Freq
 --------------------------------------------------------------------

 Structure from the checkpoint file:  "JID_9165.chk"
 -------------------------------
 CID_121731135_JID_9165_neutraal
 -------------------------------
 Charge =  0 Multiplicity = 1

 SCF Done:  E(RB3LYP) =  -842.231397949     A.U. after    1 cycles

  Exact polarizability: 173.616  -2.875 182.730   7.683  -7.096 145.469
 Approx polarizability: 219.030  -7.287 259.674  11.408 -17.405 253.745

                      1                      2                      3
                      A                      A                      A
 Frequencies --     31.1774                36.3236                50.7415
 Red. masses --      3.5532                 3.7539                 2.9778
 Frc consts  --      0.0020                 0.0029                 0.0045
 IR Inten    --      0.0133                 0.4200                 3.4121

                      4                      5                      6
                      A                      A                      A
 Frequencies --     63.4683                67.8484                82.8904
 Red. masses --      1.5368                 2.4477                 3.2041
 Frc consts  --      0.0036                 0.0066                 0.0130
 IR Inten    --      0.6820                 2.3533                 1.2766

                      7                      8                      9
                      A                      A                      A
 Frequencies --     93.8960               119.9310               141.5837
 Red. masses --      2.5237                 2.4487                 4.0995
 Frc consts  --      0.0131                 0.0208                 0.0484
 IR Inten    --      0.2942                 0.5251                 0.0676

                     10                     11                     12
                      A                      A                      A
 Frequencies --    148.3937               157.4647               187.1315
 Red. masses --      2.3443                 2.8997                 2.8006
 Frc consts  --      0.0304                 0.0424                 0.0578
 IR Inten    --      0.1647                 0.4171                 2.4277

                     13                     14                     15
                      A                      A                      A
 Frequencies --    215.3609               234.6367               250.8834
 Red. masses --      2.2999                 1.0957                 2.1553
 Frc consts  --      0.0628                 0.0355                 0.0799
 IR Inten    --      2.2290                 0.1596                 1.4121

                     16                     17                     18
                      A                      A                      A
 Frequencies --    262.9410               293.0358               310.8207
 Red. masses --      2.6798                 2.7974                 3.3818
 Frc consts  --      0.1092                 0.1415                 0.1925
 IR Inten    --      0.5281                 1.8773                 2.5488

                     19                     20                     21
                      A                      A                      A
 Frequencies --    318.5489               336.4610               357.7726
 Red. masses --      2.4597                 4.1742                 2.7340
 Frc consts  --      0.1471                 0.2784                 0.2062
 IR Inten    --      2.5678                 4.9781                 2.8073

                     22                     23                     24
                      A                      A                      A
 Frequencies --    374.1240               397.8289               427.6961
 Red. masses --      3.0373                 2.2805                 2.1491
 Frc consts  --      0.2505                 0.2127                 0.2316
 IR Inten    --      2.0543                 0.1611                 0.1043

                     25                     26                     27
                      A                      A                      A
 Frequencies --    438.1828               463.4524               517.6999
 Red. masses --      4.5549                 3.9367                 2.4130
 Frc consts  --      0.5153                 0.4982                 0.3810
 IR Inten    --     13.3559                 1.4180                 3.7983

                     28                     29                     30
                      A                      A                      A
 Frequencies --    545.6315               617.1687               653.0854
 Red. masses --      2.2767                 3.7952                 4.3736
 Frc consts  --      0.3994                 0.8517                 1.0991
 IR Inten    --      0.6451                 8.6123                 6.2770

                     31                     32                     33
                      A                      A                      A
 Frequencies --    656.7661               697.2284               712.8981
 Red. masses --      3.5206                 4.0610                 1.8360
 Frc consts  --      0.8947                 1.1631                 0.5498
 IR Inten    --      3.2612                 1.3399               107.0308

                     34                     35                     36
                      A                      A                      A
 Frequencies --    738.1856               743.4446               772.5710
 Red. masses --      2.7597                 4.8767                 1.6988
 Frc consts  --      0.8860                 1.5881                 0.5974
 IR Inten    --     20.2496                 7.3421                13.6555

                     37                     38                     39
                      A                      A                      A
 Frequencies --    787.8918               855.8242               859.1304
 Red. masses --      1.7261                 2.0730                 1.4763
 Frc consts  --      0.6313                 0.8946                 0.6420
 IR Inten    --      0.3252                16.9147                 2.5147

                     40                     41                     42
                      A                      A                      A
 Frequencies --    876.2717               885.2134               906.3435
 Red. masses --      1.8579                 2.3051                 2.4413
 Frc consts  --      0.8405                 1.0642                 1.1816
 IR Inten    --     16.1296                22.8825                 9.6738

                     43                     44                     45
                      A                      A                      A
 Frequencies --    931.4432               948.3118               991.6802
 Red. masses --      1.7981                 2.0651                 1.6399
 Frc consts  --      0.9191                 1.0942                 0.9502
 IR Inten    --      3.6004                 6.8451                12.3557

                     46                     47                     48
                      A                      A                      A
 Frequencies --    996.5628              1007.8315              1016.7135
 Red. masses --      1.5854                 2.9020                 2.3559
 Frc consts  --      0.9277                 1.7367                 1.4348
 IR Inten    --      2.5350                15.9846                17.6192

                     49                     50                     51
                      A                      A                      A
 Frequencies --   1050.3900              1055.0573              1067.6105
 Red. masses --      2.6948                 3.4753                 2.0598
 Frc consts  --      1.7518                 2.2793                 1.3833
 IR Inten    --      1.7480                 5.4889                 1.7848

                     52                     53                     54
                      A                      A                      A
 Frequencies --   1082.4757              1094.9744              1111.5113
 Red. masses --      1.5942                 2.7287                 2.0161
 Frc consts  --      1.1006                 1.9276                 1.4676
 IR Inten    --      5.6106                 5.6128                 1.8338

                     55                     56                     57
                      A                      A                      A
 Frequencies --   1143.9554              1154.2444              1156.6356
 Red. masses --      2.5114                 1.8846                 1.3919
 Frc consts  --      1.9364                 1.4793                 1.0971
 IR Inten    --     63.6501                 6.0918                12.8630

                     58                     59                     60
                      A                      A                      A
 Frequencies --   1165.6416              1182.0879              1194.0044
 Red. masses --      1.4356                 1.7257                 2.1128
 Frc consts  --      1.1492                 1.4208                 1.7747
 IR Inten    --     19.8978                 9.7299                12.8197

                     61                     62                     63
                      A                      A                      A
 Frequencies --   1200.6808              1216.8060              1228.4046
 Red. masses --      1.8136                 1.4970                 1.8481
 Frc consts  --      1.5404                 1.3059                 1.6431
 IR Inten    --      3.2399                 8.9483                36.6734

                     64                     65                     66
                      A                      A                      A
 Frequencies --   1230.1813              1282.4192              1289.8640
 Red. masses --      1.6350                 1.4532                 1.5143
 Frc consts  --      1.4578                 1.4081                 1.4844
 IR Inten    --      3.4233                33.4622                29.3613

                     67                     68                     69
                      A                      A                      A
 Frequencies --   1304.7432              1319.3869              1334.0894
 Red. masses --      1.3492                 1.3000                 1.2992
 Frc consts  --      1.3533                 1.3333                 1.3624
 IR Inten    --     26.8413                 3.9981                 0.4382

                     70                     71                     72
                      A                      A                      A
 Frequencies --   1348.3806              1351.9202              1360.7620
 Red. masses --      1.5913                 2.5660                 1.4950
 Frc consts  --      1.7046                 2.7632                 1.6310
 IR Inten    --      0.6047                 6.6637                 8.1532

                     73                     74                     75
                      A                      A                      A
 Frequencies --   1368.9829              1396.1480              1404.3053
 Red. masses --      1.3682                 1.6818                 1.8793
 Frc consts  --      1.5107                 1.9315                 2.1836
 IR Inten    --      5.0881                 3.8333                 6.9979

                     76                     77                     78
                      A                      A                      A
 Frequencies --   1409.4340              1413.6509              1424.5963
 Red. masses --      1.5195                 1.5927                 1.4839
 Frc consts  --      1.7784                 1.8753                 1.7743
 IR Inten    --     23.5095                 2.5322                 5.6215

                     79                     80                     81
                      A                      A                      A
 Frequencies --   1428.6519              1429.8104              1441.4434
 Red. masses --      1.6839                 2.5659                 1.2447
 Frc consts  --      2.0249                 3.0906                 1.5238
 IR Inten    --      9.8334                16.9511                 3.5877

                     82                     83                     84
                      A                      A                      A
 Frequencies --   1460.7075              1464.5204              1482.2226
 Red. masses --      2.6031                 2.0281                 1.1788
 Frc consts  --      3.2724                 2.5629                 1.5259
 IR Inten    --    128.8545                23.1955                 1.7865

                     85                     86                     87
                      A                      A                      A
 Frequencies --   1489.1618              1504.1070              1509.9521
 Red. masses --      1.7232                 1.0977                 1.1408
 Frc consts  --      2.2515                 1.4632                 1.5324
 IR Inten    --      9.4830                 5.0454                 7.6055

                     88                     89                     90
                      A                      A                      A
 Frequencies --   1510.8560              1516.0512              1519.5317
 Red. masses --      1.0927                 1.0836                 1.0920
 Frc consts  --      1.4697                 1.4673                 1.4855
 IR Inten    --     20.9477                13.0183                 1.7443

                     91                     92                     93
                      A                      A                      A
 Frequencies --   1521.3345              1528.4748              1531.4019
 Red. masses --      1.1126                 1.0443                 1.0621
 Frc consts  --      1.5172                 1.4375                 1.4676
 IR Inten    --     10.1723                 7.6623                 5.3503

                     94                     95                     96
                      A                      A                      A
 Frequencies --   1534.8969              1542.2850              1543.7203
 Red. masses --      1.0825                 1.0928                 1.1472
 Frc consts  --      1.5026                 1.5314                 1.6108
 IR Inten    --     16.0180                 5.3284                10.4890

                     97                     98                     99
                      A                      A                      A
 Frequencies --   1550.9771              1613.2606              1743.3887
 Red. masses --      1.0507                 4.9143                10.1774
 Frc consts  --      1.4892                 7.5357                18.2254
 IR Inten    --     12.0303                 7.2846               292.8583

                    100                    101                    102
                      A                      A                      A
 Frequencies --   2984.0436              2991.5592              3027.3852
 Red. masses --      1.0561                 1.0826                 1.0610
 Frc consts  --      5.5407                 5.7086                 5.7291
 IR Inten    --     76.3349                21.9354                21.7347

                    103                    104                    105
                      A                      A                      A
 Frequencies --   3031.1398              3032.4189              3041.1409
 Red. masses --      1.0697                 1.0653                 1.0654
 Frc consts  --      5.7905                 5.7716                 5.8056
 IR Inten    --     21.7704                12.8069                 8.1531

                    106                    107                    108
                      A                      A                      A
 Frequencies --   3041.5349              3054.1379              3064.5693
 Red. masses --      1.0428                 1.0754                 1.0377
 Frc consts  --      5.6839                 5.9102                 5.7418
 IR Inten    --     64.3030                40.9847                55.3757

                    109                    110                    111
                      A                      A                      A
 Frequencies --   3068.8691              3075.0568              3083.2600
 Red. masses --      1.1004                 1.0975                 1.0776
 Frc consts  --      6.1061                 6.1146                 6.0357
 IR Inten    --     53.6657                38.2320                40.8205

                    112                    113                    114
                      A                      A                      A
 Frequencies --   3086.2148              3100.6901              3107.5492
 Red. masses --      1.0839                 1.0962                 1.1004
 Frc consts  --      6.0828                 6.2097                 6.2607
 IR Inten    --     10.5811                 2.4861                48.6111

                    115                    116                    117
                      A                      A                      A
 Frequencies --   3110.3832              3114.4947              3125.6473
 Red. masses --      1.1021                 1.0925                 1.1037
 Frc consts  --      6.2820                 6.2435                 6.3528
 IR Inten    --     46.7780                22.8877                25.2681

                    118                    119                    120
                      A                      A                      A
 Frequencies --   3136.4780              3171.8398              3184.7198
 Red. masses --      1.0997                 1.1050                 1.0863
 Frc consts  --      6.3738                 6.5497                 6.4915
 IR Inten    --     15.3991                 6.3719                31.4503

                    121                    122                    123
                      A                      A                      A
 Frequencies --   3253.7808              3267.4935              3517.6080
 Red. masses --      1.0960                 1.0968                 1.0733
 Frc consts  --      6.8367                 6.8995                 7.8249
 IR Inten    --      2.5885                 0.7599                 1.6584

 - Thermochemistry -
 -------------------
 Temperature   298.150 Kelvin.  Pressure   1.00000 Atm.
 Atom     1 has atomic number  6 and mass  12.00000

 Molecular mass:   264.19501 amu.
 Principal axes and moments of inertia in atomic units:
                           1         2         3
     Eigenvalues --  4054.668745481.630258053.86586
           X            0.99915   0.03952   0.01165
           Y           -0.03952   0.99922   0.00007
           Z           -0.01164  -0.00053   0.99993
 This molecule is an asymmetric top.
 Rotational symmetry number  1.
 Warning -- assumption of classical behavior for rotation
           may cause significant error
 Rotational temperatures (Kelvin)      0.02136     0.01580     0.01075
 Rotational constants (GHZ):           0.44510     0.32923     0.22408
 Zero-point vibrational energy    1001648.8 (Joules/Mol)
                                  239.39982 (Kcal/Mol)
 Warning -- explicit consideration of  29 degrees of freedom as
           vibrations may cause significant error
 Vibrational temperatures:     44.86    52.26    73.01    91.32    97.62
          (Kelvin)            119.26   135.10   172.55   203.71   213.51
                              226.56   269.24   309.86   337.59   360.97
                              378.31   421.61   447.20   458.32   484.09
                              514.75   538.28   572.39   615.36   630.45
                              666.80   744.85   785.04   887.97   939.64
                              944.94  1003.16  1025.70  1062.08  1069.65
                             1111.56  1133.60  1231.34  1236.10  1260.76
                             1273.62  1304.03  1340.14  1364.41  1426.81
                             1433.83  1450.04  1462.82  1511.28  1517.99
                             1536.05  1557.44  1575.42  1599.22  1645.90
                             1660.70  1664.14  1677.10  1700.76  1717.91
                             1727.51  1750.71  1767.40  1769.96  1845.12
                             1855.83  1877.23  1898.30  1919.46  1940.02
                             1945.11  1957.83  1969.66  2008.75  2020.48
                             2027.86  2033.93  2049.68  2055.51  2057.18
                             2073.92  2101.63  2107.12  2132.59  2142.57
                             2164.07  2172.48  2173.78  2181.26  2186.27
                             2188.86  2199.13  2203.35  2208.37  2219.00
                             2221.07  2231.51  2321.12  2508.35  4293.37
                             4304.19  4355.73  4361.13  4362.97  4375.52
                             4376.09  4394.22  4409.23  4415.42  4424.32
                             4436.12  4440.37  4461.20  4471.07  4475.15
                             4481.06  4497.11  4512.69  4563.57  4582.10
                             4681.46  4701.19  5061.05

 Zero-point correction=                           0.381508 (Hartree/Particle)
 Thermal correction to Energy=                    0.401168
 Thermal correction to Enthalpy=                  0.402112
 Thermal correction to Gibbs Free Energy=         0.332565
 Sum of electronic and zero-point Energies=           -841.849890
 Sum of electronic and thermal Energies=              -841.830230
 Sum of electronic and thermal Enthalpies=            -841.829286
 Sum of electronic and thermal Free Energies=         -841.898833

                     E (Thermal)             CV                S
                      KCal/Mol        Cal/Mol-Kelvin    Cal/Mol-Kelvin
 Total                  251.737             73.591            146.374
 Electronic               0.000              0.000              0.000
 Translational            0.889              2.981             42.614
 Rotational               0.889              2.981             33.548
 Vibrational            249.959             67.629             70.212
 Vibration     1          0.594              1.983              5.753
 Vibration     2          0.594              1.982              5.450
 Vibration     3          0.595              1.977              4.788
 Vibration     4          0.597              1.972              4.346
 Vibration     5          0.598              1.970              4.215
 Vibration     6          0.600              1.961              3.821
 Vibration     7          0.603              1.954              3.577
 Vibration     8          0.609              1.933              3.101
 Vibration     9          0.615              1.912              2.782
 Vibration    10          0.618              1.904              2.693
 Vibration    11          0.621              1.894              2.580
 Vibration    12          0.632              1.857              2.256
 Vibration    13          0.645              1.818              1.998
 Vibration    14          0.654              1.788              1.843
 Vibration    15          0.663              1.761              1.724
 Vibration    16          0.670              1.741              1.642
 Vibration    17          0.688              1.687              1.456
 Vibration    18          0.700              1.653              1.358
 Vibration    19          0.705              1.638              1.318
 Vibration    20          0.717              1.603              1.229
 Vibration    21          0.733              1.559              1.132
 Vibration    22          0.745              1.525              1.063
 Vibration    23          0.764              1.475              0.971
 Vibration    24          0.789              1.410              0.866
 Vibration    25          0.798              1.387              0.832
 Vibration    26          0.821              1.331              0.756
 Vibration    27          0.873              1.211              0.615
 Vibration    28          0.901              1.149              0.553
 Vibration    29          0.977              0.996              0.421

 Optimization completed.
    -- Stationary point found.
 Normal termination of Gaussian 16 at Sat Dec 12 10:59:41 2020.

 ----------------------------------------------------------------------
 # B3LYP/6-311++G(d,p) empiricaldispersion=gd3bj scf=xqc pop=npa geom=c
 heck
 ----------------------------------------------------------------------

 ---------------------------------------
 CID_121731135_JID_9165_Energie_neutraal
 ---------------------------------------
 Structure from the checkpoint file:  "JID_9165.chk"
 Charge =  0 Multiplicity = 1

 SCF Done:  E(RB3LYP) =  -842.465026921     A.U. after   16 cycles
 Normal termination of Gaussian 16 at Sat Dec 12 11:10:21 2020.

 ----------------------------------------------------------------------
 # B3LYP/6-311++G(d,p) empiricaldispersion=gd3bj scf=xqc pop=npa geom=c
 heck
 ----------------------------------------------------------------------

 -------------------------------------
 CID_121731135_JID_9165_Energie_kation
 -------------------------------------
 Structure from the checkpoint file:  "JID_9165.chk"
 Charge =  1 Multiplicity = 2

 SCF Done:  E(UB3LYP) =  -842.176626849     A.U. after   28 cycles
 Normal termination of Gaussian 16 at Sat Dec 12 11:36:04 2020.
 Gaussian 16:  ES64L-G16RevA.03 25-Dec-2016

 ----------------------------------------------------------------------
 # B3LYP/6-311++G(d,p) empiricaldispersion=gd3bj scf=xqc pop=npa geom=c
 heck
 ----------------------------------------------------------------------

 ------------------------------------
 CID_121731135_JID_9165_Energie_anion
 ------------------------------------
 Structure from the checkpoint file:  "JID_9165.chk"
 Charge = -1 Multiplicity = 2

                         Standard orientation:
 ---------------------------------------------------------------------
 Center     Atomic      Atomic             Coordinates (Angstroms)
 Number     Number       Type             X           Y           Z
 ---------------------------------------------------------------------
      1          6           0        2.874893    2.845373   -0.195292
      2          6           0        2.720121    1.383268   -0.630263
      3          6           0        3.472568    0.447328    0.329011
      4          6           0        3.533590   -1.017178   -0.134666
      5          6           0        2.353010   -1.886049    0.293851
      6          7           0        1.027276   -1.379329   -0.095929
      7          6           0        0.912480   -0.408900   -1.179462
      8          6           0        1.232590    1.038451   -0.775582
      9          6           0       -0.027586   -1.940986    0.576858
     10          8           0        0.158892   -2.774641    1.460195
     11          6           0       -1.489339   -1.527556    0.260389
     12          6           0       -1.742256   -0.051078    0.469242
     13          6           0       -2.224996    0.891644   -0.422509
     14          7           0       -2.200266    2.095796    0.213473
     15          7           0       -1.744968    1.996164    1.481601
     16          6           0       -1.468168    0.700475    1.638763
     17          6           0       -2.686951    3.370106   -0.273255
     18          7           0       -1.940198   -2.097798   -1.011031
     19          6           0       -3.390357   -2.244686   -1.105796
     20          1           0        2.431296    3.003694    0.795584
     21          1           0        2.373915    3.524559   -0.895111
     22          1           0        3.930480    3.135452   -0.140865
     23          1           0        3.188662    1.271335   -1.621485
     24          1           0        4.496340    0.827757    0.437193
     25          1           0        3.017453    0.499915    1.328715
     26          1           0        4.421917   -1.498615    0.292458
     27          1           0        3.675893   -1.052401   -1.222880
     28          1           0        2.346084   -1.983072    1.382412
     29          1           0        2.479067   -2.903830   -0.100741
     30          1           0       -0.105931   -0.435842   -1.557578
     31          1           0        1.553228   -0.727971   -2.011040
     32          1           0        0.709735    1.255347    0.162370
     33          1           0        0.795896    1.702603   -1.534598
     34          1           0       -2.032123   -2.077331    1.034843
     35          1           0       -2.568498    0.803295   -1.443289
     36          1           0       -1.060887    0.344511    2.576379
     37          1           0       -3.714691    3.553984    0.058580
     38          1           0       -2.040393    4.159277    0.114070
     39          1           0       -2.653739    3.373623   -1.365287
     40          1           0       -1.596735   -1.555019   -1.798333
     41          1           0       -3.961752   -1.315191   -0.941872
     42          1           0       -3.644217   -2.638656   -2.095062
     43          1           0       -3.722624   -2.975392   -0.360551
 ---------------------------------------------------------------------

 SCF Done:  E(UB3LYP) =  -842.459218724     A.U. after   32 cycles

 The electronic state is 2-A.
 Alpha  occ. eigenvalues --  -18.98978 -14.29903 -14.24778 -14.23760 -14.21444
 Alpha  occ. eigenvalues --  -10.17266 -10.12337 -10.11610 -10.11270 -10.11116
 Alpha  occ. eigenvalues --  -10.11087 -10.09987 -10.09686 -10.08695 -10.08306
 Alpha  occ. eigenvalues --  -10.08094 -10.08003 -10.06851 -10.06850  -0.95930
 Alpha  occ. eigenvalues --   -0.94370  -0.84217  -0.82178  -0.75092  -0.72941
 Alpha  occ. eigenvalues --   -0.70438  -0.69095  -0.64810  -0.63593  -0.60363
 Alpha  occ. eigenvalues --   -0.59123  -0.55968  -0.55563  -0.52048  -0.50073
 Alpha  occ. eigenvalues --   -0.47803  -0.47635  -0.45353  -0.44098  -0.41808
 Alpha  occ. eigenvalues --   -0.39329  -0.38649  -0.38136  -0.37563  -0.36813
 Alpha  occ. eigenvalues --   -0.36128  -0.35747  -0.34881  -0.33543  -0.32761
 Alpha  occ. eigenvalues --   -0.32310  -0.32022  -0.31770  -0.30950  -0.30712
 Alpha  occ. eigenvalues --   -0.29976  -0.29857  -0.28629  -0.28223  -0.27912
 Alpha  occ. eigenvalues --   -0.27151  -0.25789  -0.25175  -0.23512  -0.23282
 Alpha  occ. eigenvalues --   -0.22544  -0.20807  -0.17108  -0.16512  -0.15534
 Alpha  occ. eigenvalues --   -0.14581  -0.13458   0.03789
 Alpha virt. eigenvalues --    0.05812   0.06674   0.07030   0.07585   0.07988
 Alpha virt. eigenvalues --    0.08613   0.09136   0.09417   0.09687   0.10265
 Alpha virt. eigenvalues --    0.10538   0.10885   0.11147   0.11322   0.11359

  Beta  occ. eigenvalues --  -18.98965 -14.29900 -14.24783 -14.23754 -14.21422
  Beta  occ. eigenvalues --  -10.17257 -10.12337 -10.11559 -10.11248 -10.11085
  Beta  occ. eigenvalues --  -10.11079 -10.09970 -10.09686 -10.08685 -10.08298
  Beta  occ. eigenvalues --  -10.08094 -10.07996 -10.06836 -10.06834  -0.95920
  Beta  occ. eigenvalues --   -0.94348  -0.84207  -0.82149  -0.75073  -0.72920
  Beta  occ. eigenvalues --   -0.70416  -0.69073  -0.64779  -0.63565  -0.60320
  Beta  occ. eigenvalues --   -0.59096  -0.55918  -0.55518  -0.52021  -0.50057
  Beta  occ. eigenvalues --   -0.47741  -0.47603  -0.45319  -0.44040  -0.41779
  Beta  occ. eigenvalues --   -0.39307  -0.38622  -0.38111  -0.37523  -0.36780
  Beta  occ. eigenvalues --   -0.36099  -0.35721  -0.34853  -0.33523  -0.32730
  Beta  occ. eigenvalues --   -0.32281  -0.31982  -0.31738  -0.30931  -0.30683
  Beta  occ. eigenvalues --   -0.29946  -0.29829  -0.28603  -0.28198  -0.27889
  Beta  occ. eigenvalues --   -0.27125  -0.25758  -0.25146  -0.23479  -0.23259
  Beta  occ. eigenvalues --   -0.22519  -0.20796  -0.17094  -0.16490  -0.15510
  Beta  occ. eigenvalues --   -0.14567  -0.13441
  Beta virt. eigenvalues --    0.05914   0.06661   0.07123   0.07513   0.07803
  Beta virt. eigenvalues --    0.08262   0.09025   0.09250   0.09525   0.10146
  Beta virt. eigenvalues --    0.10476   0.10679   0.11215   0.11270   0.11409

 Mulliken charges and spin densities:
               1          2
     1  C   -0.269607  -0.329511
     2  C    0.294528  -0.355271
     3  C   -0.211776  -0.030456
     4  C    0.082993  -0.487536
     5  C   -0.402436   0.123008
     6  N    0.053274   0.073802
     7  C    0.374330  -0.848856
     8  C   -0.582849   0.618331
     9  C   -0.488568  -0.212151
    10  O   -0.287447   0.006044
    11  C   -0.225918  -0.108626
    12  C    1.825557  -1.042122
    13  C   -0.844478   0.284168
    14  N    0.169865   0.091428
    15  N   -0.323241   0.195205
    16  C   -0.469531  -0.005463
    17  C    0.938806  -1.227114
    18  N   -0.067406   0.013399
    19  C    0.158667  -0.480680
    20  H    0.087701   0.061108
    21  H   -0.076286   0.217704
    22  H   -0.034862   0.179145
    23  H   -0.227462   0.399991
    24  H    0.063814   0.092519
    25  H    0.099045   0.040378
    26  H   -0.013177   0.186797
    27  H    0.157185  -0.011017
    28  H    0.215888  -0.021527
    29  H    0.135701   0.048550
    30  H   -0.026466   0.064824
    31  H   -0.273586   0.491089
    32  H    0.548407  -0.465893
    33  H    0.042636   0.169859
    34  H    0.218569   0.016858
    35  H   -1.136588   1.355189
    36  H    0.139322   0.016913
    37  H   -0.133636   0.309050
    38  H   -0.090646   0.254989
    39  H   -0.616031   0.793556
    40  H    0.131389   0.159147
    41  H    0.118492   0.022113
    42  H   -0.169130   0.322680
    43  H    0.114959   0.018379
 Sum of Mulliken charges =  -1.00000   1.00000

 Dipole moment (field-independent basis, Debye):
    X=              3.1755    Y=             -2.9821    Z=              4.8290  Tot=              6.5035
 Quadrupole moment (field-independent basis, Debye-Ang):
   XX=           -170.2907   YY=           -181.1268   ZZ=           -168.4612
   XY=              6.8485   XZ=             -7.9924   YZ=             12.0150

 Summary of Natural Population Analysis:

                                       Natural Population
                Natural  -----------------------------------------------
    Atom  No    Charge         Core      Valence    Rydberg      Total
 -----------------------------------------------------------------------
      C    1   -0.28204      0.99965     2.27623    0.00616     3.28204
      C    2   -0.10801      0.99959     2.09920    0.00922     3.10801
      C    3   -0.19079      0.99961     2.18195    0.00924     3.19079
      C    4   -0.19796      0.99962     2.19065    0.00769     3.19796
      C    5   -0.08289      0.99960     2.07197    0.01131     3.08289
      N    6   -0.25529      0.99962     2.74663    0.00904     3.75529
      C    7   -0.08299      0.99959     2.07150    0.01190     3.08299
      C    8   -0.19929      0.99959     2.18866    0.01104     3.19929
      C    9    0.35713      0.99962     1.62040    0.02285     2.64287
      O   10   -0.32946      0.99988     3.32452    0.00506     4.32946
      C   11   -0.05250      0.99951     2.03883    0.01416     3.05250
      C   12   -0.08346      0.99950     2.07323    0.01073     3.08346
      C   13   -0.00763      0.99948     1.99421    0.01394     3.00763
      N   14   -0.10427      0.99967     2.59128    0.01332     3.60427
      N   15   -0.15154      0.99973     2.64069    0.01111     3.65154
      C   16   -0.01328      0.99957     2.00090    0.01281     3.01328
      C   17   -0.17128      0.99963     2.16323    0.00842     3.17128
      N   18   -0.33366      0.99974     2.82273    0.01120     3.83366
      C   19   -0.17831      0.99965     2.17052    0.00814     3.17831
      H   20    0.09743      0.00000     0.40166    0.00091     0.40257
      H   21    0.10264      0.00000     0.39652    0.00083     0.39736
      H   22    0.09562      0.00000     0.40360    0.00078     0.40438
      H   23    0.09118      0.00000     0.40694    0.00188     0.40882
      H   24    0.09790      0.00000     0.40120    0.00089     0.40210
      H   25    0.09574      0.00000     0.40311    0.00115     0.40426
      H   26    0.10191      0.00000     0.39737    0.00072     0.39809
      H   27    0.09651      0.00000     0.40216    0.00133     0.40349
      H   28    0.10527      0.00000     0.39362    0.00112     0.39473
      H   29    0.09581      0.00000     0.40326    0.00093     0.40419
      H   30    0.10138      0.00000     0.39622    0.00240     0.39862
      H   31    0.09649      0.00000     0.40209    0.00141     0.40351
      H   32    0.10338      0.00000     0.39382    0.00280     0.39662
      H   33    0.10501      0.00000     0.39305    0.00194     0.39499
      H   34    0.11282      0.00000     0.38559    0.00158     0.38718
      H   35    0.11329      0.00000     0.38283    0.00388     0.38671
      H   36    0.09998      0.00000     0.39918    0.00084     0.40002
      H   37    0.09629      0.00000     0.40258    0.00113     0.40371
      H   38    0.10582      0.00000     0.39279    0.00138     0.39418
      H   39    0.10798      0.00000     0.38864    0.00339     0.39202
      H   40    0.17523      0.00000     0.32120    0.00357     0.32477
      H   41    0.08342      0.00000     0.41532    0.00126     0.41658
      H   42    0.09669      0.00000     0.40256    0.00075     0.40331
      H   43    0.08973      0.00000     0.40936    0.00091     0.41027
 =======================================================================
   * Total *   -0.00000     18.99286    52.76202    0.24512    72.00000

 Normal termination of Gaussian 16 at Sat Dec 12 12:04:07 2020.
