 Gaussian 16, Revision A.03,

 -----------------------------------------------------------
 # opt freq B3LYP/6-31G(d) empiricaldispersion=gd3bj scf=xqc
 -----------------------------------------------------------

 -------------------------------
 CID_114898243_JID_4737_neutraal
 -------------------------------
 Symbolic Z-matrix:
 Charge =  0 Multiplicity = 1

 SCF Done:  E(RB3LYP) =  -708.895746248     A.U. after   14 cycles
 SCF Done:  E(RB3LYP) =  -708.897881490     A.U. after   13 cycles
 SCF Done:  E(RB3LYP) =  -708.899126365     A.U. after   13 cycles
 SCF Done:  E(RB3LYP) =  -708.898548015     A.U. after   13 cycles
 SCF Done:  E(RB3LYP) =  -708.901566069     A.U. after   12 cycles
 SCF Done:  E(RB3LYP) =  -708.902122656     A.U. after   12 cycles
 SCF Done:  E(RB3LYP) =  -708.902162526     A.U. after   11 cycles
 SCF Done:  E(RB3LYP) =  -708.902278368     A.U. after   11 cycles
 SCF Done:  E(RB3LYP) =  -708.902276736     A.U. after   11 cycles
 SCF Done:  E(RB3LYP) =  -708.902328189     A.U. after   11 cycles
 SCF Done:  E(RB3LYP) =  -708.902377587     A.U. after    8 cycles
 SCF Done:  E(RB3LYP) =  -708.902377715     A.U. after    7 cycles
 SCF Done:  E(RB3LYP) =  -708.902377802     A.U. after    7 cycles
 SCF Done:  E(RB3LYP) =  -708.902377855     A.U. after    7 cycles
 SCF Done:  E(RB3LYP) =  -708.902377906     A.U. after    7 cycles
 Optimization completed.
    -- Stationary point found.
 Normal termination of Gaussian 16 at Thu Dec 10 10:36:51 2020.

 --------------------------------------------------------------------
 #N Geom=AllCheck Guess=TCheck SCRF=Check GenChk RB3LYP/6-31G(d) Freq
 --------------------------------------------------------------------

 Structure from the checkpoint file:  "JID_4737.chk"
 -------------------------------
 CID_114898243_JID_4737_neutraal
 -------------------------------
 Charge =  0 Multiplicity = 1

 SCF Done:  E(RB3LYP) =  -708.902377906     A.U. after    1 cycles

  Exact polarizability: 126.633  -1.242 110.203   8.367   0.318  98.385
 Approx polarizability: 165.108  -3.944 158.361  15.223   1.293 146.143

                      1                      2                      3
                      A                      A                      A
 Frequencies --     27.8115                38.5218                49.5149
 Red. masses --      5.0529                 5.3989                 4.5494
 Frc consts  --      0.0023                 0.0047                 0.0066
 IR Inten    --      0.4744                 0.4604                 1.3903

                      4                      5                      6
                      A                      A                      A
 Frequencies --     50.4104                72.4693                90.2298
 Red. masses --      3.3849                 4.2713                 4.4145
 Frc consts  --      0.0051                 0.0132                 0.0212
 IR Inten    --      1.8888                 0.4422                 1.4004

                      7                      8                      9
                      A                      A                      A
 Frequencies --    140.8668               158.0768               185.2183
 Red. masses --      4.4258                 1.7330                 4.3103
 Frc consts  --      0.0517                 0.0255                 0.0871
 IR Inten    --      0.3103                 1.9526                 1.2903

                     10                     11                     12
                      A                      A                      A
 Frequencies --    227.4806               248.9301               250.7170
 Red. masses --      2.9279                 1.4886                 2.7014
 Frc consts  --      0.0893                 0.0543                 0.1000
 IR Inten    --      0.1770                 0.5042                 4.0153

                     13                     14                     15
                      A                      A                      A
 Frequencies --    253.0277               265.7541               293.5890
 Red. masses --      1.1643                 1.2165                 2.2669
 Frc consts  --      0.0439                 0.0506                 0.1151
 IR Inten    --      0.1653                 0.6684                 2.5070

                     16                     17                     18
                      A                      A                      A
 Frequencies --    319.1922               372.4579               419.5453
 Red. masses --      2.5033                 4.0175                 3.6739
 Frc consts  --      0.1503                 0.3284                 0.3810
 IR Inten    --      4.8463                 1.6034                 1.8265

                     19                     20                     21
                      A                      A                      A
 Frequencies --    427.4121               449.5543               475.1317
 Red. masses --      3.1033                 3.6303                 2.7965
 Frc consts  --      0.3340                 0.4323                 0.3720
 IR Inten    --      2.6263                 9.8889                11.0549

                     22                     23                     24
                      A                      A                      A
 Frequencies --    517.1226               571.7754               610.6511
 Red. masses --      4.6108                 1.7452                 1.5093
 Frc consts  --      0.7265                 0.3362                 0.3316
 IR Inten    --      2.0243                12.7331               150.1121

                     25                     26                     27
                      A                      A                      A
 Frequencies --    622.8884               669.1873               732.6102
 Red. masses --      2.0893                 2.7859                 3.6575
 Frc consts  --      0.4776                 0.7350                 1.1566
 IR Inten    --     43.0825                48.7149                 5.9216

                     28                     29                     30
                      A                      A                      A
 Frequencies --    758.2101               809.9714               813.6120
 Red. masses --      4.4652                 2.6303                 1.1629
 Frc consts  --      1.5124                 1.0167                 0.4536
 IR Inten    --     46.2682                 3.5861                 2.0845

                     31                     32                     33
                      A                      A                      A
 Frequencies --    856.5102               883.2867               903.4963
 Red. masses --      2.5683                 2.1991                 2.0784
 Frc consts  --      1.1101                 1.0109                 0.9996
 IR Inten    --     15.3570                 7.1504                 2.0597

                     34                     35                     36
                      A                      A                      A
 Frequencies --    950.1410               982.9537              1002.1428
 Red. masses --      1.6518                 1.6855                 2.7600
 Frc consts  --      0.8786                 0.9595                 1.6331
 IR Inten    --      1.0660                29.6633                16.0191

                     37                     38                     39
                      A                      A                      A
 Frequencies --   1045.6263              1094.5148              1103.9874
 Red. masses --      2.1879                 2.5244                 2.2679
 Frc consts  --      1.4094                 1.7818                 1.6285
 IR Inten    --      7.2806                42.1914                 5.0832

                     40                     41                     42
                      A                      A                      A
 Frequencies --   1115.2622              1127.9044              1146.1220
 Red. masses --      2.1198                 1.9565                 2.3872
 Frc consts  --      1.5534                 1.4665                 1.8475
 IR Inten    --     36.8101                56.8569                71.2876

                     43                     44                     45
                      A                      A                      A
 Frequencies --   1167.9164              1177.4549              1209.7338
 Red. masses --      2.6038                 2.2008                 2.5074
 Frc consts  --      2.0926                 1.7977                 2.1620
 IR Inten    --     97.1072               155.1659                 7.8173

                     46                     47                     48
                      A                      A                      A
 Frequencies --   1218.1462              1300.2952              1314.7820
 Red. masses --      1.9260                 1.2268                 1.4035
 Frc consts  --      1.6838                 1.2222                 1.4294
 IR Inten    --     45.5166                 9.9695                 4.0209

                     49                     50                     51
                      A                      A                      A
 Frequencies --   1327.2678              1338.9147              1351.4813
 Red. masses --      1.3250                 1.2638                 1.1278
 Frc consts  --      1.3752                 1.3349                 1.2136
 IR Inten    --      7.0991                20.4478                 2.0020

                     52                     53                     54
                      A                      A                      A
 Frequencies --   1368.1291              1400.6695              1403.1796
 Red. masses --      1.2496                 3.4617                 1.7817
 Frc consts  --      1.3780                 4.0013                 2.0668
 IR Inten    --      3.9263               191.5659                14.6754

                     55                     56                     57
                      A                      A                      A
 Frequencies --   1411.9629              1428.0102              1440.8852
 Red. masses --      1.2965                 1.2651                 1.2651
 Frc consts  --      1.5229                 1.5200                 1.5475
 IR Inten    --     20.9921                 7.2430                14.5761

                     58                     59                     60
                      A                      A                      A
 Frequencies --   1444.6367              1454.1868              1502.4899
 Red. masses --      1.2893                 1.2803                 1.4795
 Frc consts  --      1.5853                 1.5951                 1.9678
 IR Inten    --     26.3536                 7.6012                33.2381

                     61                     62                     63
                      A                      A                      A
 Frequencies --   1514.4171              1523.3182              1526.4555
 Red. masses --      1.0539                 1.0795                 1.1309
 Frc consts  --      1.4241                 1.4759                 1.5526
 IR Inten    --      3.6473                 6.0192                 5.0114

                     64                     65                     66
                      A                      A                      A
 Frequencies --   1532.0642              1533.9780              1538.5458
 Red. masses --      1.0482                 1.0555                 1.0649
 Frc consts  --      1.4495                 1.4633                 1.4852
 IR Inten    --      2.2393                12.8612                 6.5144

                     67                     68                     69
                      A                      A                      A
 Frequencies --   1547.5851              1551.0181              1781.3866
 Red. masses --      1.0835                 1.0621                 7.7149
 Frc consts  --      1.5289                 1.5055                14.4243
 IR Inten    --      0.3802                10.8605               421.9826

                     70                     71                     72
                      A                      A                      A
 Frequencies --   1829.4933              3016.1793              3021.3319
 Red. masses --      9.6958                 1.0688                 1.0706
 Frc consts  --     19.1203                 5.7286                 5.7582
 IR Inten    --    272.9557                74.5793                10.0411

                     73                     74                     75
                      A                      A                      A
 Frequencies --   3047.0374              3057.9606              3073.2603
 Red. masses --      1.0421                 1.0360                 1.0356
 Frc consts  --      5.7004                 5.7079                 5.7627
 IR Inten    --     24.1798                21.1343                14.5998

                     76                     77                     78
                      A                      A                      A
 Frequencies --   3093.6591              3098.4498              3114.0076
 Red. masses --      1.0836                 1.0946                 1.0949
 Frc consts  --      6.1106                 6.1915                 6.2557
 IR Inten    --      2.6713                14.9295                27.8664

                     79                     80                     81
                      A                      A                      A
 Frequencies --   3123.7366              3126.2356              3135.2785
 Red. masses --      1.0968                 1.0985                 1.1038
 Frc consts  --      6.3058                 6.3257                 6.3926
 IR Inten    --     48.9207                13.6626                39.2453

                     82                     83                     84
                      A                      A                      A
 Frequencies --   3143.6123              3151.4480              3160.8748
 Red. masses --      1.1027                 1.1023                 1.1023
 Frc consts  --      6.4202                 6.4501                 6.4885
 IR Inten    --     12.6811                17.1382                 4.3780

                     85                     86                     87
                      A                      A                      A
 Frequencies --   3178.0152              3572.2384              3683.7291
 Red. masses --      1.0850                 1.0750                 1.0640
 Frc consts  --      6.4562                 8.0825                 8.5072
 IR Inten    --      7.5279                14.5864                51.4473

 - Thermochemistry -
 -------------------
 Temperature   298.150 Kelvin.  Pressure   1.00000 Atm.
 Atom     1 has atomic number  6 and mass  12.00000

 Molecular mass:   203.11576 amu.
 Principal axes and moments of inertia in atomic units:
                           1         2         3
     Eigenvalues --  1926.435284337.218194834.99911
           X            0.99981   0.00623   0.01824
           Y           -0.00725   0.99838   0.05640
           Z           -0.01786  -0.05652   0.99824
 This molecule is an asymmetric top.
 Rotational symmetry number  1.
 Warning -- assumption of classical behavior for rotation
           may cause significant error
 Rotational temperatures (Kelvin)      0.04496     0.01997     0.01791
 Rotational constants (GHZ):           0.93683     0.41611     0.37327
 Zero-point vibrational energy     700230.2 (Joules/Mol)
                                  167.35903 (Kcal/Mol)
 Warning -- explicit consideration of  24 degrees of freedom as
           vibrations may cause significant error
 Vibrational temperatures:     40.01    55.42    71.24    72.53   104.27
          (Kelvin)            129.82   202.68   227.44   266.49   327.29
                              358.15   360.73   364.05   382.36   422.41
                              459.25   535.88   603.63   614.95   646.81
                              683.61   744.02   822.66   878.59   896.20
                              962.81  1054.06  1090.90  1165.37  1170.61
                             1232.33  1270.85  1299.93  1367.04  1414.25
                             1441.86  1504.42  1574.76  1588.39  1604.61
                             1622.80  1649.01  1680.37  1694.09  1740.54
                             1752.64  1870.83  1891.68  1909.64  1926.40
                             1944.48  1968.43  2015.25  2018.86  2031.50
                             2054.59  2073.11  2078.51  2092.25  2161.75
                             2178.91  2191.72  2196.23  2204.30  2207.05
                             2213.62  2226.63  2231.57  2563.02  2632.23
                             4339.61  4347.02  4384.01  4399.72  4421.74
                             4451.09  4457.98  4480.36  4494.36  4497.96
                             4510.97  4522.96  4534.23  4547.79  4572.46
                             5139.65  5300.06

 Zero-point correction=                           0.266704 (Hartree/Particle)
 Thermal correction to Energy=                    0.282862
 Thermal correction to Enthalpy=                  0.283806
 Thermal correction to Gibbs Free Energy=         0.221604
 Sum of electronic and zero-point Energies=           -708.635674
 Sum of electronic and thermal Energies=              -708.619516
 Sum of electronic and thermal Enthalpies=            -708.618572
 Sum of electronic and thermal Free Energies=         -708.680774

                     E (Thermal)             CV                S
                      KCal/Mol        Cal/Mol-Kelvin    Cal/Mol-Kelvin
 Total                  177.499             58.006            130.915
 Electronic               0.000              0.000              0.000
 Translational            0.889              2.981             41.830
 Rotational               0.889              2.981             32.069
 Vibrational            175.721             52.044             57.016
 Vibration     1          0.593              1.984              5.980
 Vibration     2          0.594              1.981              5.334
 Vibration     3          0.595              1.978              4.837
 Vibration     4          0.595              1.977              4.801
 Vibration     5          0.599              1.967              4.085
 Vibration     6          0.602              1.956              3.655
 Vibration     7          0.615              1.912              2.792
 Vibration     8          0.621              1.894              2.573
 Vibration     9          0.631              1.860              2.275
 Vibration    10          0.651              1.799              1.899
 Vibration    11          0.662              1.765              1.738
 Vibration    12          0.663              1.762              1.726
 Vibration    13          0.664              1.758              1.709
 Vibration    14          0.672              1.736              1.624
 Vibration    15          0.688              1.686              1.453
 Vibration    16          0.705              1.637              1.314
 Vibration    17          0.744              1.529              1.070
 Vibration    18          0.782              1.428              0.894
 Vibration    19          0.789              1.411              0.867
 Vibration    20          0.808              1.362              0.797
 Vibration    21          0.832              1.305              0.723
 Vibration    22          0.872              1.212              0.617
 Vibration    23          0.928              1.092              0.501
 Vibration    24          0.970              1.009              0.432

                           ! Non-Optimized Parameters !
 Normal termination of Gaussian 16 at Thu Dec 10 10:47:00 2020.

 ----------------------------------------------------------------------
 # B3LYP/6-311++G(d,p) empiricaldispersion=gd3bj scf=xqc pop=npa geom=c
 heck
 ----------------------------------------------------------------------

 ---------------------------------------
 CID_114898243_JID_4737_Energie_neutraal
 ---------------------------------------
 Structure from the checkpoint file:  "JID_4737.chk"
 Charge =  0 Multiplicity = 1

 SCF Done:  E(RB3LYP) =  -709.125379061     A.U. after   14 cycles
 Normal termination of Gaussian 16 at Thu Dec 10 10:51:30 2020.

 ----------------------------------------------------------------------
 # B3LYP/6-311++G(d,p) empiricaldispersion=gd3bj scf=xqc pop=npa geom=c
 heck
 ----------------------------------------------------------------------

 -------------------------------------
 CID_114898243_JID_4737_Energie_kation
 -------------------------------------
 Structure from the checkpoint file:  "JID_4737.chk"
 Charge =  1 Multiplicity = 2

 SCF Done:  E(UB3LYP) =  -708.805193114     A.U. after   26 cycles
 Normal termination of Gaussian 16 at Thu Dec 10 11:05:03 2020.
 Gaussian 16:  ES64L-G16RevA.03 25-Dec-2016

 ----------------------------------------------------------------------
 # B3LYP/6-311++G(d,p) empiricaldispersion=gd3bj scf=xqc pop=npa geom=c
 heck
 ----------------------------------------------------------------------

 ------------------------------------
 CID_114898243_JID_4737_Energie_anion
 ------------------------------------
 Structure from the checkpoint file:  "JID_4737.chk"
 Charge = -1 Multiplicity = 2

                         Standard orientation:
 ---------------------------------------------------------------------
 Center     Atomic      Atomic             Coordinates (Angstroms)
 Number     Number       Type             X           Y           Z
 ---------------------------------------------------------------------
      1          6           0        4.334931   -0.543551    0.158158
      2          6           0        2.970644   -1.177231   -0.099435
      3          8           0        2.202588   -0.506474   -1.094317
      4          6           0        1.741709    0.796359   -0.762782
      5          6           0        0.672711    0.802546    0.363020
      6          6           0        1.208740    1.278405    1.715505
      7          7           0       -0.480967    1.619272   -0.003964
      8          6           0       -1.754008    1.258655   -0.341670
      9          8           0       -2.627404    2.105323   -0.493277
     10          6           0       -2.085724   -0.217222   -0.609332
     11          6           0       -1.274454   -0.850795   -1.762950
     12          6           0       -2.063688   -1.075052    0.642046
     13          8           0       -1.590553   -0.786514    1.721308
     14          8           0       -2.673436   -2.264301    0.419861
     15          1           0        4.888168   -0.437964   -0.780601
     16          1           0        4.917652   -1.177534    0.835883
     17          1           0        4.252278    0.445303    0.621076
     18          1           0        3.099037   -2.190990   -0.491034
     19          1           0        2.403135   -1.263459    0.839466
     20          1           0        2.581165    1.459302   -0.505264
     21          1           0        1.290088    1.174132   -1.682810
     22          1           0        0.324536   -0.220956    0.482277
     23          1           0        1.510617    2.332835    1.666862
     24          1           0        0.436094    1.168370    2.480693
     25          1           0        2.087041    0.698677    2.016916
     26          1           0       -0.400391    2.618990    0.146385
     27          1           0       -3.132796   -0.183665   -0.925856
     28          1           0       -0.218008   -0.987661   -1.521328
     29          1           0       -1.698615   -1.825999   -2.016084
     30          1           0       -1.341990   -0.207518   -2.645566
     31          1           0       -2.625975   -2.753713    1.262772
 ---------------------------------------------------------------------

 SCF Done:  E(UB3LYP) =  -709.115125013     A.U. after   33 cycles
 SCF Done:  E(UB3LYP) =  -709.115125013     a.u. after    1 cycles

 The electronic state is 2-A.
 Alpha  occ. eigenvalues --  -19.07727 -19.03572 -19.02733 -18.99846 -14.24689
 Alpha  occ. eigenvalues --  -10.22027 -10.18699 -10.12689 -10.12522 -10.12475
 Alpha  occ. eigenvalues --  -10.11229 -10.08401 -10.07463 -10.06880  -1.02089
 Alpha  occ. eigenvalues --   -0.95125  -0.94569  -0.93145  -0.83718  -0.71649
 Alpha  occ. eigenvalues --   -0.68855  -0.66273  -0.59932  -0.58757  -0.54895
 Alpha  occ. eigenvalues --   -0.54147  -0.49893  -0.48620  -0.42622  -0.41534
 Alpha  occ. eigenvalues --   -0.40854  -0.40207  -0.38135  -0.37516  -0.36428
 Alpha  occ. eigenvalues --   -0.36340  -0.33917  -0.33278  -0.33050  -0.32315
 Alpha  occ. eigenvalues --   -0.31215  -0.30712  -0.29960  -0.29223  -0.28555
 Alpha  occ. eigenvalues --   -0.28024  -0.27797  -0.26623  -0.26102  -0.23557
 Alpha  occ. eigenvalues --   -0.21786  -0.19722  -0.18567  -0.17011  -0.15662
 Alpha  occ. eigenvalues --    0.04096
 Alpha virt. eigenvalues --    0.05694   0.06902   0.07178   0.08219   0.08641
 Alpha virt. eigenvalues --    0.09270   0.09416   0.10033   0.10309   0.10635
 Alpha virt. eigenvalues --    0.11405   0.12029   0.12632   0.12975   0.13142

  Beta  occ. eigenvalues --  -19.07663 -19.03569 -19.02704 -18.99838 -14.24678
  Beta  occ. eigenvalues --  -10.22006 -10.18693 -10.12674 -10.12518 -10.12455
  Beta  occ. eigenvalues --  -10.11219 -10.08379 -10.07433 -10.06837  -1.01998
  Beta  occ. eigenvalues --   -0.95108  -0.94556  -0.93065  -0.83700  -0.71606
  Beta  occ. eigenvalues --   -0.68828  -0.66231  -0.59880  -0.58691  -0.54817
  Beta  occ. eigenvalues --   -0.54075  -0.49830  -0.48569  -0.42572  -0.41497
  Beta  occ. eigenvalues --   -0.40822  -0.40164  -0.38109  -0.37438  -0.36399
  Beta  occ. eigenvalues --   -0.36298  -0.33883  -0.33252  -0.32998  -0.32263
  Beta  occ. eigenvalues --   -0.31181  -0.30679  -0.29923  -0.29182  -0.28515
  Beta  occ. eigenvalues --   -0.27980  -0.27764  -0.26586  -0.26069  -0.23462
  Beta  occ. eigenvalues --   -0.21760  -0.19662  -0.18537  -0.16997  -0.15638
  Beta virt. eigenvalues --    0.06347   0.06908   0.07548   0.07785   0.08580
  Beta virt. eigenvalues --    0.09185   0.09541   0.09642   0.10314   0.10612
  Beta virt. eigenvalues --    0.10862   0.11698   0.12374   0.12771   0.13221

 Mulliken charges and spin densities:
               1          2
     1  C    1.209830  -1.684455
     2  C   -0.517799   0.342768
     3  O   -0.063388   0.039709
     4  C    0.454835  -0.964222
     5  C   -0.957143   0.765174
     6  C    0.725129  -1.257662
     7  N   -0.146405   0.117349
     8  C    0.018380  -0.173489
     9  O   -0.337016   0.009942
    10  C    0.428002  -0.301089
    11  C   -0.227868  -0.247084
    12  C    0.147109  -0.288793
    13  O   -0.236306   0.014872
    14  O   -0.150585   0.036063
    15  H   -0.048893   0.206088
    16  H   -0.439960   0.589724
    17  H   -0.426282   0.563332
    18  H   -0.351088   0.518896
    19  H    0.230086  -0.090755
    20  H   -0.028687   0.185481
    21  H    0.091922   0.113255
    22  H   -0.138701   0.360473
    23  H   -0.195126   0.338356
    24  H    0.072556   0.119206
    25  H   -0.107371   0.259605
    26  H    0.274498   0.029902
    27  H    0.132586   0.154739
    28  H    0.102611   0.090990
    29  H   -0.061311   0.244021
    30  H    0.084394   0.056535
    31  H   -0.538011   0.851069
 Sum of Mulliken charges =  -1.00000   1.00000

 Dipole moment (field-independent basis, Debye):
    X=             -0.9845    Y=              3.0313    Z=             -2.7953  Tot=              4.2393
 Quadrupole moment (field-independent basis, Debye-Ang):
   XX=           -168.3011   YY=           -136.6711   ZZ=           -119.2475
   XY=             -0.4217   XZ=             -0.7666   YZ=              4.3210

 Summary of Natural Population Analysis:

                                       Natural Population
                Natural  -----------------------------------------------
    Atom  No    Charge         Core      Valence    Rydberg      Total
 -----------------------------------------------------------------------
      C    1   -0.30256      0.99967     2.29814    0.00476     3.30256
      C    2   -0.01196      0.99959     1.99962    0.01275     3.01196
      O    3   -0.30156      0.99989     3.29220    0.00947     4.30156
      C    4   -0.01208      0.99954     1.99980    0.01274     3.01208
      C    5   -0.03819      0.99959     2.02696    0.01164     3.03819
      C    6   -0.28664      0.99964     2.28102    0.00598     3.28664
      N    7   -0.31396      0.99965     2.80423    0.01008     3.81396
      C    8    0.35330      0.99965     1.62399    0.02307     2.64670
      O    9   -0.32456      0.99988     3.31901    0.00567     4.32456
      C   10   -0.19700      0.99951     2.18596    0.01153     3.19700
      C   11   -0.28422      0.99964     2.27959    0.00499     3.28422
      C   12    0.41307      0.99969     1.56172    0.02552     2.58693
      O   13   -0.30539      0.99987     3.29933    0.00619     4.30539
      O   14   -0.34360      0.99988     3.33644    0.00729     4.34360
      H   15    0.10009      0.00000     0.39871    0.00120     0.39991
      H   16    0.10494      0.00000     0.39342    0.00165     0.39506
      H   17    0.09820      0.00000     0.40031    0.00149     0.40180
      H   18    0.09062      0.00000     0.40800    0.00138     0.40938
      H   19    0.07829      0.00000     0.42001    0.00169     0.42171
      H   20    0.08270      0.00000     0.41591    0.00139     0.41730
      H   21    0.09485      0.00000     0.40384    0.00131     0.40515
      H   22    0.10982      0.00000     0.38669    0.00349     0.39018
      H   23    0.09586      0.00000     0.40296    0.00118     0.40414
      H   24    0.11032      0.00000     0.38868    0.00100     0.38968
      H   25    0.10365      0.00000     0.39518    0.00117     0.39635
      H   26    0.19236      0.00000     0.30534    0.00230     0.30764
      H   27    0.12650      0.00000     0.37214    0.00136     0.37350
      H   28    0.10948      0.00000     0.38840    0.00212     0.39052
      H   29    0.10867      0.00000     0.39020    0.00113     0.39133
      H   30    0.10160      0.00000     0.39742    0.00098     0.39840
      H   31    0.24740      0.00000     0.22870    0.02390     0.25260
 =======================================================================
   * Total *   -0.00000     13.99566    40.80392    0.20042    55.00000

 Normal termination of Gaussian 16 at Thu Dec 10 11:19:25 2020.
