 Gaussian 16, Revision A.03,

 -----------------------------------------------------------
 # opt freq B3LYP/6-31G(d) empiricaldispersion=gd3bj scf=xqc
 -----------------------------------------------------------

 --------------------------------
 CID_107264599_JID_10399_neutraal
 --------------------------------
 Symbolic Z-matrix:
 Charge =  0 Multiplicity = 1

 SCF Done:  E(RB3LYP) =  -1348.41203792     A.U. after   15 cycles
 SCF Done:  E(RB3LYP) =  -1348.33378799     A.U. after   15 cycles
 SCF Done:  E(RB3LYP) =  -1348.41952023     A.U. after   14 cycles
 SCF Done:  E(RB3LYP) =  -1348.42287045     A.U. after   13 cycles
 SCF Done:  E(RB3LYP) =  -1348.42366446     A.U. after   14 cycles
 SCF Done:  E(RB3LYP) =  -1348.42404440     A.U. after   13 cycles
 SCF Done:  E(RB3LYP) =  -1348.42346408     A.U. after   13 cycles
 SCF Done:  E(RB3LYP) =  -1348.42530868     A.U. after   12 cycles
 SCF Done:  E(RB3LYP) =  -1348.42547804     A.U. after   11 cycles
 SCF Done:  E(RB3LYP) =  -1348.42558247     A.U. after   12 cycles
 SCF Done:  E(RB3LYP) =  -1348.42567465     A.U. after    8 cycles
 SCF Done:  E(RB3LYP) =  -1348.42567467     A.U. after    7 cycles
 SCF Done:  E(RB3LYP) =  -1348.42567464     A.U. after    8 cycles
 SCF Done:  E(RB3LYP) =  -1348.42567458     A.U. after    8 cycles
 SCF Done:  E(RB3LYP) =  -1348.42567452     A.U. after    8 cycles
 Optimization completed.
    -- Stationary point found.
 Normal termination of Gaussian 16 at Sat Dec 12 15:39:54 2020.

 --------------------------------------------------------------------
 #N Geom=AllCheck Guess=TCheck SCRF=Check GenChk RB3LYP/6-31G(d) Freq
 --------------------------------------------------------------------

 Structure from the checkpoint file:  "JID_10399.chk"
 --------------------------------
 CID_107264599_JID_10399_neutraal
 --------------------------------
 Charge =  0 Multiplicity = 1

 SCF Done:  E(RB3LYP) =  -1348.42567452     A.U. after    1 cycles

  Exact polarizability: 186.879  17.087 164.841  25.390 -16.977 124.637
 Approx polarizability: 297.528  42.646 272.980  64.462 -36.202 210.849

                      1                      2                      3
                      A                      A                      A
 Frequencies --     13.7608                29.7214                53.6361
 Red. masses --      6.9190                 9.2542                 8.9725
 Frc consts  --      0.0008                 0.0048                 0.0152
 IR Inten    --      0.7810                 2.2976                 5.2596

                      4                      5                      6
                      A                      A                      A
 Frequencies --     59.6106                82.5847                83.7351
 Red. masses --      6.2526                 4.6057                 6.9202
 Frc consts  --      0.0131                 0.0185                 0.0286
 IR Inten    --      1.1177                10.3446                 0.8495

                      7                      8                      9
                      A                      A                      A
 Frequencies --     96.8968               110.1358               145.3328
 Red. masses --      6.0509                 4.6978                 6.0097
 Frc consts  --      0.0335                 0.0336                 0.0748
 IR Inten    --      0.2788                 4.6893                 0.0854

                     10                     11                     12
                      A                      A                      A
 Frequencies --    160.3458               189.4352               215.0273
 Red. masses --      3.1488                 6.7781                 5.9092
 Frc consts  --      0.0477                 0.1433                 0.1610
 IR Inten    --      1.1022                 0.2757                 0.5731

                     13                     14                     15
                      A                      A                      A
 Frequencies --    256.5922               260.2775               310.0693
 Red. masses --      2.8024                 7.8114                 6.1455
 Frc consts  --      0.1087                 0.3118                 0.3481
 IR Inten    --     11.0492                 1.1602                 6.3249

                     16                     17                     18
                      A                      A                      A
 Frequencies --    333.3013               351.8661               376.0399
 Red. masses --      5.9671                 9.2523                 4.8414
 Frc consts  --      0.3906                 0.6749                 0.4034
 IR Inten    --      1.2651                 3.8607                 5.7069

                     19                     20                     21
                      A                      A                      A
 Frequencies --    394.4669               447.1461               465.8149
 Red. masses --      8.1096                 4.2536                 4.0407
 Frc consts  --      0.7435                 0.5011                 0.5166
 IR Inten    --      5.2187                 5.9557                12.8560

                     22                     23                     24
                      A                      A                      A
 Frequencies --    480.4165               508.0480               519.7814
 Red. masses --      7.0395                 2.2483                 2.7284
 Frc consts  --      0.9572                 0.3419                 0.4343
 IR Inten    --      2.6990                 8.3807                66.9446

                     25                     26                     27
                      A                      A                      A
 Frequencies --    542.2502               558.4762               594.9665
 Red. masses --      2.9909                 3.8749                 2.7464
 Frc consts  --      0.5182                 0.7121                 0.5728
 IR Inten    --     18.9609                11.6935                12.1200

                     28                     29                     30
                      A                      A                      A
 Frequencies --    607.6409               626.6793               635.6173
 Red. masses --      2.3265                 2.0145                 3.4423
 Frc consts  --      0.5061                 0.4661                 0.8194
 IR Inten    --     16.2204                81.8238                83.4119

                     31                     32                     33
                      A                      A                      A
 Frequencies --    656.3317               679.1590               707.7579
 Red. masses --      4.9363                 2.0273                 2.0583
 Frc consts  --      1.2529                 0.5509                 0.6075
 IR Inten    --      6.3488                78.8754               108.2840

                     34                     35                     36
                      A                      A                      A
 Frequencies --    724.9752               750.9895               765.2910
 Red. masses --      4.3936                 5.3870                 4.9217
 Frc consts  --      1.3606                 1.7900                 1.6983
 IR Inten    --      0.7527                 3.2934                 0.7969

                     37                     38                     39
                      A                      A                      A
 Frequencies --    773.0248               791.4408               809.7847
 Red. masses --      5.1130                 5.0496                 3.9886
 Frc consts  --      1.8002                 1.8636                 1.5410
 IR Inten    --     52.4547                12.3870                 3.3693

                     40                     41                     42
                      A                      A                      A
 Frequencies --    839.8273               862.0189               868.7692
 Red. masses --      4.0516                 1.7769                 3.3261
 Frc consts  --      1.6837                 0.7779                 1.4791
 IR Inten    --      0.8283                20.4028                11.9350

                     43                     44                     45
                      A                      A                      A
 Frequencies --    932.7830               933.4228               973.2808
 Red. masses --      1.4628                 1.4976                 2.5434
 Frc consts  --      0.7499                 0.7688                 1.4195
 IR Inten    --     10.9994                 3.9249                 1.0993

                     46                     47                     48
                      A                      A                      A
 Frequencies --    989.7100               990.6806               992.7252
 Red. masses --      1.6390                 1.3590                 2.0493
 Frc consts  --      0.9459                 0.7859                 1.1899
 IR Inten    --      3.9122                 0.6155                 2.8788

                     49                     50                     51
                      A                      A                      A
 Frequencies --   1100.9844              1111.0221              1140.2758
 Red. masses --      5.6991                 3.1974                 1.6748
 Frc consts  --      4.0702                 2.3254                 1.2831
 IR Inten    --      4.2471                74.2932                45.2592

                     52                     53                     54
                      A                      A                      A
 Frequencies --   1167.8209              1199.2308              1211.2561
 Red. masses --      1.1689                 1.5477                 1.4045
 Frc consts  --      0.9392                 1.3115                 1.2140
 IR Inten    --      3.0507                98.9719               210.9621

                     55                     56                     57
                      A                      A                      A
 Frequencies --   1214.8558              1222.9656              1261.9395
 Red. masses --      1.2268                 1.8264                 1.3839
 Frc consts  --      1.0668                 1.6094                 1.2984
 IR Inten    --     89.8528                31.0994                 4.6058

                     58                     59                     60
                      A                      A                      A
 Frequencies --   1280.1201              1290.0318              1305.1550
 Red. masses --      2.2303                 1.7338                 1.8281
 Frc consts  --      2.1534                 1.7000                 1.8348
 IR Inten    --     12.7938                45.6003               101.4863

                     61                     62                     63
                      A                      A                      A
 Frequencies --   1320.8523              1350.7563              1360.4417
 Red. masses --      2.3097                 2.9635                 1.4098
 Frc consts  --      2.3741                 3.1857                 1.5373
 IR Inten    --     61.7661                23.9401                67.7589

                     64                     65                     66
                      A                      A                      A
 Frequencies --   1379.1571              1394.3874              1415.8896
 Red. masses --      2.8750                 2.7303                 2.6139
 Frc consts  --      3.2220                 3.1277                 3.0874
 IR Inten    --    140.4567               216.0116                 8.5878

                     67                     68                     69
                      A                      A                      A
 Frequencies --   1439.6535              1465.4970              1481.5880
 Red. masses --      1.7708                 1.8399                 4.1843
 Frc consts  --      2.1624                 2.3281                 5.4116
 IR Inten    --     44.0086                79.3675                 7.4762

                     70                     71                     72
                      A                      A                      A
 Frequencies --   1494.8315              1505.3223              1556.4585
 Red. masses --      1.0931                 1.2965                 2.7424
 Frc consts  --      1.4391                 1.7310                 3.9144
 IR Inten    --     11.8599                34.3419                78.7261

                     73                     74                     75
                      A                      A                      A
 Frequencies --   1563.2802              1641.3029              1669.6060
 Red. masses --      1.2765                 5.6630                 6.4360
 Frc consts  --      1.8380                 8.9882                10.5704
 IR Inten    --     22.9214                88.0982                51.0086

                     76                     77                     78
                      A                      A                      A
 Frequencies --   1773.5694              1819.9219              1822.5512
 Red. masses --     10.7541                 9.4046                 9.6972
 Frc consts  --     19.9305                18.3525                18.9782
 IR Inten    --    242.9757               703.5878                61.1630

                     79                     80                     81
                      A                      A                      A
 Frequencies --   3058.9438              3085.4309              3099.2062
 Red. masses --      1.0580                 1.0587                 1.0590
 Frc consts  --      5.8327                 5.9379                 5.9930
 IR Inten    --     28.5998                 9.8855                10.9684

                     82                     83                     84
                      A                      A                      A
 Frequencies --   3112.1120              3135.1841              3155.2532
 Red. masses --      1.1076                 1.1063                 1.1060
 Frc consts  --      6.3201                 6.4072                 6.4875
 IR Inten    --      7.3915                 5.9025                 0.3490

                     85                     86                     87
                      A                      A                      A
 Frequencies --   3223.8295              3227.9632              3236.4922
 Red. masses --      1.0886                 1.0913                 1.0950
 Frc consts  --      6.6659                 6.6995                 6.7579
 IR Inten    --      0.6734                 0.5519                 1.9528

                     88                     89                     90
                      A                      A                      A
 Frequencies --   3545.4745              3600.1764              3702.3993
 Red. masses --      1.0748                 1.0650                 1.0642
 Frc consts  --      7.9604                 8.1328                 8.5952
 IR Inten    --     33.2345               146.9914                85.2568

 - Thermochemistry -
 -------------------
 Temperature   298.150 Kelvin.  Pressure   1.00000 Atm.
 Atom     1 has atomic number  6 and mass  12.00000

 Molecular mass:   296.04669 amu.
 Principal axes and moments of inertia in atomic units:
                           1         2         3
     Eigenvalues --  3995.153726948.807818358.34934
           X            0.99995  -0.01027   0.00141
           Y            0.01030   0.99973  -0.02070
           Z           -0.00119   0.02071   0.99978
 This molecule is an asymmetric top.
 Rotational symmetry number  1.
 Warning -- assumption of classical behavior for rotation
           may cause significant error
 Rotational temperatures (Kelvin)      0.02168     0.01246     0.01036
 Rotational constants (GHZ):           0.45173     0.25972     0.21592
 Zero-point vibrational energy     632195.5 (Joules/Mol)
                                  151.09835 (Kcal/Mol)
 Warning -- explicit consideration of  28 degrees of freedom as
           vibrations may cause significant error
 Vibrational temperatures:     19.80    42.76    77.17    85.77   118.82
          (Kelvin)            120.48   139.41   158.46   209.10   230.70
                              272.56   309.38   369.18   374.48   446.12
                              479.55   506.26   541.04   567.55   643.34
                              670.20   691.21   730.97   747.85   780.18
                              803.52   856.02   874.26   901.65   914.51
                              944.31   977.16  1018.31  1043.08  1080.51
                             1101.08  1112.21  1138.71  1165.10  1208.32
                             1240.25  1249.97  1342.07  1342.99  1400.33
                             1423.97  1425.37  1428.31  1584.07  1598.51
                             1640.60  1680.23  1725.43  1742.73  1747.91
                             1759.57  1815.65  1841.81  1856.07  1877.83
                             1900.41  1943.44  1957.37  1984.30  2006.21
                             2037.15  2071.34  2108.52  2131.67  2150.73
                             2165.82  2239.40  2249.21  2361.47  2402.19
                             2551.77  2618.46  2622.24  4401.14  4439.25
                             4459.07  4477.63  4510.83  4539.71  4638.37
                             4644.32  4656.59  5101.15  5179.85  5326.93

 Zero-point correction=                           0.240791 (Hartree/Particle)
 Thermal correction to Energy=                    0.258981
 Thermal correction to Enthalpy=                  0.259925
 Thermal correction to Gibbs Free Energy=         0.192096
 Sum of electronic and zero-point Energies=          -1348.184884
 Sum of electronic and thermal Energies=             -1348.166694
 Sum of electronic and thermal Enthalpies=           -1348.165749
 Sum of electronic and thermal Free Energies=        -1348.233579

                     E (Thermal)             CV                S
                      KCal/Mol        Cal/Mol-Kelvin    Cal/Mol-Kelvin
 Total                  162.513             68.017            142.759
 Electronic               0.000              0.000              0.000
 Translational            0.889              2.981             42.953
 Rotational               0.889              2.981             33.806
 Vibrational            160.735             62.056             66.000
 Vibration     1          0.593              1.986              7.377
 Vibration     2          0.594              1.984              5.848
 Vibration     3          0.596              1.976              4.679
 Vibration     4          0.597              1.974              4.470
 Vibration     5          0.600              1.961              3.828
 Vibration     6          0.601              1.960              3.801
 Vibration     7          0.603              1.951              3.516
 Vibration     8          0.606              1.941              3.267
 Vibration     9          0.617              1.908              2.732
 Vibration    10          0.622              1.891              2.546
 Vibration    11          0.633              1.854              2.233
 Vibration    12          0.645              1.818              2.001
 Vibration    13          0.666              1.752              1.685
 Vibration    14          0.668              1.745              1.660
 Vibration    15          0.699              1.655              1.362
 Vibration    16          0.715              1.609              1.244
 Vibration    17          0.728              1.571              1.158
 Vibration    18          0.747              1.521              1.055
 Vibration    19          0.761              1.482              0.983
 Vibration    20          0.806              1.367              0.804
 Vibration    21          0.823              1.326              0.749
 Vibration    22          0.837              1.293              0.709
 Vibration    23          0.863              1.232              0.638
 Vibration    24          0.875              1.206              0.610
 Vibration    25          0.897              1.157              0.560
 Vibration    26          0.914              1.121              0.527
 Vibration    27          0.953              1.042              0.458
 Vibration    28          0.966              1.016              0.437

 Optimization completed.
    -- Stationary point found.
 Normal termination of Gaussian 16 at Sat Dec 12 16:00:02 2020.

 ----------------------------------------------------------------------
 # B3LYP/6-311++G(d,p) empiricaldispersion=gd3bj scf=xqc pop=npa geom=c
 heck
 ----------------------------------------------------------------------

 ----------------------------------------
 CID_107264599_JID_10399_Energie_neutraal
 ----------------------------------------
 Structure from the checkpoint file:  "JID_10399.chk"
 Charge =  0 Multiplicity = 1

 SCF Done:  E(RB3LYP) =  -1348.73844393     A.U. after   16 cycles
 Normal termination of Gaussian 16 at Sat Dec 12 16:08:07 2020.

 ----------------------------------------------------------------------
 # B3LYP/6-311++G(d,p) empiricaldispersion=gd3bj scf=xqc pop=npa geom=c
 heck
 ----------------------------------------------------------------------

 --------------------------------------
 CID_107264599_JID_10399_Energie_kation
 --------------------------------------
 Structure from the checkpoint file:  "JID_10399.chk"
 Charge =  1 Multiplicity = 2

 SCF Done:  E(UB3LYP) =  -1348.43058537     A.U. after   28 cycles
 Normal termination of Gaussian 16 at Sat Dec 12 16:28:00 2020.
 Gaussian 16:  ES64L-G16RevA.03 25-Dec-2016

 ----------------------------------------------------------------------
 # B3LYP/6-311++G(d,p) empiricaldispersion=gd3bj scf=xqc pop=npa geom=c
 heck
 ----------------------------------------------------------------------

 -------------------------------------
 CID_107264599_JID_10399_Energie_anion
 -------------------------------------
 Structure from the checkpoint file:  "JID_10399.chk"
 Charge = -1 Multiplicity = 2

                         Standard orientation:
 ---------------------------------------------------------------------
 Center     Atomic      Atomic             Coordinates (Angstroms)
 Number     Number       Type             X           Y           Z
 ---------------------------------------------------------------------
      1          6           0        2.689979   -1.872726    0.025085
      2          6           0        2.588678   -0.369389   -0.187243
      3          8           0        3.312947    0.450292    0.364625
      4          7           0        1.578601   -0.028079   -1.035694
      5          6           0        0.751688   -1.063447   -1.621223
      6         16           0        1.343235   -2.669931   -0.925365
      7          6           0        1.405240    1.362236   -1.427514
      8          6           0        1.286964    2.377713   -0.283113
      9          8           0        1.784538    3.481731   -0.382932
     10          7           0        0.564965    2.005091    0.839068
     11          6           0       -0.404098    0.956948    0.897523
     12          6           0       -0.104579   -0.169246    1.690313
     13          6           0       -1.025731   -1.218168    1.788436
     14          6           0       -2.224315   -1.146555    1.095164
     15          6           0       -2.528953   -0.033129    0.296326
     16          6           0       -1.610635    1.021473    0.210180
     17          6           0       -3.818199   -0.017587   -0.426740
     18          8           0       -4.657553   -0.894817   -0.377438
     19          8           0       -3.987192    1.100234   -1.183768
     20          8           0        1.072896   -0.268914    2.341241
     21          1           0        2.587190   -2.077129    1.092388
     22          1           0        3.672602   -2.214954   -0.310101
     23          1           0        0.849461   -1.070611   -2.712369
     24          1           0       -0.297903   -0.913317   -1.351587
     25          1           0        2.251593    1.704571   -2.029181
     26          1           0        0.500984    1.428313   -2.040158
     27          1           0        0.464945    2.774897    1.494581
     28          1           0       -0.770898   -2.082194    2.391639
     29          1           0       -2.945115   -1.954881    1.150323
     30          1           0       -1.836550    1.895387   -0.390657
     31          1           0       -4.862252    1.002874   -1.601979
     32          1           0        1.647907    0.469918    2.052344
 ---------------------------------------------------------------------

 SCF Done:  E(UB3LYP) =  -1348.75083883     A.U. after   33 cycles
 SCF Done:  E(UB3LYP) =  -1348.75083883     a.u. after    1 cycles

 The electronic state is 2-A.
 Alpha  occ. eigenvalues --  -88.75910 -19.02675 -19.02174 -19.00845 -19.00023
 Alpha  occ. eigenvalues --  -18.94298 -14.27048 -14.24015 -10.19393 -10.18554
 Alpha  occ. eigenvalues --  -10.14982 -10.13280 -10.12549 -10.12194 -10.08671
 Alpha  occ. eigenvalues --  -10.08248 -10.03900 -10.03814 -10.03579 -10.02507
 Alpha  occ. eigenvalues --   -7.84534  -5.80951  -5.80606  -5.79831  -0.96563
 Alpha  occ. eigenvalues --   -0.95558  -0.95166  -0.94373  -0.87182  -0.86008
 Alpha  occ. eigenvalues --   -0.82574  -0.72552  -0.71694  -0.64932  -0.64060
 Alpha  occ. eigenvalues --   -0.62257  -0.61544  -0.54401  -0.52283  -0.51512
 Alpha  occ. eigenvalues --   -0.49343  -0.46737  -0.45982  -0.43584  -0.42255
 Alpha  occ. eigenvalues --   -0.40640  -0.39304  -0.38315  -0.36399  -0.35953
 Alpha  occ. eigenvalues --   -0.35449  -0.35020  -0.34483  -0.33169  -0.32994
 Alpha  occ. eigenvalues --   -0.31979  -0.30582  -0.30446  -0.29959  -0.29639
 Alpha  occ. eigenvalues --   -0.28792  -0.27728  -0.27500  -0.26334  -0.25815
 Alpha  occ. eigenvalues --   -0.24276  -0.21792  -0.21313  -0.18636  -0.18214
 Alpha  occ. eigenvalues --   -0.17846  -0.17396  -0.16323  -0.14502  -0.13025
 Alpha  occ. eigenvalues --   -0.12844  -0.10422   0.04577
 Alpha virt. eigenvalues --    0.06790   0.07562   0.08574   0.08915   0.09131
 Alpha virt. eigenvalues --    0.09323   0.09948   0.10523   0.10711   0.11304
 Alpha virt. eigenvalues --    0.11562   0.11914   0.12669   0.13411   0.14003

  Beta  occ. eigenvalues --  -88.75909 -19.02547 -19.02109 -19.00844 -19.00020
  Beta  occ. eigenvalues --  -18.93962 -14.27040 -14.24009 -10.19387 -10.18553
  Beta  occ. eigenvalues --  -10.14976 -10.13268 -10.12224 -10.12193 -10.08395
  Beta  occ. eigenvalues --  -10.08195 -10.03899 -10.03661 -10.03411 -10.02330
  Beta  occ. eigenvalues --   -7.84532  -5.80949  -5.80602  -5.79831  -0.96546
  Beta  occ. eigenvalues --   -0.95230  -0.95158  -0.94055  -0.87169  -0.85503
  Beta  occ. eigenvalues --   -0.82592  -0.72518  -0.71340  -0.64920  -0.64033
  Beta  occ. eigenvalues --   -0.61803  -0.61155  -0.54389  -0.51892  -0.51089
  Beta  occ. eigenvalues --   -0.49171  -0.46613  -0.45844  -0.43459  -0.42233
  Beta  occ. eigenvalues --   -0.40599  -0.39269  -0.38137  -0.36150  -0.35923
  Beta  occ. eigenvalues --   -0.35299  -0.34942  -0.34407  -0.32959  -0.32902
  Beta  occ. eigenvalues --   -0.31921  -0.30311  -0.29962  -0.29411  -0.29076
  Beta  occ. eigenvalues --   -0.28283  -0.27382  -0.27154  -0.26184  -0.25783
  Beta  occ. eigenvalues --   -0.23963  -0.21627  -0.20466  -0.18588  -0.17843
  Beta  occ. eigenvalues --   -0.17504  -0.16633  -0.16257  -0.14386  -0.12561
  Beta  occ. eigenvalues --   -0.12313  -0.08843
  Beta virt. eigenvalues --    0.06778   0.07526   0.08606   0.08929   0.09124
  Beta virt. eigenvalues --    0.09291   0.09830   0.10515   0.10701   0.11044
  Beta virt. eigenvalues --    0.11414   0.11723   0.11998   0.12659   0.13369

 Mulliken charges and spin densities:
               1          2
     1  C   -0.663925   0.033310
     2  C   -0.092912  -0.024054
     3  O   -0.282710   0.003304
     4  N    0.221028  -0.003660
     5  C   -0.305173  -0.071033
     6  S    0.081622  -0.028706
     7  C    0.033000  -0.035318
     8  C    0.011517  -0.085803
     9  O   -0.313290   0.006054
    10  N   -0.283159  -0.009289
    11  C   -0.573443   0.049633
    12  C   -0.229199   0.233931
    13  C   -0.479220  -0.050094
    14  C   -0.210799   0.214399
    15  C    0.472430  -0.006767
    16  C   -0.067062   0.166759
    17  C   -0.041142   0.201241
    18  O   -0.416043   0.120342
    19  O   -0.221614   0.016177
    20  O   -0.150276   0.031089
    21  H    0.226805   0.014240
    22  H    0.215495   0.017937
    23  H    0.138405   0.086901
    24  H    0.301443  -0.024301
    25  H    0.130283   0.115217
    26  H    0.108737   0.058441
    27  H    0.320479  -0.003997
    28  H    0.137975   0.000527
    29  H    0.190056  -0.009657
    30  H    0.195738  -0.020420
    31  H    0.256617   0.000933
    32  H    0.288339   0.002665
 Sum of Mulliken charges =  -1.00000   1.00000

 Dipole moment (field-independent basis, Debye):
    X=              4.9549    Y=             -1.0730    Z=             -2.1419  Tot=              5.5037
 Quadrupole moment (field-independent basis, Debye-Ang):
   XX=           -187.1797   YY=           -152.7944   ZZ=           -133.0461
   XY=            -20.8713   XZ=              0.2102   YZ=              1.5225

 Summary of Natural Population Analysis:

                                       Natural Population
                Natural  -----------------------------------------------
    Atom  No    Charge         Core      Valence    Rydberg      Total
 -----------------------------------------------------------------------
      C    1   -0.28277      0.99955     2.27465    0.00857     3.28277
      C    2    0.34448      0.99962     1.63206    0.02383     2.65552
      O    3   -0.32351      0.99987     3.31775    0.00589     4.32351
      N    4   -0.25409      0.99961     2.74229    0.01220     3.75409
      C    5   -0.12926      0.99960     2.12056    0.00911     3.12926
      S    6    0.08710      4.99966     2.89570    0.01754     7.91290
      C    7   -0.12802      0.99957     2.11606    0.01240     3.12802
      C    8    0.35108      0.99969     1.62595    0.02329     2.64892
      O    9   -0.31618      0.99987     3.30995    0.00635     4.31618
      N   10   -0.33081      0.99964     2.81917    0.01199     3.83081
      C   11   -0.01824      0.99943     2.00630    0.01250     3.01824
      C   12    0.23016      0.99935     1.75390    0.01659     2.76984
      C   13   -0.15463      0.99954     2.14664    0.00845     3.15463
      C   14   -0.03252      0.99955     2.02507    0.00790     3.03252
      C   15   -0.07553      0.99946     2.06338    0.01269     3.07553
      C   16   -0.04044      0.99950     2.03126    0.00967     3.04044
      C   17    0.43403      0.99965     1.54302    0.02330     2.56597
      O   18   -0.30358      0.99987     3.29765    0.00606     4.30358
      O   19   -0.35786      0.99988     3.35093    0.00705     4.35786
      O   20   -0.33688      0.99987     3.33078    0.00623     4.33688
      H   21    0.12194      0.00000     0.37604    0.00202     0.37806
      H   22    0.10859      0.00000     0.38983    0.00158     0.39141
      H   23    0.09125      0.00000     0.40668    0.00206     0.40875
      H   24    0.11673      0.00000     0.38145    0.00182     0.38327
      H   25    0.11136      0.00000     0.38715    0.00150     0.38864
      H   26    0.11535      0.00000     0.38344    0.00121     0.38465
      H   27    0.19430      0.00000     0.30418    0.00153     0.30570
      H   28    0.09843      0.00000     0.40017    0.00140     0.40157
      H   29    0.10487      0.00000     0.39417    0.00096     0.39513
      H   30    0.10348      0.00000     0.39557    0.00095     0.39652
      H   31    0.22846      0.00000     0.26648    0.00506     0.27154
      H   32    0.24270      0.00000     0.25506    0.00223     0.25730
 =======================================================================
   * Total *   -0.00000     23.99280    52.74330    0.26391    77.00000

 Normal termination of Gaussian 16 at Sat Dec 12 16:50:27 2020.
