 Gaussian 16, Revision A.03,

 -----------------------------------------------------------
 # opt freq B3LYP/6-31G(d) empiricaldispersion=gd3bj scf=xqc
 -----------------------------------------------------------

 -------------------------------
 CID_148770454_JID_2162_neutraal
 -------------------------------
 Symbolic Z-matrix:
 Charge =  0 Multiplicity = 1

 SCF Done:  E(RB3LYP) =  -500.362873911     A.U. after   15 cycles
 SCF Done:  E(RB3LYP) =  -500.363817411     A.U. after   12 cycles
 SCF Done:  E(RB3LYP) =  -500.363978297     A.U. after   12 cycles
 SCF Done:  E(RB3LYP) =  -500.364193059     A.U. after   12 cycles
 SCF Done:  E(RB3LYP) =  -500.364182394     A.U. after   12 cycles
 SCF Done:  E(RB3LYP) =  -500.364253052     A.U. after   11 cycles
 SCF Done:  E(RB3LYP) =  -500.364256306     A.U. after   10 cycles
 SCF Done:  E(RB3LYP) =  -500.364257204     A.U. after    9 cycles
 Optimization completed.
    -- Stationary point found.
 Normal termination of Gaussian 16 at Wed Dec  9 16:48:23 2020.

 --------------------------------------------------------------------
 #N Geom=AllCheck Guess=TCheck SCRF=Check GenChk RB3LYP/6-31G(d) Freq
 --------------------------------------------------------------------

 Structure from the checkpoint file:  "JID_2162.chk"
 -------------------------------
 CID_148770454_JID_2162_neutraal
 -------------------------------
 Charge =  0 Multiplicity = 1

 SCF Done:  E(RB3LYP) =  -500.364257204     A.U. after    1 cycles

  Exact polarizability: 199.451   5.476 145.797   1.078   2.024  45.984
 Approx polarizability: 313.802   4.213 233.589   0.914   2.172  73.079

                      1                      2                      3
                      A                      A                      A
 Frequencies --     51.6725                77.2305               103.6521
 Red. masses --      4.2175                 4.6153                 3.0010
 Frc consts  --      0.0066                 0.0162                 0.0190
 IR Inten    --      0.6277                 3.1512                 1.1079

                      4                      5                      6
                      A                      A                      A
 Frequencies --    141.3412               210.1634               245.9900
 Red. masses --      3.4165                 2.6224                 2.8972
 Frc consts  --      0.0402                 0.0682                 0.1033
 IR Inten    --      0.4797                 0.3590                 0.7153

                      7                      8                      9
                      A                      A                      A
 Frequencies --    286.3029               309.9839               336.1850
 Red. masses --      2.6779                 3.0179                 2.9536
 Frc consts  --      0.1293                 0.1709                 0.1967
 IR Inten    --      0.1425                 2.0572                 0.7398

                     10                     11                     12
                      A                      A                      A
 Frequencies --    356.1046               369.9563               405.7882
 Red. masses --      4.2380                 4.0761                 4.1002
 Frc consts  --      0.3166                 0.3287                 0.3978
 IR Inten    --      0.3295                11.0133                 2.3233

                     13                     14                     15
                      A                      A                      A
 Frequencies --    409.7122               566.8990               586.4479
 Red. masses --      3.1572                 7.3446                 4.0390
 Frc consts  --      0.3123                 1.3907                 0.8184
 IR Inten    --      4.1370                 1.1918                 2.6430

                     16                     17                     18
                      A                      A                      A
 Frequencies --    621.4433               627.3609               646.7870
 Red. masses --      1.4775                 2.9130                 1.3689
 Frc consts  --      0.3362                 0.6755                 0.3374
 IR Inten    --      1.4593                 0.1389                 1.5354

                     19                     20                     21
                      A                      A                      A
 Frequencies --    689.3127               711.3937               755.8642
 Red. masses --      1.3588                 3.2866                 1.3126
 Frc consts  --      0.3804                 0.9800                 0.4418
 IR Inten    --      5.9129                 0.5384                 0.1831

                     22                     23                     24
                      A                      A                      A
 Frequencies --    793.2905               836.9288               853.6093
 Red. masses --      2.2787                 2.1134                 2.9695
 Frc consts  --      0.8449                 0.8722                 1.2748
 IR Inten    --      0.5222                 1.3720                11.2399

                     25                     26                     27
                      A                      A                      A
 Frequencies --    907.6362               913.1390               919.9006
 Red. masses --      1.4633                 1.6137                 1.4764
 Frc consts  --      0.7102                 0.7928                 0.7361
 IR Inten    --     20.9941                 0.9770                 9.5981

                     28                     29                     30
                      A                      A                      A
 Frequencies --    933.9779               952.0949               966.1301
 Red. masses --      1.4889                 1.3865                 1.3878
 Frc consts  --      0.7652                 0.7405                 0.7632
 IR Inten    --     46.8847                25.0949                39.0154

                     31                     32                     33
                      A                      A                      A
 Frequencies --    988.2173              1046.1095              1050.0592
 Red. masses --      1.5892                 2.1273                 1.1263
 Frc consts  --      0.9144                 1.3716                 0.7317
 IR Inten    --      1.9244                10.2144                12.4793

                     34                     35                     36
                      A                      A                      A
 Frequencies --   1086.7663              1202.7085              1232.9405
 Red. masses --      3.9361                 2.3854                 2.5027
 Frc consts  --      2.7390                 2.0330                 2.2415
 IR Inten    --     82.5988                24.0463                16.9222

                     37                     38                     39
                      A                      A                      A
 Frequencies --   1255.8153              1269.8256              1337.2186
 Red. masses --      3.4032                 3.1527                 1.3551
 Frc consts  --      3.1622                 2.9952                 1.4277
 IR Inten    --      2.5560                43.1584                 1.2061

                     40                     41                     42
                      A                      A                      A
 Frequencies --   1372.6888              1449.6654              1454.6932
 Red. masses --      1.4513                 1.2224                 1.2261
 Frc consts  --      1.6112                 1.5136                 1.5287
 IR Inten    --      3.7564                50.1108                28.9657

                     43                     44                     45
                      A                      A                      A
 Frequencies --   1477.5895              1484.2003              1655.3530
 Red. masses --      1.2979                 1.2880                 5.8816
 Frc consts  --      1.6696                 1.6717                 9.4957
 IR Inten    --      2.1822                17.0733                 9.5783

                     46                     47                     48
                      A                      A                      A
 Frequencies --   1683.0111              1688.8496              1712.0189
 Red. masses --      4.9912                 4.2406                 6.5894
 Frc consts  --      8.3297                 7.1263                11.3793
 IR Inten    --     19.8104                14.1314                31.1019

                     49                     50                     51
                      A                      A                      A
 Frequencies --   1722.8759              1816.5979              3152.1092
 Red. masses --      5.7619                10.9536                 1.0864
 Frc consts  --     10.0768                21.2973                 6.3598
 IR Inten    --     36.0414               136.2349                 5.0769

                     52                     53                     54
                      A                      A                      A
 Frequencies --   3165.7780              3170.6055              3172.2014
 Red. masses --      1.0598                 1.0579                 1.0578
 Frc consts  --      6.2580                 6.2660                 6.2713
 IR Inten    --      9.0124                 9.0318                 6.6218

                     55                     56                     57
                      A                      A                      A
 Frequencies --   3182.7525              3201.1016              3252.6166
 Red. masses --      1.0620                 1.0894                 1.1155
 Frc consts  --      6.3386                 6.5771                 6.9533
 IR Inten    --      3.4358                 7.3958                12.8538

                     58                     59                     60
                      A                      A                      A
 Frequencies --   3258.1897              3259.3183              3273.4744
 Red. masses --      1.1176                 1.1175                 1.1126
 Frc consts  --      6.9903                 6.9943                 7.0246
 IR Inten    --      1.6515                 0.9919                 4.9827

 - Thermochemistry -
 -------------------
 Temperature   298.150 Kelvin.  Pressure   1.00000 Atm.
 Atom     1 has atomic number  6 and mass  12.00000

 Molecular mass:   158.07317 amu.
 Principal axes and moments of inertia in atomic units:
                           1         2         3
     Eigenvalues --  1131.510042678.127043721.63012
           X            0.99985   0.01726  -0.00021
           Y           -0.01726   0.99985   0.00245
           Z            0.00025  -0.00245   1.00000
 This molecule is an asymmetric top.
 Rotational symmetry number  1.
 Warning -- assumption of classical behavior for rotation
           may cause significant error
 Rotational temperatures (Kelvin)      0.07655     0.03234     0.02327
 Rotational constants (GHZ):           1.59498     0.67388     0.48493
 Zero-point vibrational energy     458538.5 (Joules/Mol)
                                  109.59333 (Kcal/Mol)
 Warning -- explicit consideration of  15 degrees of freedom as
           vibrations may cause significant error
 Vibrational temperatures:     74.35   111.12   149.13   203.36   302.38
          (Kelvin)            353.92   411.93   446.00   483.70   512.36
                              532.28   583.84   589.48   815.64   843.77
                              894.12   902.63   930.58   991.77  1023.54
                             1087.52  1141.37  1204.15  1228.15  1305.89
                             1313.80  1323.53  1343.79  1369.85  1390.05
                             1421.82  1505.12  1510.80  1563.61  1730.43
                             1773.93  1806.84  1827.00  1923.96  1974.99
                             2085.75  2092.98  2125.92  2135.43  2381.68
                             2421.48  2429.88  2463.21  2478.83  2613.68
                             4535.18  4554.85  4561.79  4564.09  4579.27
                             4605.67  4679.79  4687.81  4689.43  4709.80

 Zero-point correction=                           0.174648 (Hartree/Particle)
 Thermal correction to Energy=                    0.185866
 Thermal correction to Enthalpy=                  0.186810
 Thermal correction to Gibbs Free Energy=         0.137555
 Sum of electronic and zero-point Energies=           -500.189609
 Sum of electronic and thermal Energies=              -500.178392
 Sum of electronic and thermal Enthalpies=            -500.177447
 Sum of electronic and thermal Free Energies=         -500.226703

                     E (Thermal)             CV                S
                      KCal/Mol        Cal/Mol-Kelvin    Cal/Mol-Kelvin
 Total                  116.632             43.185            103.666
 Electronic               0.000              0.000              0.000
 Translational            0.889              2.981             41.083
 Rotational               0.889              2.981             30.801
 Vibrational            114.855             37.223             31.783
 Vibration     1          0.596              1.977              4.752
 Vibration     2          0.599              1.964              3.960
 Vibration     3          0.605              1.946              3.384
 Vibration     4          0.615              1.912              2.786
 Vibration     5          0.642              1.825              2.042
 Vibration     6          0.660              1.769              1.759
 Vibration     7          0.684              1.699              1.496
 Vibration     8          0.699              1.655              1.362
 Vibration     9          0.717              1.603              1.230
 Vibration    10          0.732              1.563              1.139
 Vibration    11          0.742              1.534              1.080
 Vibration    12          0.771              1.458              0.942
 Vibration    13          0.774              1.449              0.928
 Vibration    14          0.923              1.103              0.510
 Vibration    15          0.944              1.061              0.474

                           ! Non-Optimized Parameters !
 Normal termination of Gaussian 16 at Wed Dec  9 16:52:39 2020.

 ----------------------------------------------------------------------
 # B3LYP/6-311++G(d,p) empiricaldispersion=gd3bj scf=xqc pop=npa geom=c
 heck
 ----------------------------------------------------------------------

 ---------------------------------------
 CID_148770454_JID_2162_Energie_neutraal
 ---------------------------------------
 Structure from the checkpoint file:  "JID_2162.chk"
 Charge =  0 Multiplicity = 1

 SCF Done:  E(RB3LYP) =  -500.499943004     A.U. after   16 cycles
 Normal termination of Gaussian 16 at Wed Dec  9 16:54:33 2020.

 ----------------------------------------------------------------------
 # B3LYP/6-311++G(d,p) empiricaldispersion=gd3bj scf=xqc pop=npa geom=c
 heck
 ----------------------------------------------------------------------

 -------------------------------------
 CID_148770454_JID_2162_Energie_kation
 -------------------------------------
 Structure from the checkpoint file:  "JID_2162.chk"
 Charge =  1 Multiplicity = 2

 SCF Done:  E(UB3LYP) =  -500.211483690     A.U. after   26 cycles
 Normal termination of Gaussian 16 at Wed Dec  9 16:58:46 2020.
 Gaussian 16:  ES64L-G16RevA.03 25-Dec-2016

 ----------------------------------------------------------------------
 # B3LYP/6-311++G(d,p) empiricaldispersion=gd3bj scf=xqc pop=npa geom=c
 heck
 ----------------------------------------------------------------------

 ------------------------------------
 CID_148770454_JID_2162_Energie_anion
 ------------------------------------
 Structure from the checkpoint file:  "JID_2162.chk"
 Charge = -1 Multiplicity = 2

                         Standard orientation:
 ---------------------------------------------------------------------
 Center     Atomic      Atomic             Coordinates (Angstroms)
 Number     Number       Type             X           Y           Z
 ---------------------------------------------------------------------
      1          6           0        4.196483    0.129268   -0.272891
      2          6           0        2.918380   -0.287576   -0.254598
      3          6           0        1.798093    0.601173   -0.039857
      4          6           0        0.490020    0.273366    0.112466
      5          6           0       -0.128867   -1.077346    0.191981
      6          6           0        0.445768   -2.225119    0.590280
      7          6           0       -1.575274   -0.923319   -0.098131
      8          6           0       -2.504740   -1.849292   -0.360848
      9          6           0       -1.898637    0.539238   -0.069227
     10          8           0       -3.002988    1.040324   -0.185973
     11          6           0       -0.602826    1.268540    0.127795
     12          6           0       -0.568914    2.599792    0.280525
     13          1           0        4.458638    1.167972   -0.085196
     14          1           0        5.016278   -0.554337   -0.469203
     15          1           0        2.702477   -1.334181   -0.448366
     16          1           0        2.041316    1.663176   -0.062108
     17          1           0       -0.134476   -3.140207    0.662916
     18          1           0        1.480417   -2.282054    0.903676
     19          1           0       -2.279688   -2.910603   -0.412582
     20          1           0       -3.529392   -1.536742   -0.539587
     21          1           0       -1.499027    3.158972    0.245201
     22          1           0        0.350426    3.153067    0.448068
 ---------------------------------------------------------------------

 SCF Done:  E(UB3LYP) =  -500.555365504     A.U. after   23 cycles

 The electronic state is 2-A.
 Alpha  occ. eigenvalues --  -18.94890 -10.09288 -10.05320 -10.05098 -10.04890
 Alpha  occ. eigenvalues --  -10.03933 -10.03668 -10.03407 -10.03183 -10.02592
 Alpha  occ. eigenvalues --  -10.02508 -10.02059  -0.88334  -0.72258  -0.66897
 Alpha  occ. eigenvalues --   -0.64167  -0.60898  -0.57683  -0.54904  -0.47438
 Alpha  occ. eigenvalues --   -0.44782  -0.42947  -0.38947  -0.37015  -0.34843
 Alpha  occ. eigenvalues --   -0.32648  -0.31602  -0.29549  -0.29054  -0.28224
 Alpha  occ. eigenvalues --   -0.27262  -0.26116  -0.25140  -0.24050  -0.22650
 Alpha  occ. eigenvalues --   -0.21295  -0.19752  -0.18000  -0.15469  -0.11496
 Alpha  occ. eigenvalues --   -0.09987  -0.08252   0.00066
 Alpha virt. eigenvalues --    0.08200   0.08645   0.09777   0.10036   0.10327
 Alpha virt. eigenvalues --    0.11362   0.11834   0.12933   0.13333   0.13655
 Alpha virt. eigenvalues --    0.14267   0.14918   0.15618   0.17031   0.17358

  Beta  occ. eigenvalues --  -18.94696 -10.09157 -10.05370 -10.05128 -10.04882
  Beta  occ. eigenvalues --  -10.03766 -10.03738 -10.03498 -10.03013 -10.02300
  Beta  occ. eigenvalues --  -10.02274 -10.01661  -0.87973  -0.72038  -0.66667
  Beta  occ. eigenvalues --   -0.63865  -0.60529  -0.57237  -0.54174  -0.47083
  Beta  occ. eigenvalues --   -0.44306  -0.42712  -0.38762  -0.36851  -0.34680
  Beta  occ. eigenvalues --   -0.32474  -0.31429  -0.29397  -0.28848  -0.28054
  Beta  occ. eigenvalues --   -0.26466  -0.25904  -0.24949  -0.23890  -0.22451
  Beta  occ. eigenvalues --   -0.20639  -0.19636  -0.17324  -0.14522  -0.10301
  Beta  occ. eigenvalues --   -0.09597  -0.06745
  Beta virt. eigenvalues --    0.05107   0.08618   0.09554   0.09817   0.10134
  Beta virt. eigenvalues --    0.11335   0.11438   0.11820   0.12951   0.13373
  Beta virt. eigenvalues --    0.13712   0.14432   0.15052   0.15702   0.17234

 Mulliken charges and spin densities:
               1          2
     1  C   -0.642887   0.158704
     2  C    0.244330  -0.075851
     3  C   -0.467619   0.161464
     4  C   -0.000352  -0.015986
     5  C   -1.006353  -0.041773
     6  C   -1.058833   0.199870
     7  C    1.580585  -0.067747
     8  C   -0.415656   0.310435
     9  C   -1.722834   0.118077
    10  O   -0.359675   0.078675
    11  C    2.338105  -0.097603
    12  C   -0.472798   0.385253
    13  H    0.090521  -0.005529
    14  H    0.112374  -0.006883
    15  H    0.112000   0.003115
    16  H   -0.017236  -0.014948
    17  H    0.090770  -0.011539
    18  H    0.086863  -0.008361
    19  H    0.100922  -0.014991
    20  H    0.144457  -0.016955
    21  H    0.138159  -0.020905
    22  H    0.125155  -0.016522
 Sum of Mulliken charges =  -1.00000   1.00000

 Dipole moment (field-independent basis, Debye):
    X=              3.0736    Y=             -1.3582    Z=              0.1863  Tot=              3.3655
 Quadrupole moment (field-independent basis, Debye-Ang):
   XX=           -111.7466   YY=            -86.0719   ZZ=            -82.9583
   XY=              4.8564   XZ=             -0.2868   YZ=              0.8181

 Summary of Natural Population Analysis:

                                       Natural Population
                Natural  -----------------------------------------------
    Atom  No    Charge         Core      Valence    Rydberg      Total
 -----------------------------------------------------------------------
      C    1   -0.17066      0.99960     2.16287    0.00818     3.17066
      C    2   -0.11168      0.99957     2.10324    0.00888     3.11168
      C    3   -0.07274      0.99948     2.06457    0.00868     3.07274
      C    4   -0.01443      0.99946     2.00448    0.01049     3.01443
      C    5   -0.03870      0.99949     2.02822    0.01100     3.03870
      C    6   -0.13987      0.99950     2.13500    0.00538     3.13987
      C    7   -0.08867      0.99947     2.07623    0.01297     3.08867
      C    8   -0.08375      0.99954     2.07820    0.00601     3.08375
      C    9    0.28656      0.99954     1.69349    0.02040     2.71344
      O   10   -0.28499      0.99988     3.27827    0.00685     4.28499
      C   11   -0.09547      0.99948     2.08364    0.01235     3.09547
      C   12   -0.06184      0.99954     2.05640    0.00590     3.06184
      H   13    0.08243      0.00000     0.41641    0.00116     0.41757
      H   14    0.08358      0.00000     0.41540    0.00102     0.41642
      H   15    0.09624      0.00000     0.40197    0.00178     0.40376
      H   16    0.08891      0.00000     0.40915    0.00193     0.41109
      H   17    0.08580      0.00000     0.41299    0.00121     0.41420
      H   18    0.08833      0.00000     0.41061    0.00106     0.41167
      H   19    0.08214      0.00000     0.41671    0.00115     0.41786
      H   20    0.09446      0.00000     0.40414    0.00139     0.40554
      H   21    0.09349      0.00000     0.40513    0.00138     0.40651
      H   22    0.08085      0.00000     0.41809    0.00106     0.41915
 =======================================================================
   * Total *    0.00000     11.99455    29.87520    0.13024    42.00000

 Normal termination of Gaussian 16 at Wed Dec  9 17:02:51 2020.
