 Gaussian 16, Revision A.03,

 -----------------------------------------------------------
 # opt freq B3LYP/6-31G(d) empiricaldispersion=gd3bj scf=xqc
 -----------------------------------------------------------

 ------------------------------
 CID_82007651_JID_9570_neutraal
 ------------------------------
 Symbolic Z-matrix:
 Charge =  0 Multiplicity = 1

 SCF Done:  E(RB3LYP) =  -861.089755435     A.U. after   15 cycles
 SCF Done:  E(RB3LYP) =  -861.093998352     A.U. after   14 cycles
 SCF Done:  E(RB3LYP) =  -861.094845128     A.U. after   14 cycles
 SCF Done:  E(RB3LYP) =  -861.093390394     A.U. after   16 cycles
 SCF Done:  E(RB3LYP) =  -861.095638904     A.U. after   14 cycles
 SCF Done:  E(RB3LYP) =  -861.096049078     A.U. after   14 cycles
 SCF Done:  E(RB3LYP) =  -861.096416023     A.U. after   13 cycles
 SCF Done:  E(RB3LYP) =  -861.096513553     A.U. after   12 cycles
 SCF Done:  E(RB3LYP) =  -861.096534917     A.U. after   11 cycles
 SCF Done:  E(RB3LYP) =  -861.096541838     A.U. after   10 cycles
 SCF Done:  E(RB3LYP) =  -861.096607241     A.U. after    7 cycles
 SCF Done:  E(RB3LYP) =  -861.096607650     A.U. after    9 cycles
 SCF Done:  E(RB3LYP) =  -861.096607721     A.U. after    7 cycles
 SCF Done:  E(RB3LYP) =  -861.096607758     A.U. after    6 cycles
 Optimization completed.
    -- Stationary point found.
 Normal termination of Gaussian 16 at Sun Dec 13 20:50:51 2020.

 --------------------------------------------------------------------
 #N Geom=AllCheck Guess=TCheck SCRF=Check GenChk RB3LYP/6-31G(d) Freq
 --------------------------------------------------------------------

 Structure from the checkpoint file:  "JID_9570.chk"
 ------------------------------
 CID_82007651_JID_9570_neutraal
 ------------------------------
 Charge =  0 Multiplicity = 1

 SCF Done:  E(RB3LYP) =  -861.096607758     A.U. after    1 cycles

  Exact polarizability: 152.474  -2.647 183.589 -34.374   5.903 153.034
 Approx polarizability: 211.597  -2.065 317.935 -64.503   6.386 260.532

                      1                      2                      3
                      A                      A                      A
 Frequencies --     12.0943                19.0516                25.2600
 Red. masses --      5.3241                 5.2232                 4.8415
 Frc consts  --      0.0005                 0.0011                 0.0018
 IR Inten    --      0.5302                 0.5585                 0.0557

                      4                      5                      6
                      A                      A                      A
 Frequencies --     35.1657                77.6701                94.4094
 Red. masses --      1.0229                 4.1828                 5.0685
 Frc consts  --      0.0007                 0.0149                 0.0266
 IR Inten    --      0.3802                 0.4651                 4.0595

                      7                      8                      9
                      A                      A                      A
 Frequencies --    107.9368               143.6392               183.3416
 Red. masses --      4.6814                 5.3751                 2.2420
 Frc consts  --      0.0321                 0.0653                 0.0444
 IR Inten    --      2.1901                 2.9031                 0.0242

                     10                     11                     12
                      A                      A                      A
 Frequencies --    206.0650               215.3176               229.0763
 Red. masses --      5.7575                 3.0753                 2.6144
 Frc consts  --      0.1440                 0.0840                 0.0808
 IR Inten    --      8.6459                 3.3420                 6.9675

                     13                     14                     15
                      A                      A                      A
 Frequencies --    233.6746               256.8561               274.3585
 Red. masses --      2.5438                 3.2731                 1.8241
 Frc consts  --      0.0818                 0.1272                 0.0809
 IR Inten    --      1.0174                 4.5098                 3.4954

                     16                     17                     18
                      A                      A                      A
 Frequencies --    295.8166               353.9657               380.4082
 Red. masses --      2.4551                 4.6687                 3.8495
 Frc consts  --      0.1266                 0.3446                 0.3282
 IR Inten    --      2.1010                 2.2164                 3.6848

                     19                     20                     21
                      A                      A                      A
 Frequencies --    408.6655               453.1900               468.1946
 Red. masses --      5.5951                 3.2573                 5.5821
 Frc consts  --      0.5506                 0.3942                 0.7209
 IR Inten    --      0.9738                 3.0884                 0.3569

                     22                     23                     24
                      A                      A                      A
 Frequencies --    488.7468               515.1976               544.7446
 Red. masses --      4.5135                 5.9258                 4.5179
 Frc consts  --      0.6352                 0.9267                 0.7899
 IR Inten    --      0.1668                 2.8882                 4.2842

                     25                     26                     27
                      A                      A                      A
 Frequencies --    569.7926               594.5079               609.4781
 Red. masses --      4.4047                 3.7860                 4.2930
 Frc consts  --      0.8426                 0.7884                 0.9396
 IR Inten    --      1.2840                 2.5039                 8.0926

                     28                     29                     30
                      A                      A                      A
 Frequencies --    617.3867               674.5864               694.0578
 Red. masses --      4.5055                 6.3619                 3.4365
 Frc consts  --      1.0118                 1.7057                 0.9753
 IR Inten    --      1.9028                13.2502                15.5077

                     31                     32                     33
                      A                      A                      A
 Frequencies --    714.9322               779.1702               787.5516
 Red. masses --      2.2304                 3.4196                 5.4347
 Frc consts  --      0.6717                 1.2232                 1.9860
 IR Inten    --      9.6826                 8.5589                26.0667

                     34                     35                     36
                      A                      A                      A
 Frequencies --    823.7834               857.7442               877.7539
 Red. masses --      1.5530                 1.4169                 1.5524
 Frc consts  --      0.6210                 0.6142                 0.7047
 IR Inten    --     21.2019                16.3521                33.1880

                     37                     38                     39
                      A                      A                      A
 Frequencies --    918.8891               928.2180               938.4512
 Red. masses --      1.4949                 2.5999                 1.7646
 Frc consts  --      0.7437                 1.3198                 0.9156
 IR Inten    --      6.5363                19.7078                 0.2632

                     40                     41                     42
                      A                      A                      A
 Frequencies --    943.0662               988.8348               994.4474
 Red. masses --      2.7221                 1.2958                 3.4430
 Frc consts  --      1.4264                 0.7465                 2.0061
 IR Inten    --     13.8351                 0.0270                20.6236

                     43                     44                     45
                      A                      A                      A
 Frequencies --   1012.6551              1021.4891              1030.6449
 Red. masses --      6.0595                 5.7721                 2.7769
 Frc consts  --      3.6611                 3.5485                 1.7379
 IR Inten    --     14.8530                20.0132                30.2526

                     46                     47                     48
                      A                      A                      A
 Frequencies --   1032.4749              1033.9841              1058.9036
 Red. masses --      2.7562                 1.9462                 1.9784
 Frc consts  --      1.7311                 1.2259                 1.3070
 IR Inten    --     56.0357                18.9567                13.1972

                     49                     50                     51
                      A                      A                      A
 Frequencies --   1072.4386              1104.9131              1109.6881
 Red. masses --      1.5897                 2.2867                 1.5034
 Frc consts  --      1.0772                 1.6448                 1.0907
 IR Inten    --     13.2589                35.4016                 7.8185

                     52                     53                     54
                      A                      A                      A
 Frequencies --   1171.3156              1185.1648              1194.3433
 Red. masses --      1.4528                 1.2704                 1.5382
 Frc consts  --      1.1744                 1.0513                 1.2927
 IR Inten    --     36.0085                 0.6935                42.6391

                     55                     56                     57
                      A                      A                      A
 Frequencies --   1196.9562              1230.7808              1244.8170
 Red. masses --      1.4523                 1.5894                 1.5237
 Frc consts  --      1.2259                 1.4185                 1.3911
 IR Inten    --     19.5457                34.0429                31.7471

                     58                     59                     60
                      A                      A                      A
 Frequencies --   1274.9329              1296.0675              1318.5655
 Red. masses --      2.3182                 1.9838                 1.5957
 Frc consts  --      2.2201                 1.9634                 1.6345
 IR Inten    --    114.7866                88.4520                21.8593

                     61                     62                     63
                      A                      A                      A
 Frequencies --   1327.9137              1367.5499              1385.1707
 Red. masses --      3.3123                 5.0571                 3.2365
 Frc consts  --      3.4413                 5.5724                 3.6588
 IR Inten    --     11.5355                 6.9208               109.1413

                     64                     65                     66
                      A                      A                      A
 Frequencies --   1416.4203              1429.7986              1439.5703
 Red. masses --      1.4596                 1.4147                 1.3634
 Frc consts  --      1.7254                 1.7040                 1.6647
 IR Inten    --     50.4329                 8.5945                15.4012

                     67                     68                     69
                      A                      A                      A
 Frequencies --   1462.9862              1486.2956              1495.1599
 Red. masses --      2.7703                 2.4960                 1.8643
 Frc consts  --      3.4935                 3.2487                 2.4555
 IR Inten    --      1.6744                12.1689                42.6615

                     70                     71                     72
                      A                      A                      A
 Frequencies --   1506.2315              1510.4103              1514.8412
 Red. masses --      1.0729                 1.3521                 1.2256
 Frc consts  --      1.4342                 1.8174                 1.6570
 IR Inten    --      5.3918                 2.1525                 7.9725

                     73                     74                     75
                      A                      A                      A
 Frequencies --   1522.1592              1531.3954              1533.8465
 Red. masses --      1.0479                 1.3669                 1.1282
 Frc consts  --      1.4306                 1.8887                 1.5638
 IR Inten    --      5.9516                48.2384                 8.8583

                     76                     77                     78
                      A                      A                      A
 Frequencies --   1535.2435              1628.3485              1641.6409
 Red. masses --      2.2339                 8.7919                 6.0985
 Frc consts  --      3.1022                13.7350                 9.6835
 IR Inten    --     27.4177                95.6232                47.3005

                     79                     80                     81
                      A                      A                      A
 Frequencies --   1656.6753              1659.6549              1800.7972
 Red. masses --      5.3565                 5.7887                 9.7250
 Frc consts  --      8.6618                 9.3944                18.5810
 IR Inten    --    198.2881                39.9546               238.6558

                     82                     83                     84
                      A                      A                      A
 Frequencies --   2907.8441              3037.8126              3039.9047
 Red. masses --      1.0838                 1.0342                 1.0687
 Frc consts  --      5.3992                 5.6230                 5.8187
 IR Inten    --    111.0207                40.5160                43.2390

                     85                     86                     87
                      A                      A                      A
 Frequencies --   3055.1160              3101.6860              3116.7695
 Red. masses --      1.0389                 1.1072                 1.0971
 Frc consts  --      5.7131                 6.2757                 6.2792
 IR Inten    --     17.2223                32.7421                13.7551

                     88                     89                     90
                      A                      A                      A
 Frequencies --   3144.6979              3146.3827              3170.5040
 Red. masses --      1.1036                 1.0970                 1.1009
 Frc consts  --      6.4303                 6.3982                 6.5199
 IR Inten    --     12.0929                19.4256                19.3724

                     91                     92                     93
                      A                      A                      A
 Frequencies --   3194.2773              3210.7147              3211.3817
 Red. masses --      1.0873                 1.0917                 1.0922
 Frc consts  --      6.5363                 6.6306                 6.6365
 IR Inten    --      9.5917                 6.1762                 4.4628

                     94                     95                     96
                      A                      A                      A
 Frequencies --   3224.5514              3225.3535              3233.1658
 Red. masses --      1.0919                 1.0937                 1.0904
 Frc consts  --      6.6890                 6.7037                 6.7158
 IR Inten    --      1.8973                 5.7159                 6.6315

 - Thermochemistry -
 -------------------
 Temperature   298.150 Kelvin.  Pressure   1.00000 Atm.
 Atom     1 has atomic number  6 and mass  12.00000

 Molecular mass:   257.10519 amu.
 Principal axes and moments of inertia in atomic units:
                           1         2         3
     Eigenvalues --  4007.893166212.743347425.89787
           X            0.99913  -0.03356  -0.02492
           Y            0.03323   0.99936  -0.01351
           Z            0.02536   0.01267   0.99960
 This molecule is an asymmetric top.
 Rotational symmetry number  1.
 Warning -- assumption of classical behavior for rotation
           may cause significant error
 Rotational temperatures (Kelvin)      0.02161     0.01394     0.01166
 Rotational constants (GHZ):           0.45030     0.29049     0.24303
 Zero-point vibrational energy     716550.6 (Joules/Mol)
                                  171.25970 (Kcal/Mol)
 Warning -- explicit consideration of  28 degrees of freedom as
           vibrations may cause significant error
 Vibrational temperatures:     17.40    27.41    36.34    50.60   111.75
          (Kelvin)            135.83   155.30   206.66   263.79   296.48
                              309.79   329.59   336.21   369.56   394.74
                              425.61   509.28   547.32   587.98   652.04
                              673.63   703.20   741.25   783.77   819.80
                              855.36   876.90   888.28   970.58   998.59
                             1028.63  1121.05  1133.11  1185.24  1234.10
                             1262.89  1322.08  1335.50  1350.22  1356.86
                             1422.71  1430.79  1456.98  1469.69  1482.87
                             1485.50  1487.67  1523.53  1543.00  1589.72
                             1596.59  1685.26  1705.19  1718.39  1722.15
                             1770.82  1791.01  1834.34  1864.75  1897.12
                             1910.57  1967.60  1992.95  2037.91  2057.16
                             2071.22  2104.91  2138.45  2151.20  2167.13
                             2173.14  2179.52  2190.05  2203.34  2206.86
                             2208.87  2342.83  2361.96  2383.59  2387.87
                             2590.95  4183.74  4370.73  4373.74  4395.63
                             4462.63  4484.34  4524.52  4526.94  4561.65
                             4595.85  4619.50  4620.46  4639.41  4640.56
                             4651.80

 Zero-point correction=                           0.272920 (Hartree/Particle)
 Thermal correction to Energy=                    0.290546
 Thermal correction to Enthalpy=                  0.291490
 Thermal correction to Gibbs Free Energy=         0.223685
 Sum of electronic and zero-point Energies=           -860.823688
 Sum of electronic and thermal Energies=              -860.806062
 Sum of electronic and thermal Enthalpies=            -860.805118
 Sum of electronic and thermal Free Energies=         -860.872922

                     E (Thermal)             CV                S
                      KCal/Mol        Cal/Mol-Kelvin    Cal/Mol-Kelvin
 Total                  182.320             65.268            142.707
 Electronic               0.000              0.000              0.000
 Translational            0.889              2.981             42.533
 Rotational               0.889              2.981             33.580
 Vibrational            180.543             59.306             66.594
 Vibration     1          0.593              1.987              7.633
 Vibration     2          0.593              1.986              6.731
 Vibration     3          0.593              1.985              6.171
 Vibration     4          0.594              1.982              5.514
 Vibration     5          0.599              1.964              3.949
 Vibration     6          0.603              1.953              3.567
 Vibration     7          0.606              1.943              3.306
 Vibration     8          0.616              1.910              2.755
 Vibration     9          0.631              1.862              2.294
 Vibration    10          0.641              1.831              2.078
 Vibration    11          0.645              1.818              1.998
 Vibration    12          0.652              1.797              1.886
 Vibration    13          0.654              1.789              1.851
 Vibration    14          0.666              1.751              1.683
 Vibration    15          0.677              1.721              1.569
 Vibration    16          0.690              1.682              1.440
 Vibration    17          0.730              1.567              1.148
 Vibration    18          0.750              1.512              1.038
 Vibration    19          0.773              1.451              0.931
 Vibration    20          0.812              1.354              0.786
 Vibration    21          0.825              1.321              0.743
 Vibration    22          0.845              1.275              0.687
 Vibration    23          0.870              1.216              0.621
 Vibration    24          0.900              1.151              0.555
 Vibration    25          0.926              1.097              0.505
 Vibration    26          0.952              1.043              0.459
 Vibration    27          0.968              1.012              0.434
 Vibration    28          0.977              0.995              0.421

 Optimization completed.
    -- Stationary point found.
 Normal termination of Gaussian 16 at Sun Dec 13 21:06:52 2020.

 ----------------------------------------------------------------------
 # B3LYP/6-311++G(d,p) empiricaldispersion=gd3bj scf=xqc pop=npa geom=c
 heck
 ----------------------------------------------------------------------

 --------------------------------------
 CID_82007651_JID_9570_Energie_neutraal
 --------------------------------------
 Structure from the checkpoint file:  "JID_9570.chk"
 Charge =  0 Multiplicity = 1

 SCF Done:  E(RB3LYP) =  -861.330052898     A.U. after   16 cycles
 Normal termination of Gaussian 16 at Sun Dec 13 21:14:02 2020.

 ----------------------------------------------------------------------
 # B3LYP/6-311++G(d,p) empiricaldispersion=gd3bj scf=xqc pop=npa geom=c
 heck
 ----------------------------------------------------------------------

 ------------------------------------
 CID_82007651_JID_9570_Energie_kation
 ------------------------------------
 Structure from the checkpoint file:  "JID_9570.chk"
 Charge =  1 Multiplicity = 2

 SCF Done:  E(UB3LYP) =  -861.018059692     A.U. after   33 cycles
 SCF Done:  E(UB3LYP) =  -861.018059692     a.u. after    1 cycles
 Normal termination of Gaussian 16 at Sun Dec 13 21:35:03 2020.
 Gaussian 16:  ES64L-G16RevA.03 25-Dec-2016

 ----------------------------------------------------------------------
 # B3LYP/6-311++G(d,p) empiricaldispersion=gd3bj scf=xqc pop=npa geom=c
 heck
 ----------------------------------------------------------------------

 -----------------------------------
 CID_82007651_JID_9570_Energie_anion
 -----------------------------------
 Structure from the checkpoint file:  "JID_9570.chk"
 Charge = -1 Multiplicity = 2

                         Standard orientation:
 ---------------------------------------------------------------------
 Center     Atomic      Atomic             Coordinates (Angstroms)
 Number     Number       Type             X           Y           Z
 ---------------------------------------------------------------------
      1          6           0       -3.145055   -0.603950    2.464822
      2          6           0       -2.448914   -0.544979    1.128689
      3          6           0       -2.658091    0.537382    0.261473
      4          6           0       -2.016198    0.535754   -0.978534
      5          6           0       -1.185182   -0.546240   -1.298201
      6          6           0       -1.033722   -1.564212   -0.366861
      7          7           0       -1.650540   -1.576020    0.828751
      8          6           0       -0.063264   -2.694224   -0.618140
      9          8           0        1.130468   -2.566866    0.178879
     10          6           0        1.814931   -1.386473   -0.009893
     11          6           0        2.755100   -1.274125   -1.036137
     12          6           0        3.460032   -0.078509   -1.212952
     13          6           0        3.222788    1.004427   -0.374197
     14          6           0        2.279185    0.888053    0.657498
     15          6           0        1.578367   -0.307500    0.841243
     16          6           0        2.000536    2.032653    1.550047
     17          8           0        2.528068    3.125534    1.464871
     18          8           0       -2.119539    1.511662   -1.910647
     19          6           0       -2.916262    2.649556   -1.603352
     20          1           0       -3.972438   -1.323350    2.430908
     21          1           0       -2.450116   -0.949255    3.235563
     22          1           0       -3.552135    0.368887    2.756119
     23          1           0       -3.308354    1.348376    0.564997
     24          1           0       -0.655710   -0.553887   -2.244316
     25          1           0       -0.499292   -3.646184   -0.310792
     26          1           0        0.205243   -2.740231   -1.682204
     27          1           0        2.931541   -2.129031   -1.682143
     28          1           0        4.193852   -0.000821   -2.009998
     29          1           0        3.750641    1.944779   -0.493172
     30          1           0        0.837864   -0.410276    1.628625
     31          1           0        1.240925    1.827267    2.337117
     32          1           0       -3.964288    2.369771   -1.439959
     33          1           0       -2.536022    3.172928   -0.717684
     34          1           0       -2.845412    3.304848   -2.472170
 ---------------------------------------------------------------------

 SCF Done:  E(UB3LYP) =  -861.343105519     A.U. after   33 cycles
 SCF Done:  E(UB3LYP) =  -861.343105519     a.u. after    1 cycles

 The electronic state is 2-A.
 Alpha  occ. eigenvalues --  -19.07726 -19.02206 -18.93751 -14.20547 -10.15783
 Alpha  occ. eigenvalues --  -10.14363 -10.12636 -10.12351 -10.11573 -10.09114
 Alpha  occ. eigenvalues --  -10.08628 -10.08191 -10.08142 -10.07364 -10.04572
 Alpha  occ. eigenvalues --  -10.03436 -10.03337 -10.02989 -10.02826  -0.99436
 Alpha  occ. eigenvalues --   -0.93791  -0.87363  -0.84962  -0.72072  -0.71375
 Alpha  occ. eigenvalues --   -0.70216  -0.63884  -0.63091  -0.62337  -0.61285
 Alpha  occ. eigenvalues --   -0.57933  -0.51680  -0.51065  -0.50001  -0.47378
 Alpha  occ. eigenvalues --   -0.44738  -0.43445  -0.41536  -0.39250  -0.38508
 Alpha  occ. eigenvalues --   -0.37839  -0.36684  -0.36216  -0.35965  -0.34218
 Alpha  occ. eigenvalues --   -0.33952  -0.33540  -0.32445  -0.31206  -0.30826
 Alpha  occ. eigenvalues --   -0.29499  -0.29206  -0.28913  -0.26941  -0.26376
 Alpha  occ. eigenvalues --   -0.25485  -0.25227  -0.24464  -0.23185  -0.22268
 Alpha  occ. eigenvalues --   -0.21002  -0.17332  -0.16632  -0.16100  -0.15693
 Alpha  occ. eigenvalues --   -0.12743  -0.11594  -0.09610   0.03742
 Alpha virt. eigenvalues --    0.05222   0.06783   0.06954   0.07242   0.08092
 Alpha virt. eigenvalues --    0.08859   0.09233   0.09900   0.10506   0.11046
 Alpha virt. eigenvalues --    0.11080   0.11744   0.12125   0.12219   0.13071

  Beta  occ. eigenvalues --  -19.07717 -19.02205 -18.93254 -14.20530 -10.15770
  Beta  occ. eigenvalues --  -10.14335 -10.12639 -10.12351 -10.11569 -10.09140
  Beta  occ. eigenvalues --  -10.08613 -10.08186 -10.08143 -10.07097 -10.04638
  Beta  occ. eigenvalues --  -10.03207 -10.03169 -10.02833 -10.02739  -0.99416
  Beta  occ. eigenvalues --   -0.93782  -0.86460  -0.84941  -0.71818  -0.71348
  Beta  occ. eigenvalues --   -0.70181  -0.63827  -0.63041  -0.61923  -0.61162
  Beta  occ. eigenvalues --   -0.57767  -0.51556  -0.50973  -0.49351  -0.47283
  Beta  occ. eigenvalues --   -0.44650  -0.43395  -0.41364  -0.39216  -0.38455
  Beta  occ. eigenvalues --   -0.37562  -0.36635  -0.36134  -0.35869  -0.34172
  Beta  occ. eigenvalues --   -0.33918  -0.33388  -0.32397  -0.31099  -0.30811
  Beta  occ. eigenvalues --   -0.29444  -0.29130  -0.28784  -0.26493  -0.26140
  Beta  occ. eigenvalues --   -0.25236  -0.24986  -0.23449  -0.22952  -0.21943
  Beta  occ. eigenvalues --   -0.19659  -0.17283  -0.16592  -0.16051  -0.15625
  Beta  occ. eigenvalues --   -0.11692  -0.10395  -0.09169
  Beta virt. eigenvalues --    0.05758   0.06868   0.06966   0.07292   0.08075
  Beta virt. eigenvalues --    0.09050   0.09220   0.09426   0.09962   0.10486
  Beta virt. eigenvalues --    0.10975   0.11118   0.11802   0.12207   0.12289

 Mulliken charges and spin densities:
               1          2
     1  C   -0.308548  -0.281634
     2  C   -0.536114   0.052335
     3  C    0.851242   0.068390
     4  C   -0.511929  -0.159468
     5  C   -0.451225  -0.074885
     6  C    0.655057   0.056259
     7  N    0.069177   0.012928
     8  C   -0.608053   0.015231
     9  O   -0.085051  -0.001585
    10  C   -0.372480  -0.048779
    11  C   -0.017298   0.231218
    12  C   -0.158372  -0.044190
    13  C   -0.423885   0.149458
    14  C    0.638197   0.093124
    15  C   -0.105111   0.086062
    16  C   -0.541532   0.165611
    17  O   -0.371363   0.166445
    18  O   -0.134508   0.023168
    19  C    0.209967  -0.512794
    20  H    0.141070   0.020009
    21  H    0.139566   0.020188
    22  H    0.045766   0.090584
    23  H   -0.122312   0.321288
    24  H    0.162087   0.010932
    25  H    0.174540  -0.000531
    26  H    0.126791   0.002603
    27  H    0.124081  -0.019214
    28  H    0.132193   0.004884
    29  H    0.160537  -0.010201
    30  H    0.180953  -0.007045
    31  H    0.035593  -0.016187
    32  H   -0.152822   0.306683
    33  H    0.065463   0.102509
    34  H   -0.011677   0.176605
 Sum of Mulliken charges =  -1.00000   1.00000

 Dipole moment (field-independent basis, Debye):
    X=             -6.0680    Y=             -4.4975    Z=             -3.0969  Tot=              8.1633
 Quadrupole moment (field-independent basis, Debye-Ang):
   XX=           -161.0510   YY=           -153.6786   ZZ=           -128.0670
   XY=             -9.1552   XZ=            -10.9946   YZ=             -3.5939

 Summary of Natural Population Analysis:

                                       Natural Population
                Natural  -----------------------------------------------
    Atom  No    Charge         Core      Valence    Rydberg      Total
 -----------------------------------------------------------------------
      C    1   -0.29671      0.99963     2.29198    0.00510     3.29671
      C    2    0.11563      0.99957     1.87104    0.01376     2.88437
      C    3   -0.16678      0.99946     2.15920    0.00811     3.16678
      C    4    0.18438      0.99939     1.80244    0.01379     2.81562
      C    5   -0.13368      0.99946     2.12461    0.00962     3.13368
      C    6    0.09672      0.99953     1.88901    0.01474     2.90328
      N    7   -0.25135      0.99965     2.74047    0.01123     3.75135
      C    8   -0.01532      0.99952     2.00469    0.01111     3.01532
      O    9   -0.29034      0.99986     3.28083    0.00965     4.29034
      C   10    0.12898      0.99936     1.85684    0.01482     2.87102
      C   11   -0.07274      0.99951     2.06487    0.00836     3.07274
      C   12   -0.12220      0.99958     2.11404    0.00858     3.12220
      C   13   -0.05724      0.99953     2.04927    0.00844     3.05724
      C   14   -0.06008      0.99949     2.04890    0.01169     3.06008
      C   15   -0.08075      0.99948     2.07133    0.00994     3.08075
      C   16    0.23973      0.99968     1.74033    0.02026     2.76027
      O   17   -0.24690      0.99988     3.23951    0.00750     4.24690
      O   18   -0.26527      0.99985     3.25632    0.00910     4.26527
      C   19   -0.10283      0.99960     2.09445    0.00878     3.10283
      H   20    0.10416      0.00000     0.39482    0.00102     0.39584
      H   21    0.11027      0.00000     0.38876    0.00097     0.38973
      H   22    0.09936      0.00000     0.39988    0.00076     0.40064
      H   23    0.10692      0.00000     0.39184    0.00124     0.39308
      H   24    0.11180      0.00000     0.38701    0.00119     0.38820
      H   25    0.09520      0.00000     0.40377    0.00103     0.40480
      H   26    0.08110      0.00000     0.41783    0.00106     0.41890
      H   27    0.09234      0.00000     0.40667    0.00099     0.40766
      H   28    0.09124      0.00000     0.40773    0.00103     0.40876
      H   29    0.10304      0.00000     0.39573    0.00123     0.39696
      H   30    0.10110      0.00000     0.39732    0.00158     0.39890
      H   31    0.03097      0.00000     0.46654    0.00249     0.46903
      H   32    0.08482      0.00000     0.41380    0.00138     0.41518
      H   33    0.09021      0.00000     0.40870    0.00108     0.40979
      H   34    0.09421      0.00000     0.40499    0.00080     0.40579
 =======================================================================
   * Total *   -0.00000     18.99205    48.78549    0.22246    68.00000

 Normal termination of Gaussian 16 at Sun Dec 13 21:56:24 2020.
