 Gaussian 16, Revision A.03,

 -----------------------------------------------------------
 # opt freq B3LYP/6-31G(d) empiricaldispersion=gd3bj scf=xqc
 -----------------------------------------------------------

 -------------------------------
 CID_129764637_JID_3851_neutraal
 -------------------------------
 Symbolic Z-matrix:
 Charge =  0 Multiplicity = 1

 SCF Done:  E(RB3LYP) =  -988.803773065     A.U. after   17 cycles
 SCF Done:  E(RB3LYP) =  -988.809052292     A.U. after   15 cycles
 SCF Done:  E(RB3LYP) =  -988.804912338     A.U. after   15 cycles
 SCF Done:  E(RB3LYP) =  -988.808500095     A.U. after   15 cycles
 SCF Done:  E(RB3LYP) =  -988.809791480     A.U. after   11 cycles
 SCF Done:  E(RB3LYP) =  -988.810350888     A.U. after   14 cycles
 SCF Done:  E(RB3LYP) =  -988.810951917     A.U. after   16 cycles
 SCF Done:  E(RB3LYP) =  -988.811755528     A.U. after   15 cycles
 SCF Done:  E(RB3LYP) =  -988.811318403     A.U. after   14 cycles
 SCF Done:  E(RB3LYP) =  -988.812587004     A.U. after   15 cycles
 SCF Done:  E(RB3LYP) =  -988.813049534     A.U. after   11 cycles
 SCF Done:  E(RB3LYP) =  -988.813052346     A.U. after   10 cycles
 SCF Done:  E(RB3LYP) =  -988.813056484     A.U. after   10 cycles
 SCF Done:  E(RB3LYP) =  -988.813058058     A.U. after   10 cycles
 SCF Done:  E(RB3LYP) =  -988.813058417     A.U. after    9 cycles
 Optimization completed.
    -- Stationary point found.
 Normal termination of Gaussian 16 at Mon Dec 14 18:46:17 2020.

 --------------------------------------------------------------------
 #N Geom=AllCheck Guess=TCheck SCRF=Check GenChk RB3LYP/6-31G(d) Freq
 --------------------------------------------------------------------

 Structure from the checkpoint file:  "JID_3851.chk"
 -------------------------------
 CID_129764637_JID_3851_neutraal
 -------------------------------
 Charge =  0 Multiplicity = 1

 SCF Done:  E(RB3LYP) =  -988.813058417     A.U. after    1 cycles

  Exact polarizability: 118.794   2.375 113.638  11.104  -6.961  86.130
 Approx polarizability: 185.219  -1.856 214.064  17.179 -18.783 140.764

                      1                      2                      3
                      A                      A                      A
 Frequencies --     41.9502                52.9174                65.8081
 Red. masses --      8.0289                 7.6317                 5.9570
 Frc consts  --      0.0083                 0.0126                 0.0152
 IR Inten    --      0.0638                 0.0827                 0.0929

                      4                      5                      6
                      A                      A                      A
 Frequencies --     82.7894               102.2358               127.9176
 Red. masses --      4.6393                 4.8932                 1.3207
 Frc consts  --      0.0187                 0.0301                 0.0127
 IR Inten    --     10.1536                 0.5870                 0.9431

                      7                      8                      9
                      A                      A                      A
 Frequencies --    190.6422               210.1060               231.7651
 Red. masses --      4.5519                 7.3369                 3.7434
 Frc consts  --      0.0975                 0.1908                 0.1185
 IR Inten    --      1.2552                 1.2379                 9.0302

                     10                     11                     12
                      A                      A                      A
 Frequencies --    306.4811               346.9085               402.9006
 Red. masses --      4.8936                 2.3242                 6.0135
 Frc consts  --      0.2708                 0.1648                 0.5751
 IR Inten    --      0.3208                 1.7882                 1.6890

                     13                     14                     15
                      A                      A                      A
 Frequencies --    468.8214               479.9239               526.3433
 Red. masses --      4.3178                 5.5517                 3.5410
 Frc consts  --      0.5591                 0.7534                 0.5780
 IR Inten    --     14.9523                 1.2021                12.2667

                     16                     17                     18
                      A                      A                      A
 Frequencies --    561.2950               582.5298               618.7256
 Red. masses --      4.7109                 3.2014                 4.7786
 Frc consts  --      0.8745                 0.6401                 1.0778
 IR Inten    --      2.2469                 0.1424                10.7370

                     19                     20                     21
                      A                      A                      A
 Frequencies --    660.1764               689.7505               715.4487
 Red. masses --      4.9330                 3.6767                 1.2592
 Frc consts  --      1.2667                 1.0306                 0.3798
 IR Inten    --      0.1585                 3.1343                68.9522

                     22                     23                     24
                      A                      A                      A
 Frequencies --    742.5377               751.7570               826.6964
 Red. masses --      3.9818                 6.7458                 2.4444
 Frc consts  --      1.2935                 2.2462                 0.9843
 IR Inten    --      0.5830                 1.2082                 3.6639

                     25                     26                     27
                      A                      A                      A
 Frequencies --    852.7700               868.1405               877.1070
 Red. masses --      1.8190                 3.2765                 4.6003
 Frc consts  --      0.7794                 1.4549                 2.0852
 IR Inten    --      3.6611                 5.9557                29.4452

                     28                     29                     30
                      A                      A                      A
 Frequencies --    914.1327               973.7308               985.0045
 Red. masses --      1.3353                 2.4131                 2.3518
 Frc consts  --      0.6574                 1.3480                 1.3444
 IR Inten    --      0.7208                 5.7069                 1.1801

                     31                     32                     33
                      A                      A                      A
 Frequencies --   1054.4739              1059.0530              1077.8195
 Red. masses --      2.1198                 1.7859                 1.5852
 Frc consts  --      1.3887                 1.1802                 1.0850
 IR Inten    --      2.1373                 5.2929                 4.4368

                     34                     35                     36
                      A                      A                      A
 Frequencies --   1116.2032              1167.4205              1230.5834
 Red. masses --      1.1995                 2.4038                 2.7653
 Frc consts  --      0.8805                 1.9302                 2.4672
 IR Inten    --      1.2774                23.4855                33.6641

                     37                     38                     39
                      A                      A                      A
 Frequencies --   1243.3103              1262.1683              1306.9680
 Red. masses --      1.6555                 1.4638                 1.2849
 Frc consts  --      1.5078                 1.3739                 1.2931
 IR Inten    --     22.9749                 8.8003                 1.6606

                     40                     41                     42
                      A                      A                      A
 Frequencies --   1336.7100              1378.9668              1410.3409
 Red. masses --      1.3507                 1.4559                 2.2089
 Frc consts  --      1.4220                 1.6311                 2.5886
 IR Inten    --      7.9126                23.5834                 4.2877

                     43                     44                     45
                      A                      A                      A
 Frequencies --   1415.0396              1427.6375              1491.5320
 Red. masses --      1.3076                 7.6501                 1.1145
 Frc consts  --      1.5426                 9.1866                 1.4608
 IR Inten    --     43.7995                68.7162                28.1470

                     46                     47                     48
                      A                      A                      A
 Frequencies --   1496.4534              1497.7997              1501.7433
 Red. masses --      1.1069                 1.0970                 4.1644
 Frc consts  --      1.4605                 1.4500                 5.5334
 IR Inten    --     12.2070                17.2896                 8.2410

                     49                     50                     51
                      A                      A                      A
 Frequencies --   1601.9499              1656.6599              1823.8366
 Red. masses --      5.3096                12.1066                10.9635
 Frc consts  --      8.0281                19.5767                21.4869
 IR Inten    --      0.6714               257.1754               130.1902

                     52                     53                     54
                      A                      A                      A
 Frequencies --   3067.6153              3086.6654              3125.1827
 Red. masses --      1.0362                 1.0609                 1.0848
 Frc consts  --      5.7451                 5.9551                 6.2422
 IR Inten    --      0.1494                 9.0041                 2.0170

                     55                     56                     57
                      A                      A                      A
 Frequencies --   3134.5142              3134.9128              3178.5805
 Red. masses --      1.0993                 1.1037                 1.1039
 Frc consts  --      6.3635                 6.3910                 6.5713
 IR Inten    --      0.5999                 2.3168                 4.1986

                     58                     59                     60
                      A                      A                      A
 Frequencies --   3216.3681              3231.7631              3270.3983
 Red. masses --      1.0897                 1.0945                 1.0973
 Frc consts  --      6.6418                 6.7353                 6.9150
 IR Inten    --      4.8905                 4.9903                 1.0549

 - Thermochemistry -
 -------------------
 Temperature   298.150 Kelvin.  Pressure   1.00000 Atm.
 Atom     1 has atomic number  6 and mass  12.00000

 Molecular mass:   199.03032 amu.
 Principal axes and moments of inertia in atomic units:
                           1         2         3
     Eigenvalues --  1649.326072994.785883747.71546
           X            0.99996   0.00660   0.00589
           Y           -0.00671   0.99981   0.01829
           Z           -0.00577  -0.01833   0.99982
 This molecule is an asymmetric top.
 Rotational symmetry number  1.
 Warning -- assumption of classical behavior for rotation
           may cause significant error
 Rotational temperatures (Kelvin)      0.05251     0.02892     0.02311
 Rotational constants (GHZ):           1.09423     0.60263     0.48156
 Zero-point vibrational energy     432210.7 (Joules/Mol)
                                  103.30083 (Kcal/Mol)
 Warning -- explicit consideration of  18 degrees of freedom as
           vibrations may cause significant error
 Vibrational temperatures:     60.36    76.14    94.68   119.12   147.09
          (Kelvin)            184.04   274.29   302.30   333.46   440.96
                              499.12   579.68   674.53   690.50   757.29
                              807.58   838.13   890.21   949.85   992.40
                             1029.37  1068.35  1081.61  1189.43  1226.95
                             1249.06  1261.96  1315.23  1400.98  1417.20
                             1517.15  1523.74  1550.74  1605.97  1679.66
                             1770.54  1788.85  1815.98  1880.44  1923.23
                             1984.03  2029.17  2035.93  2054.05  2145.98
                             2153.06  2155.00  2160.67  2304.85  2383.56
                             2624.09  4413.61  4441.02  4496.44  4509.87
                             4510.44  4573.27  4627.64  4649.79  4705.37

 Zero-point correction=                           0.164620 (Hartree/Particle)
 Thermal correction to Energy=                    0.177205
 Thermal correction to Enthalpy=                  0.178149
 Thermal correction to Gibbs Free Energy=         0.124167
 Sum of electronic and zero-point Energies=           -988.648438
 Sum of electronic and thermal Energies=              -988.635853
 Sum of electronic and thermal Enthalpies=            -988.634909
 Sum of electronic and thermal Free Energies=         -988.688891

                     E (Thermal)             CV                S
                      KCal/Mol        Cal/Mol-Kelvin    Cal/Mol-Kelvin
 Total                  111.198             45.529            113.615
 Electronic               0.000              0.000              0.000
 Translational            0.889              2.981             41.770
 Rotational               0.889              2.981             31.293
 Vibrational            109.420             39.568             40.552
 Vibration     1          0.595              1.980              5.165
 Vibration     2          0.596              1.976              4.705
 Vibration     3          0.597              1.971              4.275
 Vibration     4          0.600              1.961              3.824
 Vibration     5          0.604              1.947              3.411
 Vibration     6          0.611              1.925              2.977
 Vibration     7          0.634              1.853              2.222
 Vibration     8          0.642              1.825              2.043
 Vibration     9          0.653              1.792              1.865
 Vibration    10          0.697              1.661              1.381
 Vibration    11          0.725              1.582              1.180
 Vibration    12          0.768              1.464              0.952
 Vibration    13          0.826              1.319              0.741
 Vibration    14          0.836              1.295              0.710
 Vibration    15          0.881              1.192              0.595
 Vibration    16          0.917              1.115              0.521
 Vibration    17          0.939              1.069              0.481
 Vibration    18          0.979              0.992              0.419

 Optimization completed.
    -- Stationary point found.
 Normal termination of Gaussian 16 at Mon Dec 14 18:51:50 2020.

 ----------------------------------------------------------------------
 # B3LYP/6-311++G(d,p) empiricaldispersion=gd3bj scf=xqc pop=npa geom=c
 heck
 ----------------------------------------------------------------------

 ---------------------------------------
 CID_129764637_JID_3851_Energie_neutraal
 ---------------------------------------
 Structure from the checkpoint file:  "JID_3851.chk"
 Charge =  0 Multiplicity = 1

 SCF Done:  E(RB3LYP) =  -989.013479315     A.U. after   18 cycles
 Normal termination of Gaussian 16 at Mon Dec 14 18:54:35 2020.

 ----------------------------------------------------------------------
 # B3LYP/6-311++G(d,p) empiricaldispersion=gd3bj scf=xqc pop=npa geom=c
 heck
 ----------------------------------------------------------------------

 -------------------------------------
 CID_129764637_JID_3851_Energie_kation
 -------------------------------------
 Structure from the checkpoint file:  "JID_3851.chk"
 Charge =  1 Multiplicity = 2

 SCF Done:  E(UB3LYP) =  -988.691053732     A.U. after   30 cycles
 Normal termination of Gaussian 16 at Mon Dec 14 19:01:04 2020.
 Gaussian 16:  ES64L-G16RevA.03 25-Dec-2016

 ----------------------------------------------------------------------
 # B3LYP/6-311++G(d,p) empiricaldispersion=gd3bj scf=xqc pop=npa geom=c
 heck
 ----------------------------------------------------------------------

 ------------------------------------
 CID_129764637_JID_3851_Energie_anion
 ------------------------------------
 Structure from the checkpoint file:  "JID_3851.chk"
 Charge = -1 Multiplicity = 2

                         Standard orientation:
 ---------------------------------------------------------------------
 Center     Atomic      Atomic             Coordinates (Angstroms)
 Number     Number       Type             X           Y           Z
 ---------------------------------------------------------------------
      1          6           0       -1.038757    1.160332    1.662720
      2          6           0       -1.339980    1.395481    0.206138
      3          8           0       -1.403825    2.494979   -0.300803
      4          6           0       -1.499991    0.186927   -0.748255
      5          6           0       -0.215174   -0.021583   -1.568534
      6          6           0        1.056134    0.036593   -0.769909
      7          6           0        1.866746    1.131865   -0.611746
      8          6           0        2.982278    0.895702    0.247419
      9          6           0        3.005307   -0.381561    0.733578
     10         16           0        1.660321   -1.315671    0.158585
     11          7           0       -1.941177   -1.061334   -0.016786
     12          8           0       -2.971278   -0.952753    0.643983
     13          8           0       -1.282177   -2.089335   -0.136555
     14          1           0       -0.768418    2.110832    2.124765
     15          1           0       -0.218878    0.441488    1.771178
     16          1           0       -1.915842    0.737974    2.163452
     17          1           0       -2.341807    0.410639   -1.407428
     18          1           0       -0.304203   -0.956193   -2.128142
     19          1           0       -0.192709    0.797878   -2.293405
     20          1           0        1.661038    2.082291   -1.092770
     21          1           0        3.730644    1.642953    0.486051
     22          1           0        3.732146   -0.833460    1.394964
 ---------------------------------------------------------------------

 SCF Done:  E(UB3LYP) =  -989.036287295     A.U. after   33 cycles
 SCF Done:  E(UB3LYP) =  -989.036287295     a.u. after    1 cycles

 The electronic state is 2-A.
 Alpha  occ. eigenvalues --  -88.75741 -18.99660 -18.93588 -18.93252 -14.28856
 Alpha  occ. eigenvalues --  -10.14449 -10.08735 -10.08309 -10.08284 -10.06808
 Alpha  occ. eigenvalues --  -10.06793 -10.06031 -10.04869  -7.84289  -5.80573
 Alpha  occ. eigenvalues --   -5.80191  -5.79915  -1.01334  -0.93223  -0.84397
 Alpha  occ. eigenvalues --   -0.76837  -0.69061  -0.63064  -0.62072  -0.60905
 Alpha  occ. eigenvalues --   -0.54693  -0.46713  -0.45166  -0.43151  -0.40659
 Alpha  occ. eigenvalues --   -0.38081  -0.36659  -0.35796  -0.33940  -0.31655
 Alpha  occ. eigenvalues --   -0.30811  -0.30647  -0.30106  -0.29259  -0.28481
 Alpha  occ. eigenvalues --   -0.27307  -0.25990  -0.25237  -0.24518  -0.23136
 Alpha  occ. eigenvalues --   -0.22197  -0.14429  -0.14255  -0.12703  -0.12312
 Alpha  occ. eigenvalues --   -0.10723  -0.09420   0.04772
 Alpha virt. eigenvalues --    0.07655   0.08358   0.09291   0.09423   0.10095
 Alpha virt. eigenvalues --    0.10533   0.11894   0.12319   0.13535   0.13860
 Alpha virt. eigenvalues --    0.14158   0.14697   0.15115   0.15686   0.16381

  Beta  occ. eigenvalues --  -88.75735 -18.99651 -18.93056 -18.92754 -14.27765
  Beta  occ. eigenvalues --  -10.14395 -10.08671 -10.08340 -10.08256 -10.06807
  Beta  occ. eigenvalues --  -10.06795 -10.06025 -10.04866  -7.84285  -5.80570
  Beta  occ. eigenvalues --   -5.80190  -5.79895  -0.99870  -0.93188  -0.83393
  Beta  occ. eigenvalues --   -0.76772  -0.68890  -0.62956  -0.62032  -0.60724
  Beta  occ. eigenvalues --   -0.54348  -0.45853  -0.44996  -0.42973  -0.40412
  Beta  occ. eigenvalues --   -0.37843  -0.35846  -0.34911  -0.33520  -0.31291
  Beta  occ. eigenvalues --   -0.30403  -0.30275  -0.29147  -0.28751  -0.27563
  Beta  occ. eigenvalues --   -0.27132  -0.25708  -0.25132  -0.24237  -0.22890
  Beta  occ. eigenvalues --   -0.22092  -0.14231  -0.14064  -0.12080  -0.10315
  Beta  occ. eigenvalues --   -0.09245  -0.08929
  Beta virt. eigenvalues --    0.07609   0.08464   0.09364   0.09532   0.10030
  Beta virt. eigenvalues --    0.10437   0.11743   0.12289   0.13479   0.13648
  Beta virt. eigenvalues --    0.14106   0.14614   0.15169   0.15511   0.15825

 Mulliken charges and spin densities:
               1          2
     1  C   -0.501197  -0.034207
     2  C   -0.060364  -0.109721
     3  O   -0.267091   0.006922
     4  C    0.833766  -0.155754
     5  C   -0.821644  -0.276114
     6  C    0.347594   0.183840
     7  C   -0.079870   0.032175
     8  C   -0.517286   0.003636
     9  C   -0.161850   0.026383
    10  S   -0.091062   0.027790
    11  N   -0.362079   0.316099
    12  O   -0.211079   0.210702
    13  O   -0.211199   0.217369
    14  H    0.112491   0.011905
    15  H    0.127404   0.015536
    16  H    0.176433   0.023182
    17  H   -0.051988   0.357049
    18  H    0.113562   0.102925
    19  H    0.133132   0.027696
    20  H    0.156269   0.014467
    21  H    0.119067   0.000204
    22  H    0.216989  -0.002081
 Sum of Mulliken charges =  -1.00000   1.00000

 Dipole moment (field-independent basis, Debye):
    X=              7.2581    Y=              3.1210    Z=              0.2323  Tot=              7.9041
 Quadrupole moment (field-independent basis, Debye-Ang):
   XX=           -118.2685   YY=           -112.1115   ZZ=            -91.1514
   XY=             -6.1189   XZ=              4.3392   YZ=              2.6118

 Summary of Natural Population Analysis:

                                       Natural Population
                Natural  -----------------------------------------------
    Atom  No    Charge         Core      Valence    Rydberg      Total
 -----------------------------------------------------------------------
      C    1   -0.34145      0.99960     2.33696    0.00490     3.34145
      C    2    0.30884      0.99966     1.66647    0.02503     2.69116
      O    3   -0.29691      0.99987     3.28961    0.00744     4.29691
      C    4   -0.07753      0.99950     2.06364    0.01439     3.07753
      C    5   -0.21651      0.99955     2.20281    0.01416     3.21651
      C    6   -0.09067      0.99948     2.07619    0.01500     3.09067
      C    7   -0.13816      0.99946     2.12784    0.01086     3.13816
      C    8   -0.13494      0.99954     2.12608    0.00931     3.13494
      C    9   -0.20244      0.99955     2.19212    0.01078     3.20244
      S   10    0.23667      4.99941     2.74306    0.02086     7.76333
      N   11    0.35569      0.99976     2.11536    0.02919     3.14431
      O   12   -0.21047      0.99990     3.20259    0.00799     4.21047
      O   13   -0.19648      0.99989     3.18882    0.00777     4.19648
      H   14    0.10019      0.00000     0.39850    0.00131     0.39981
      H   15    0.11711      0.00000     0.38189    0.00100     0.38289
      H   16    0.12814      0.00000     0.37096    0.00090     0.37186
      H   17    0.12004      0.00000     0.37790    0.00205     0.37996
      H   18    0.12175      0.00000     0.37686    0.00139     0.37825
      H   19    0.10832      0.00000     0.39022    0.00147     0.39168
      H   20    0.10665      0.00000     0.39248    0.00087     0.39335
      H   21    0.09950      0.00000     0.39956    0.00094     0.40050
      H   22    0.10267      0.00000     0.39644    0.00089     0.39733
 =======================================================================
   * Total *    0.00000     16.99517    34.81634    0.18849    52.00000

 Normal termination of Gaussian 16 at Mon Dec 14 19:07:54 2020.
