 Gaussian 16, Revision A.03,

 -----------------------------------------------------------
 # opt freq B3LYP/6-31G(d) empiricaldispersion=gd3bj scf=xqc
 -----------------------------------------------------------

 -------------------------------
 CID_150658147_JID_5173_neutraal
 -------------------------------
 Symbolic Z-matrix:
 Charge =  0 Multiplicity = 1

 SCF Done:  E(RB3LYP) =  -676.225170021     A.U. after   18 cycles
 SCF Done:  E(RB3LYP) =  -676.232615959     A.U. after   15 cycles
 SCF Done:  E(RB3LYP) =  -676.233109678     A.U. after   13 cycles
 SCF Done:  E(RB3LYP) =  -676.233422762     A.U. after   12 cycles
 SCF Done:  E(RB3LYP) =  -676.233456979     A.U. after   11 cycles
 SCF Done:  E(RB3LYP) =  -676.233460012     A.U. after    9 cycles
 SCF Done:  E(RB3LYP) =  -676.233460655     A.U. after    9 cycles
 SCF Done:  E(RB3LYP) =  -676.233460911     A.U. after    8 cycles
 SCF Done:  E(RB3LYP) =  -676.233461042     A.U. after    8 cycles
 SCF Done:  E(RB3LYP) =  -676.233461121     A.U. after    8 cycles
 SCF Done:  E(RB3LYP) =  -676.233461150     A.U. after    7 cycles
 Optimization completed.
    -- Stationary point found.
 Normal termination of Gaussian 16 at Thu Dec 10 14:45:57 2020.

 --------------------------------------------------------------------
 #N Geom=AllCheck Guess=TCheck SCRF=Check GenChk RB3LYP/6-31G(d) Freq
 --------------------------------------------------------------------

 Structure from the checkpoint file:  "JID_5173.chk"
 -------------------------------
 CID_150658147_JID_5173_neutraal
 -------------------------------
 Charge =  0 Multiplicity = 1

 SCF Done:  E(RB3LYP) =  -676.233461150     A.U. after    1 cycles

  Exact polarizability: 189.810 -16.667 151.163   0.000  -0.009  60.864
 Approx polarizability: 299.925 -40.482 272.238   0.002  -0.035  94.197

                      1                      2                      3
                      A                      A                      A
 Frequencies --     46.6147                66.7374               101.5009
 Red. masses --      3.4571                 7.0192                 3.0728
 Frc consts  --      0.0044                 0.0184                 0.0187
 IR Inten    --      0.2797                 0.6895                 0.0026

                      4                      5                      6
                      A                      A                      A
 Frequencies --    106.0018               165.5427               166.2629
 Red. masses --      9.8167                 9.3680                 4.6577
 Frc consts  --      0.0650                 0.1513                 0.0759
 IR Inten    --      0.1006                 0.3409                 0.1065

                      7                      8                      9
                      A                      A                      A
 Frequencies --    251.2886               284.4786               333.8027
 Red. masses --      4.8233                 6.2277                 4.7015
 Frc consts  --      0.1794                 0.2969                 0.3087
 IR Inten    --      0.0095                 0.3703                 3.9327

                     10                     11                     12
                      A                      A                      A
 Frequencies --    337.3047               431.0768               446.2961
 Red. masses --      4.8863                 3.0835                 3.7618
 Frc consts  --      0.3275                 0.3376                 0.4415
 IR Inten    --      0.3490                 2.7484                 0.2873

                     13                     14                     15
                      A                      A                      A
 Frequencies --    457.2452               521.5839               534.8940
 Red. masses --     11.0538                 4.9679                13.9322
 Frc consts  --      1.3616                 0.7963                 2.3486
 IR Inten    --      1.2545                 3.1446                 9.1185

                     16                     17                     18
                      A                      A                      A
 Frequencies --    597.6789               621.2253               649.3636
 Red. masses --      4.9440                 5.1435                 8.6614
 Frc consts  --      1.0405                 1.1695                 2.1519
 IR Inten    --      6.2771                 8.0192                 9.4341

                     19                     20                     21
                      A                      A                      A
 Frequencies --    693.6348               695.9669               778.2087
 Red. masses --      4.9410                 9.6440                 1.3473
 Frc consts  --      1.4006                 2.7522                 0.4807
 IR Inten    --      8.8165                 9.4212                 1.0042

                     22                     23                     24
                      A                      A                      A
 Frequencies --    778.4925               809.5010               821.1626
 Red. masses --      5.7587                 1.3658                 2.9652
 Frc consts  --      2.0563                 0.5273                 1.1781
 IR Inten    --      2.3795                11.4988                 5.3386

                     25                     26                     27
                      A                      A                      A
 Frequencies --    824.7162               893.0092               918.3253
 Red. masses --      1.2716                 4.4867                 6.8623
 Frc consts  --      0.5096                 2.1081                 3.4097
 IR Inten    --     17.4113                10.8942                17.3708

                     28                     29                     30
                      A                      A                      A
 Frequencies --    933.3822               958.3416               960.8293
 Red. masses --      1.3101                 4.9055                 1.4354
 Frc consts  --      0.6725                 2.6544                 0.7807
 IR Inten    --      2.0845                 2.0081                 0.4585

                     31                     32                     33
                      A                      A                      A
 Frequencies --    961.3666              1061.4613              1075.3526
 Red. masses --      4.0861                 1.9648                 1.3152
 Frc consts  --      2.2250                 1.3043                 0.8961
 IR Inten    --     10.5486                 1.7205                12.4864

                     34                     35                     36
                      A                      A                      A
 Frequencies --   1092.2001              1093.3829              1127.5407
 Red. masses --      2.3151                 1.3498                 1.1293
 Frc consts  --      1.6272                 0.9508                 0.8459
 IR Inten    --      3.5154                 3.1710                 0.9843

                     37                     38                     39
                      A                      A                      A
 Frequencies --   1196.9823              1208.8234              1216.7848
 Red. masses --      3.0612                 1.3576                 1.8153
 Frc consts  --      2.5842                 1.1689                 1.5835
 IR Inten    --      9.8542                 0.2892                 4.4704

                     40                     41                     42
                      A                      A                      A
 Frequencies --   1249.1659              1256.0901              1321.4060
 Red. masses --      3.6014                 2.5467                 3.1052
 Frc consts  --      3.3110                 2.3674                 3.1945
 IR Inten    --     28.8185                 5.6090                45.0066

                     43                     44                     45
                      A                      A                      A
 Frequencies --   1339.2872              1341.3840              1373.5047
 Red. masses --      3.3615                 4.9408                 2.2362
 Frc consts  --      3.5525                 5.2378                 2.4855
 IR Inten    --     12.0254               115.4614                 0.6283

                     46                     47                     48
                      A                      A                      A
 Frequencies --   1443.6492              1467.6828              1484.3118
 Red. masses --      2.4990                 2.1340                 1.0874
 Frc consts  --      3.0686                 2.7084                 1.4115
 IR Inten    --    115.3508               150.9577                 3.7858

                     49                     50                     51
                      A                      A                      A
 Frequencies --   1488.3374              1507.6305              1532.2212
 Red. masses --      3.9050                 2.6564                 1.5557
 Frc consts  --      5.0965                 3.5574                 2.1518
 IR Inten    --     62.6248                34.9022                12.4457

                     52                     53                     54
                      A                      A                      A
 Frequencies --   1552.7672              1626.7071              1661.1202
 Red. masses --      7.7669                 7.0475                 7.7786
 Frc consts  --     11.0334                10.9876                12.6460
 IR Inten    --    188.2943                20.8725                85.4154

                     55                     56                     57
                      A                      A                      A
 Frequencies --   2304.1909              3163.6865              3165.1285
 Red. masses --     13.9927                 1.0531                 1.0595
 Frc consts  --     43.7714                 6.2105                 6.2536
 IR Inten    --    822.0174                11.3750                 7.6042

                     58                     59                     60
                      A                      A                      A
 Frequencies --   3180.0812              3187.9972              3210.6665
 Red. masses --      1.0880                 1.0919                 1.0925
 Frc consts  --      6.4828                 6.5382                 6.6355
 IR Inten    --     25.1042                16.7786                 2.0220

                     61                     62                     63
                      A                      A                      A
 Frequencies --   3215.6678              3249.5669              3259.4197
 Red. masses --      1.0916                 1.1177                 1.1144
 Frc consts  --      6.6503                 6.9538                 6.9757
 IR Inten    --     18.3350                 0.6344                 9.4507

 - Thermochemistry -
 -------------------
 Temperature   298.150 Kelvin.  Pressure   1.00000 Atm.
 Atom     1 has atomic number  6 and mass  12.00000

 Molecular mass:   200.08104 amu.
 Principal axes and moments of inertia in atomic units:
                           1         2         3
     Eigenvalues --  1869.904403631.764285357.20068
           X            0.99933   0.03661   0.00000
           Y           -0.03661   0.99933   0.00000
           Z            0.00000  -0.00000   1.00000
 This molecule is an asymmetric top.
 Rotational symmetry number  1.
 Warning -- assumption of classical behavior for rotation
           may cause significant error
 Rotational temperatures (Kelvin)      0.04632     0.02385     0.01617
 Rotational constants (GHZ):           0.96515     0.49693     0.33688
 Zero-point vibrational energy     453384.9 (Joules/Mol)
                                  108.36159 (Kcal/Mol)
 Warning -- explicit consideration of  16 degrees of freedom as
           vibrations may cause significant error
 Vibrational temperatures:     67.07    96.02   146.04   152.51   238.18
          (Kelvin)            239.22   361.55   409.30   480.27   485.31
                              620.22   642.12   657.87   750.44   769.59
                              859.93   893.80   934.29   997.99  1001.34
                             1119.67  1120.08  1164.69  1181.47  1186.58
                             1284.84  1321.27  1342.93  1378.84  1382.42
                             1383.19  1527.21  1547.19  1571.43  1573.13
                             1622.28  1722.19  1739.23  1750.68  1797.27
                             1807.23  1901.21  1926.94  1929.95  1976.17
                             2077.09  2111.67  2135.59  2141.39  2169.14
                             2204.52  2234.09  2340.47  2389.98  3315.22
                             4551.84  4553.91  4575.43  4586.82  4619.43
                             4626.63  4675.40  4689.58

 Zero-point correction=                           0.172685 (Hartree/Particle)
 Thermal correction to Energy=                    0.184370
 Thermal correction to Enthalpy=                  0.185315
 Thermal correction to Gibbs Free Energy=         0.133850
 Sum of electronic and zero-point Energies=           -676.060776
 Sum of electronic and thermal Energies=              -676.049091
 Sum of electronic and thermal Enthalpies=            -676.048147
 Sum of electronic and thermal Free Energies=         -676.099612

                     E (Thermal)             CV                S
                      KCal/Mol        Cal/Mol-Kelvin    Cal/Mol-Kelvin
 Total                  115.694             44.846            108.317
 Electronic               0.000              0.000              0.000
 Translational            0.889              2.981             41.785
 Rotational               0.889              2.981             31.965
 Vibrational            113.917             38.885             34.567
 Vibration     1          0.595              1.979              4.956
 Vibration     2          0.598              1.970              4.247
 Vibration     3          0.604              1.948              3.425
 Vibration     4          0.605              1.944              3.341
 Vibration     5          0.624              1.885              2.485
 Vibration     6          0.624              1.884              2.477
 Vibration     7          0.663              1.761              1.722
 Vibration     8          0.683              1.702              1.507
 Vibration     9          0.715              1.608              1.242
 Vibration    10          0.718              1.601              1.225
 Vibration    11          0.792              1.403              0.855
 Vibration    12          0.806              1.369              0.807
 Vibration    13          0.815              1.345              0.774
 Vibration    14          0.877              1.202              0.606
 Vibration    15          0.890              1.173              0.576
 Vibration    16          0.956              1.037              0.454

 Optimization completed.
    -- Stationary point found.
 Normal termination of Gaussian 16 at Thu Dec 10 14:52:28 2020.

 ----------------------------------------------------------------------
 # B3LYP/6-311++G(d,p) empiricaldispersion=gd3bj scf=xqc pop=npa geom=c
 heck
 ----------------------------------------------------------------------

 ---------------------------------------
 CID_150658147_JID_5173_Energie_neutraal
 ---------------------------------------
 Structure from the checkpoint file:  "JID_5173.chk"
 Charge =  0 Multiplicity = 1

 SCF Done:  E(RB3LYP) =  -676.406547848     A.U. after   18 cycles
 Normal termination of Gaussian 16 at Thu Dec 10 14:55:28 2020.

 ----------------------------------------------------------------------
 # B3LYP/6-311++G(d,p) empiricaldispersion=gd3bj scf=xqc pop=npa geom=c
 heck
 ----------------------------------------------------------------------

 -------------------------------------
 CID_150658147_JID_5173_Energie_kation
 -------------------------------------
 Structure from the checkpoint file:  "JID_5173.chk"
 Charge =  1 Multiplicity = 2

 SCF Done:  E(UB3LYP) =  -676.103047986     A.U. after   29 cycles
 Normal termination of Gaussian 16 at Thu Dec 10 15:02:34 2020.
 Gaussian 16:  ES64L-G16RevA.03 25-Dec-2016

 ----------------------------------------------------------------------
 # B3LYP/6-311++G(d,p) empiricaldispersion=gd3bj scf=xqc pop=npa geom=c
 heck
 ----------------------------------------------------------------------

 ------------------------------------
 CID_150658147_JID_5173_Energie_anion
 ------------------------------------
 Structure from the checkpoint file:  "JID_5173.chk"
 Charge = -1 Multiplicity = 2

                         Standard orientation:
 ---------------------------------------------------------------------
 Center     Atomic      Atomic             Coordinates (Angstroms)
 Number     Number       Type             X           Y           Z
 ---------------------------------------------------------------------
      1          6           0        2.000964    2.369805    0.757299
      2          6           0        2.001648    2.369781   -0.756600
      3          6           0        0.751207    2.012813   -0.000216
      4          7           0        0.183779    0.685186   -0.000375
      5          6           0       -1.177124    0.411897   -0.000160
      6          6           0       -1.282204   -0.998451   -0.000096
      7          6           0       -2.557272   -1.571537    0.000086
      8          7           0       -3.660558   -0.822041    0.000219
      9          6           0       -3.530452    0.520292    0.000167
     10          6           0       -2.319181    1.210114   -0.000023
     11          7           0       -0.022571   -1.577999   -0.000224
     12          6           0        0.798135   -0.555611   -0.000408
     13          7           0        2.191393   -0.614328   -0.000596
     14          7           0        2.672665   -1.763775    0.000102
     15          7           0        3.245244   -2.742576    0.000598
     16          1           0        2.008558    3.316340    1.289767
     17          1           0        2.539858    1.565787    1.245737
     18          1           0        2.009594    3.316352   -1.289003
     19          1           0        2.541065    1.565861   -1.244602
     20          1           0       -0.046422    2.746085   -0.000659
     21          1           0       -2.681487   -2.652228    0.000137
     22          1           0       -4.462528    1.081124    0.000301
     23          1           0       -2.292640    2.294780   -0.000039
 ---------------------------------------------------------------------

 SCF Done:  E(UB3LYP) =  -676.411819274     A.U. after   33 cycles
 SCF Done:  E(UB3LYP) =  -676.411819275     a.u. after    2 cycles

 The electronic state is 2-A.
 Alpha  occ. eigenvalues --  -14.32557 -14.26343 -14.24249 -14.24094 -14.18764
 Alpha  occ. eigenvalues --  -14.17733 -10.15297 -10.12560 -10.10674 -10.08595
 Alpha  occ. eigenvalues --  -10.08393 -10.07997 -10.07646 -10.07502 -10.06798
 Alpha  occ. eigenvalues --   -1.00931  -0.92201  -0.85323  -0.81950  -0.79718
 Alpha  occ. eigenvalues --   -0.74395  -0.67909  -0.64006  -0.57959  -0.55658
 Alpha  occ. eigenvalues --   -0.51287  -0.50903  -0.48248  -0.43322  -0.43062
 Alpha  occ. eigenvalues --   -0.40061  -0.38844  -0.38606  -0.36543  -0.35914
 Alpha  occ. eigenvalues --   -0.34561  -0.33690  -0.32908  -0.31832  -0.30573
 Alpha  occ. eigenvalues --   -0.27659  -0.26869  -0.26378  -0.24046  -0.21170
 Alpha  occ. eigenvalues --   -0.20121  -0.18957  -0.17672  -0.17206  -0.14251
 Alpha  occ. eigenvalues --   -0.12771  -0.10455   0.04245
 Alpha virt. eigenvalues --    0.06132   0.07933   0.08409   0.08774   0.09711
 Alpha virt. eigenvalues --    0.10456   0.10762   0.11062   0.11576   0.12800
 Alpha virt. eigenvalues --    0.13311   0.14189   0.14888   0.15175   0.16353

  Beta  occ. eigenvalues --  -14.32054 -14.26333 -14.24202 -14.23720 -14.18767
  Beta  occ. eigenvalues --  -14.17693 -10.15088 -10.12552 -10.10688 -10.08562
  Beta  occ. eigenvalues --  -10.08402 -10.07868 -10.07629 -10.07475 -10.06717
  Beta  occ. eigenvalues --   -1.00099  -0.92049  -0.85017  -0.81859  -0.79643
  Beta  occ. eigenvalues --   -0.74346  -0.67765  -0.63780  -0.57608  -0.55561
  Beta  occ. eigenvalues --   -0.51217  -0.50836  -0.48068  -0.43212  -0.42974
  Beta  occ. eigenvalues --   -0.39678  -0.38526  -0.37894  -0.36164  -0.35219
  Beta  occ. eigenvalues --   -0.34055  -0.33575  -0.32514  -0.30959  -0.30406
  Beta  occ. eigenvalues --   -0.27499  -0.26694  -0.26304  -0.23686  -0.21133
  Beta  occ. eigenvalues --   -0.19451  -0.18654  -0.17240  -0.17145  -0.14221
  Beta  occ. eigenvalues --   -0.12455  -0.09954
  Beta virt. eigenvalues --    0.06981   0.08333   0.08465   0.09233   0.09645
  Beta virt. eigenvalues --    0.10477   0.10676   0.10871   0.11397   0.12368
  Beta virt. eigenvalues --    0.13084   0.13306   0.14472   0.14761   0.15134

 Mulliken charges and spin densities:
               1          2
     1  C    0.541187  -0.873353
     2  C    0.761647  -1.102780
     3  C   -1.074405   0.895280
     4  N    0.154338  -0.050778
     5  C    0.039078  -0.270891
     6  C    0.155685   0.210588
     7  C   -0.695522   0.109333
     8  N   -0.115689  -0.004085
     9  C   -0.634381  -0.035060
    10  C    0.431138   0.075223
    11  N   -0.191069  -0.000125
    12  C    0.092000  -0.142848
    13  N   -2.047265   0.705627
    14  N    1.988683  -0.269308
    15  N    0.040661  -0.037895
    16  H   -0.238290   0.386165
    17  H    0.138173   0.051193
    18  H   -0.417126   0.569052
    19  H    0.087053   0.107922
    20  H   -0.299970   0.535710
    21  H    0.157702  -0.007229
    22  H    0.126727   0.020635
    23  H   -0.000354   0.127625
 Sum of Mulliken charges =  -1.00000   1.00000

 Dipole moment (field-independent basis, Debye):
    X=             -1.0372    Y=              1.4665    Z=              0.6504  Tot=              1.9104
 Quadrupole moment (field-independent basis, Debye-Ang):
   XX=           -139.3493   YY=           -135.8100   ZZ=            -98.1407
   XY=             -1.0129   XZ=              0.8762   YZ=              2.1932

 Summary of Natural Population Analysis:

                                       Natural Population
                Natural  -----------------------------------------------
    Atom  No    Charge         Core      Valence    Rydberg      Total
 -----------------------------------------------------------------------
      C    1   -0.20259      0.99963     2.19533    0.00763     3.20259
      C    2   -0.20119      0.99963     2.19249    0.00907     3.20119
      C    3   -0.01126      0.99957     1.99861    0.01308     3.01126
      N    4   -0.21632      0.99957     2.70724    0.00952     3.71632
      C    5    0.07985      0.99947     1.90970    0.01098     2.92015
      C    6    0.03993      0.99946     1.94853    0.01207     2.96007
      C    7    0.04392      0.99955     1.94314    0.01339     2.95608
      N    8   -0.24935      0.99972     2.73866    0.01097     3.74935
      C    9    0.01375      0.99961     1.97125    0.01539     2.98625
      C   10   -0.13694      0.99952     2.12697    0.01045     3.13694
      N   11   -0.27304      0.99967     2.76460    0.00877     3.77304
      C   12    0.31611      0.99957     1.66527    0.01905     2.68389
      N   13   -0.23537      0.99964     2.72278    0.01295     3.73537
      N   14    0.17438      0.99971     2.31039    0.01553     3.32562
      N   15    0.04393      0.99981     2.44385    0.01240     3.45607
      H   16    0.10213      0.00000     0.39668    0.00118     0.39787
      H   17    0.11388      0.00000     0.38502    0.00110     0.38612
      H   18    0.10338      0.00000     0.39484    0.00178     0.39662
      H   19    0.11490      0.00000     0.38394    0.00116     0.38510
      H   20    0.10692      0.00000     0.39158    0.00150     0.39308
      H   21    0.08748      0.00000     0.41117    0.00135     0.41252
      H   22    0.08320      0.00000     0.41514    0.00165     0.41680
      H   23    0.10230      0.00000     0.39649    0.00122     0.39770
 =======================================================================
   * Total *    0.00000     14.99413    36.81365    0.19222    52.00000

 Normal termination of Gaussian 16 at Thu Dec 10 15:19:13 2020.
