 Gaussian 16, Revision A.03,

 -----------------------------------------------------------
 # opt freq B3LYP/6-31G(d) empiricaldispersion=gd3bj scf=xqc
 -----------------------------------------------------------

 -------------------------------
 CID_152743528_JID_5412_neutraal
 -------------------------------
 Symbolic Z-matrix:
 Charge =  0 Multiplicity = 1

 SCF Done:  E(RB3LYP) =  -670.297878934     A.U. after   15 cycles
 SCF Done:  E(RB3LYP) =  -670.309939304     A.U. after   13 cycles
 SCF Done:  E(RB3LYP) =  -670.312475831     A.U. after   13 cycles
 SCF Done:  E(RB3LYP) =  -670.312691672     A.U. after   13 cycles
 SCF Done:  E(RB3LYP) =  -670.313908858     A.U. after   12 cycles
 SCF Done:  E(RB3LYP) =  -670.314114561     A.U. after   12 cycles
 SCF Done:  E(RB3LYP) =  -670.314249666     A.U. after   12 cycles
 SCF Done:  E(RB3LYP) =  -670.314347073     A.U. after   12 cycles
 SCF Done:  E(RB3LYP) =  -670.314342818     A.U. after   12 cycles
 SCF Done:  E(RB3LYP) =  -670.314520040     A.U. after   11 cycles
 SCF Done:  E(RB3LYP) =  -670.316025758     A.U. after   12 cycles
 SCF Done:  E(RB3LYP) =  -670.316058164     A.U. after   12 cycles
 SCF Done:  E(RB3LYP) =  -670.316062369     A.U. after   10 cycles
 SCF Done:  E(RB3LYP) =  -670.316063120     A.U. after    9 cycles
 SCF Done:  E(RB3LYP) =  -670.316063376     A.U. after    9 cycles
 SCF Done:  E(RB3LYP) =  -670.316063472     A.U. after    9 cycles
 Optimization completed.
    -- Stationary point found.
 Normal termination of Gaussian 16 at Thu Dec 10 16:03:38 2020.

 --------------------------------------------------------------------
 #N Geom=AllCheck Guess=TCheck SCRF=Check GenChk RB3LYP/6-31G(d) Freq
 --------------------------------------------------------------------

 Structure from the checkpoint file:  "JID_5412.chk"
 -------------------------------
 CID_152743528_JID_5412_neutraal
 -------------------------------
 Charge =  0 Multiplicity = 1

 SCF Done:  E(RB3LYP) =  -670.316063472     A.U. after    1 cycles

  Exact polarizability: 179.430  -7.700 134.899  21.863   1.790  82.983
 Approx polarizability: 256.256 -20.089 253.326  39.688   6.277 133.976

                      1                      2                      3
                      A                      A                      A
 Frequencies --     24.8891                34.2154                55.0636
 Red. masses --      6.1074                 7.3879                 6.0394
 Frc consts  --      0.0022                 0.0051                 0.0108
 IR Inten    --      0.6936                 0.3194                 0.5913

                      4                      5                      6
                      A                      A                      A
 Frequencies --     77.5266               114.5727               155.6046
 Red. masses --      3.9227                 5.6302                 4.1367
 Frc consts  --      0.0139                 0.0435                 0.0590
 IR Inten    --      0.2805                 2.0530                 0.8032

                      7                      8                      9
                      A                      A                      A
 Frequencies --    182.2182               229.4879               269.9684
 Red. masses --      4.3393                 3.0952                 2.9585
 Frc consts  --      0.0849                 0.0960                 0.1270
 IR Inten    --      0.3786                 0.6831                 1.7094

                     10                     11                     12
                      A                      A                      A
 Frequencies --    327.3190               412.3268               420.7233
 Red. masses --      3.0072                 2.6756                 2.8974
 Frc consts  --      0.1898                 0.2680                 0.3022
 IR Inten    --      0.1569                10.8898                 1.8017

                     13                     14                     15
                      A                      A                      A
 Frequencies --    443.0348               452.8242               527.2995
 Red. masses --      2.0072                 4.0575                 4.6743
 Frc consts  --      0.2321                 0.4902                 0.7657
 IR Inten    --      5.0326                 4.3090                 3.9734

                     16                     17                     18
                      A                      A                      A
 Frequencies --    542.2313               562.4975               570.3192
 Red. masses --      3.3418                 4.7136                 3.6829
 Frc consts  --      0.5789                 0.8787                 0.7058
 IR Inten    --      5.6314                 4.2889                36.8618

                     19                     20                     21
                      A                      A                      A
 Frequencies --    597.1855               645.7128               670.0018
 Red. masses --      3.2521                 1.5066                 3.0412
 Frc consts  --      0.6833                 0.3701                 0.8043
 IR Inten    --      8.7314                61.7029                14.8212

                     22                     23                     24
                      A                      A                      A
 Frequencies --    707.1443               737.5829               764.9391
 Red. masses --      1.3600                 3.7304                 3.3206
 Frc consts  --      0.4007                 1.1957                 1.1448
 IR Inten    --     37.2162                 1.3566                53.7160

                     25                     26                     27
                      A                      A                      A
 Frequencies --    781.2695               809.7285               855.3706
 Red. masses --      2.1438                 1.9637                 2.3178
 Frc consts  --      0.7710                 0.7586                 0.9991
 IR Inten    --     19.0217                12.0348                 3.9479

                     28                     29                     30
                      A                      A                      A
 Frequencies --    864.3971               871.8520               890.5451
 Red. masses --      4.2298                 3.0282                 2.3266
 Frc consts  --      1.8621                 1.3562                 1.0871
 IR Inten    --      2.1141                 2.6553                 1.2713

                     31                     32                     33
                      A                      A                      A
 Frequencies --    932.9871               968.1324               971.0422
 Red. masses --      1.3814                 1.2810                 2.3842
 Frc consts  --      0.7085                 0.7074                 1.3246
 IR Inten    --     21.9085                 1.2741                15.6823

                     34                     35                     36
                      A                      A                      A
 Frequencies --    991.0051               994.2210              1018.8523
 Red. masses --      2.3811                 1.2835                 1.9751
 Frc consts  --      1.3778                 0.7475                 1.2080
 IR Inten    --     15.5547                 1.2776                 1.0215

                     37                     38                     39
                      A                      A                      A
 Frequencies --   1036.2388              1076.3342              1082.6272
 Red. masses --      2.0411                 2.9818                 1.8379
 Frc consts  --      1.2913                 2.0353                 1.2692
 IR Inten    --     21.2561                31.3583                 9.4896

                     40                     41                     42
                      A                      A                      A
 Frequencies --   1100.5918              1126.3368              1150.5330
 Red. masses --      1.8252                 1.9361                 1.5418
 Frc consts  --      1.3026                 1.4471                 1.2025
 IR Inten    --     11.1379                 2.2163               167.6955

                     43                     44                     45
                      A                      A                      A
 Frequencies --   1169.8498              1183.2317              1198.3680
 Red. masses --      1.4527                 1.1959                 1.2701
 Frc consts  --      1.1713                 0.9865                 1.0746
 IR Inten    --      2.9354                 4.8649                 2.1338

                     46                     47                     48
                      A                      A                      A
 Frequencies --   1232.2328              1247.0121              1274.0134
 Red. masses --      1.6508                 1.4803                 1.9126
 Frc consts  --      1.4768                 1.3562                 1.8290
 IR Inten    --      3.4689               133.9191                 2.2963

                     49                     50                     51
                      A                      A                      A
 Frequencies --   1295.2068              1343.2863              1351.6594
 Red. masses --      1.3129                 2.1886                 1.4666
 Frc consts  --      1.2977                 2.3268                 1.5787
 IR Inten    --      1.8182                 6.6378                20.0117

                     52                     53                     54
                      A                      A                      A
 Frequencies --   1359.0499              1382.2924              1397.3292
 Red. masses --      1.8421                 1.5352                 1.5401
 Frc consts  --      2.0046                 1.7283                 1.7717
 IR Inten    --     13.5173                18.5235                23.6613

                     55                     56                     57
                      A                      A                      A
 Frequencies --   1418.9560              1427.8191              1459.4308
 Red. masses --      1.7422                 2.0192                 2.2277
 Frc consts  --      2.0668                 2.4253                 2.7956
 IR Inten    --     39.8563                 6.3728                 2.2660

                     58                     59                     60
                      A                      A                      A
 Frequencies --   1508.5926              1516.2177              1518.5176
 Red. masses --      1.1044                 1.1038                 1.1154
 Frc consts  --      1.4809                 1.4951                 1.5154
 IR Inten    --      5.8641                10.6955                 4.0065

                     61                     62                     63
                      A                      A                      A
 Frequencies --   1569.5642              1583.5546              1631.6922
 Red. masses --      6.5918                 7.1562                 6.4374
 Frc consts  --      9.5679                10.5730                10.0980
 IR Inten    --     15.4904                 7.8452                17.5098

                     64                     65                     66
                      A                      A                      A
 Frequencies --   1691.3602              1835.3144              2885.8490
 Red. masses --      5.6273                 9.1699                 1.0764
 Frc consts  --      9.4848                18.1985                 5.2817
 IR Inten    --      4.9364               229.3982                 0.1474

                     67                     68                     69
                      A                      A                      A
 Frequencies --   3039.2458              3054.6149              3087.3325
 Red. masses --      1.0664                 1.0597                 1.0863
 Frc consts  --      5.8037                 5.8259                 6.1003
 IR Inten    --     23.3380                32.5710                12.1763

                     70                     71                     72
                      A                      A                      A
 Frequencies --   3094.8073              3105.8697              3147.2138
 Red. masses --      1.0759                 1.0977                 1.1059
 Frc consts  --      6.0715                 6.2385                 6.4539
 IR Inten    --     11.6925                36.0309                 8.7984

                     73                     74                     75
                      A                      A                      A
 Frequencies --   3179.3394              3192.4291              3202.8949
 Red. masses --      1.0846                 1.0890                 1.0949
 Frc consts  --      6.4594                 6.5394                 6.6178
 IR Inten    --      2.7083                11.1894                25.9304

                     76                     77                     78
                      A                      A                      A
 Frequencies --   3217.2860              3242.9222              3679.0081
 Red. masses --      1.0961                 1.0957                 1.0639
 Frc consts  --      6.6844                 6.7892                 8.4839
 IR Inten    --     17.9368                 8.1736                48.9662

 - Thermochemistry -
 -------------------
 Temperature   298.150 Kelvin.  Pressure   1.00000 Atm.
 Atom     1 has atomic number  6 and mass  12.00000

 Molecular mass:   203.09463 amu.
 Principal axes and moments of inertia in atomic units:
                           1         2         3
     Eigenvalues --  1239.944825704.974296365.24082
           X            0.99999   0.00030   0.00414
           Y           -0.00032   0.99998   0.00607
           Z           -0.00414  -0.00607   0.99997
 This molecule is an asymmetric top.
 Rotational symmetry number  1.
 Warning -- assumption of classical behavior for rotation
           may cause significant error
 Rotational temperatures (Kelvin)      0.06985     0.01518     0.01361
 Rotational constants (GHZ):           1.45550     0.31635     0.28353
 Zero-point vibrational energy     602739.2 (Joules/Mol)
                                  144.05812 (Kcal/Mol)
 Warning -- explicit consideration of  19 degrees of freedom as
           vibrations may cause significant error
 Vibrational temperatures:     35.81    49.23    79.22   111.54   164.84
          (Kelvin)            223.88   262.17   330.18   388.42   470.94
                              593.25   605.33   637.43   651.51   758.67
                              780.15   809.31   820.56   859.22   929.04
                              963.98  1017.42  1061.22  1100.58  1124.07
                             1165.02  1230.69  1243.67  1254.40  1281.30
                             1342.36  1392.93  1397.11  1425.84  1430.46
                             1465.90  1490.92  1548.60  1557.66  1583.51
                             1620.55  1655.36  1683.15  1702.41  1724.18
                             1772.91  1794.17  1833.02  1863.51  1932.69
                             1944.74  1955.37  1988.81  2010.45  2041.56
                             2054.31  2099.80  2170.53  2181.50  2184.81
                             2258.25  2278.38  2347.64  2433.49  2640.61
                             4152.09  4372.80  4394.91  4441.98  4452.74
                             4468.65  4528.14  4574.36  4593.19  4608.25
                             4628.96  4665.84  5293.27

 Zero-point correction=                           0.229571 (Hartree/Particle)
 Thermal correction to Energy=                    0.242644
 Thermal correction to Enthalpy=                  0.243588
 Thermal correction to Gibbs Free Energy=         0.187857
 Sum of electronic and zero-point Energies=           -670.086492
 Sum of electronic and thermal Energies=              -670.073419
 Sum of electronic and thermal Enthalpies=            -670.072475
 Sum of electronic and thermal Free Energies=         -670.128206

                     E (Thermal)             CV                S
                      KCal/Mol        Cal/Mol-Kelvin    Cal/Mol-Kelvin
 Total                  152.262             50.248            117.296
 Electronic               0.000              0.000              0.000
 Translational            0.889              2.981             41.830
 Rotational               0.889              2.981             32.176
 Vibrational            150.484             44.287             43.289
 Vibration     1          0.593              1.985              6.200
 Vibration     2          0.594              1.983              5.569
 Vibration     3          0.596              1.976              4.627
 Vibration     4          0.599              1.964              3.953
 Vibration     5          0.608              1.937              3.190
 Vibration     6          0.620              1.896              2.603
 Vibration     7          0.630              1.864              2.306
 Vibration     8          0.652              1.796              1.883
 Vibration     9          0.674              1.728              1.596
 Vibration    10          0.711              1.621              1.273
 Vibration    11          0.776              1.443              0.918
 Vibration    12          0.783              1.425              0.890
 Vibration    13          0.803              1.376              0.817
 Vibration    14          0.811              1.355              0.787
 Vibration    15          0.882              1.190              0.593
 Vibration    16          0.897              1.157              0.561
 Vibration    17          0.918              1.112              0.519
 Vibration    18          0.926              1.095              0.504
 Vibration    19          0.955              1.038              0.455

 Optimization completed.
    -- Stationary point found.
 Normal termination of Gaussian 16 at Thu Dec 10 16:11:47 2020.

 ----------------------------------------------------------------------
 # B3LYP/6-311++G(d,p) empiricaldispersion=gd3bj scf=xqc pop=npa geom=c
 heck
 ----------------------------------------------------------------------

 ---------------------------------------
 CID_152743528_JID_5412_Energie_neutraal
 ---------------------------------------
 Structure from the checkpoint file:  "JID_5412.chk"
 Charge =  0 Multiplicity = 1

 SCF Done:  E(RB3LYP) =  -670.507564477     A.U. after   17 cycles
 Normal termination of Gaussian 16 at Thu Dec 10 16:15:12 2020.

 ----------------------------------------------------------------------
 # B3LYP/6-311++G(d,p) empiricaldispersion=gd3bj scf=xqc pop=npa geom=c
 heck
 ----------------------------------------------------------------------

 -------------------------------------
 CID_152743528_JID_5412_Energie_kation
 -------------------------------------
 Structure from the checkpoint file:  "JID_5412.chk"
 Charge =  1 Multiplicity = 2

 SCF Done:  E(UB3LYP) =  -670.226801374     A.U. after   23 cycles
 Normal termination of Gaussian 16 at Thu Dec 10 16:22:02 2020.
 Gaussian 16:  ES64L-G16RevA.03 25-Dec-2016

 ----------------------------------------------------------------------
 # B3LYP/6-311++G(d,p) empiricaldispersion=gd3bj scf=xqc pop=npa geom=c
 heck
 ----------------------------------------------------------------------

 ------------------------------------
 CID_152743528_JID_5412_Energie_anion
 ------------------------------------
 Structure from the checkpoint file:  "JID_5412.chk"
 Charge = -1 Multiplicity = 2

                         Standard orientation:
 ---------------------------------------------------------------------
 Center     Atomic      Atomic             Coordinates (Angstroms)
 Number     Number       Type             X           Y           Z
 ---------------------------------------------------------------------
      1          6           0        3.335682   -1.526110    0.351707
      2          6           0        2.115259   -1.492418   -0.226383
      3          6           0        1.572771   -0.174110   -0.677763
      4          6           0        2.200435    1.025243   -0.009592
      5          7           0        1.372420    2.030279    0.098507
      6          6           0        0.125597    1.560555   -0.366522
      7          6           0        0.133033    0.265085   -0.775211
      8          6           0       -0.994606   -0.570869   -1.290323
      9          6           0       -1.622255   -1.459097   -0.192097
     10          6           0       -2.262412   -0.651155    0.956934
     11          6           0       -3.400457    0.200539    0.451325
     12          8           0       -3.304395    1.325637    0.006816
     13          8           0       -4.585650   -0.460130    0.487615
     14          6           0        3.538209    0.928053    0.500965
     15          6           0        4.074251   -0.312802    0.669571
     16          1           0        3.789464   -2.480028    0.607341
     17          1           0        1.577641   -2.405221   -0.468959
     18          1           0        1.909258   -0.096306   -1.737744
     19          1           0       -0.731965    2.223409   -0.354048
     20          1           0       -1.768806    0.073027   -1.720245
     21          1           0       -0.640738   -1.225040   -2.098398
     22          1           0       -2.378071   -2.113898   -0.642168
     23          1           0       -0.853545   -2.108412    0.243319
     24          1           0       -2.631669   -1.334440    1.726616
     25          1           0       -1.516226    0.016082    1.394988
     26          1           0       -5.244369    0.149565    0.104028
     27          1           0        4.045886    1.826321    0.838284
     28          1           0        5.063510   -0.418554    1.106316
 ---------------------------------------------------------------------

 SCF Done:  E(UB3LYP) =  -670.525540143     A.U. after   29 cycles

 The electronic state is 2-A.
 Alpha  occ. eigenvalues --  -19.08583 -19.02263 -14.12982 -10.21301 -10.08054
 Alpha  occ. eigenvalues --  -10.07006 -10.05425 -10.03885 -10.03491 -10.03361
 Alpha  occ. eigenvalues --  -10.02342 -10.02089 -10.01896 -10.01619 -10.00944
 Alpha  occ. eigenvalues --   -1.02249  -0.92979  -0.78808  -0.70443  -0.67963
 Alpha  occ. eigenvalues --   -0.64545  -0.60470  -0.57083  -0.56321  -0.52646
 Alpha  occ. eigenvalues --   -0.48565  -0.45735  -0.42686  -0.40822  -0.40267
 Alpha  occ. eigenvalues --   -0.38748  -0.36794  -0.35566  -0.34271  -0.32980
 Alpha  occ. eigenvalues --   -0.32441  -0.31136  -0.30773  -0.28702  -0.28169
 Alpha  occ. eigenvalues --   -0.26801  -0.25090  -0.24679  -0.24239  -0.23656
 Alpha  occ. eigenvalues --   -0.22411  -0.20975  -0.19711  -0.18771  -0.18091
 Alpha  occ. eigenvalues --   -0.17265  -0.11390  -0.09604  -0.06103   0.03702
 Alpha virt. eigenvalues --    0.05921   0.08040   0.08725   0.09576   0.09698
 Alpha virt. eigenvalues --    0.10704   0.11005   0.12214   0.12380   0.12949
 Alpha virt. eigenvalues --    0.13369   0.13630   0.14114   0.14526   0.15210

  Beta  occ. eigenvalues --  -19.08569 -19.02253 -14.12758 -10.21295 -10.08048
  Beta  occ. eigenvalues --  -10.06965 -10.05438 -10.03760 -10.03549 -10.03422
  Beta  occ. eigenvalues --  -10.02404 -10.01720 -10.01681 -10.01352 -10.00821
  Beta  occ. eigenvalues --   -1.02227  -0.92958  -0.78467  -0.70374  -0.67502
  Beta  occ. eigenvalues --   -0.64292  -0.60132  -0.56749  -0.56033  -0.52587
  Beta  occ. eigenvalues --   -0.48480  -0.45229  -0.42299  -0.40698  -0.40220
  Beta  occ. eigenvalues --   -0.38640  -0.36747  -0.35377  -0.33995  -0.32874
  Beta  occ. eigenvalues --   -0.32262  -0.31008  -0.30588  -0.28335  -0.28002
  Beta  occ. eigenvalues --   -0.26663  -0.25000  -0.24526  -0.24127  -0.23560
  Beta  occ. eigenvalues --   -0.22187  -0.20660  -0.19222  -0.18658  -0.17467
  Beta  occ. eigenvalues --   -0.16226  -0.10749  -0.08910  -0.04714
  Beta virt. eigenvalues --    0.05964   0.07803   0.08659   0.09492   0.09537
  Beta virt. eigenvalues --    0.09827   0.10720   0.10936   0.12127   0.12346
  Beta virt. eigenvalues --    0.13009   0.13418   0.13575   0.14404   0.14886

 Mulliken charges and spin densities:
               1          2
     1  C    0.020603  -0.130001
     2  C   -0.659801   0.229355
     3  C    1.387338  -0.100068
     4  C   -1.022560   0.172053
     5  N   -0.096493   0.126583
     6  C    0.082011  -0.187211
     7  C    0.059436  -0.094685
     8  C   -0.747205   0.334490
     9  C    0.003845  -0.246713
    10  C   -0.326038  -0.052102
    11  C   -0.056866  -0.100242
    12  O   -0.286204   0.003417
    13  O   -0.143910   0.010436
    14  C    0.030506  -0.079011
    15  C   -0.518912   0.231242
    16  H    0.087700   0.028188
    17  H    0.025190   0.049516
    18  H    0.045451   0.231482
    19  H    0.175846   0.009624
    20  H    0.148021   0.022566
    21  H    0.044985   0.117932
    22  H   -0.021148   0.159193
    23  H    0.069852   0.092048
    24  H    0.114375   0.077073
    25  H    0.192716   0.019071
    26  H    0.176637   0.093767
    27  H    0.111042  -0.004604
    28  H    0.103584  -0.013400
 Sum of Mulliken charges =  -1.00000   1.00000

 Dipole moment (field-independent basis, Debye):
    X=             -6.1553    Y=             -3.1242    Z=             -0.0294  Tot=              6.9028
 Quadrupole moment (field-independent basis, Debye-Ang):
   XX=           -131.4372   YY=           -115.1752   ZZ=           -100.5793
   XY=             -2.7295   XZ=             -0.3350   YZ=             -0.2850

 Summary of Natural Population Analysis:

                                       Natural Population
                Natural  -----------------------------------------------
    Atom  No    Charge         Core      Valence    Rydberg      Total
 -----------------------------------------------------------------------
      C    1   -0.14433      0.99955     2.13423    0.01054     3.14433
      C    2   -0.00256      0.99953     1.99427    0.00876     3.00256
      C    3   -0.17367      0.99951     2.16311    0.01105     3.17367
      C    4    0.14661      0.99956     1.83808    0.01574     2.85339
      N    5   -0.23066      0.99969     2.71710    0.01387     3.73066
      C    6   -0.02749      0.99945     2.01509    0.01295     3.02749
      C    7    0.00289      0.99948     1.98442    0.01322     2.99711
      C    8   -0.20539      0.99959     2.19631    0.00949     3.20539
      C    9   -0.17947      0.99962     2.17085    0.00901     3.17947
      C   10   -0.24280      0.99957     2.23545    0.00777     3.24280
      C   11    0.40724      0.99972     1.56748    0.02556     2.59276
      O   12   -0.30607      0.99987     3.29966    0.00655     4.30607
      O   13   -0.34929      0.99988     3.34279    0.00662     4.34929
      C   14   -0.10296      0.99950     2.09329    0.01017     3.10296
      C   15   -0.05108      0.99957     2.04051    0.01100     3.05108
      H   16    0.09027      0.00000     0.40876    0.00097     0.40973
      H   17    0.08380      0.00000     0.41444    0.00177     0.41620
      H   18    0.15144      0.00000     0.34630    0.00226     0.34856
      H   19    0.09366      0.00000     0.40486    0.00148     0.40634
      H   20    0.10022      0.00000     0.39810    0.00167     0.39978
      H   21    0.10082      0.00000     0.39794    0.00124     0.39918
      H   22    0.09246      0.00000     0.40598    0.00155     0.40754
      H   23    0.10454      0.00000     0.39399    0.00147     0.39546
      H   24    0.10611      0.00000     0.39279    0.00110     0.39389
      H   25    0.12251      0.00000     0.37622    0.00126     0.37749
      H   26    0.23501      0.00000     0.26064    0.00434     0.26499
      H   27    0.09310      0.00000     0.40529    0.00162     0.40690
      H   28    0.08507      0.00000     0.41406    0.00086     0.41493
 =======================================================================
   * Total *   -0.00000     14.99408    38.81202    0.19389    54.00000

 Normal termination of Gaussian 16 at Thu Dec 10 16:31:00 2020.
