 Gaussian 16, Revision A.03,

 -----------------------------------------------------------
 # opt freq B3LYP/6-31G(d) empiricaldispersion=gd3bj scf=xqc
 -----------------------------------------------------------

 ------------------------------
 CID_82618251_JID_5222_neutraal
 ------------------------------
 Symbolic Z-matrix:
 Charge =  0 Multiplicity = 1

 SCF Done:  E(RB3LYP) =  -1012.95753979     A.U. after   14 cycles
 SCF Done:  E(RB3LYP) =  -1012.96353655     A.U. after   12 cycles
 SCF Done:  E(RB3LYP) =  -1012.96392872     A.U. after   11 cycles
 SCF Done:  E(RB3LYP) =  -1012.96415878     A.U. after   11 cycles
 SCF Done:  E(RB3LYP) =  -1012.96420201     A.U. after   10 cycles
 SCF Done:  E(RB3LYP) =  -1012.96423980     A.U. after   10 cycles
 SCF Done:  E(RB3LYP) =  -1012.96428538     A.U. after   10 cycles
 SCF Done:  E(RB3LYP) =  -1012.96430424     A.U. after   10 cycles
 SCF Done:  E(RB3LYP) =  -1012.96433685     A.U. after    9 cycles
 SCF Done:  E(RB3LYP) =  -1012.96435895     A.U. after   10 cycles
 SCF Done:  E(RB3LYP) =  -1012.96435983     A.U. after    7 cycles
 SCF Done:  E(RB3LYP) =  -1012.96436011     A.U. after    8 cycles
 SCF Done:  E(RB3LYP) =  -1012.96436017     A.U. after    7 cycles
 Optimization completed.
    -- Stationary point found.
 Normal termination of Gaussian 16 at Thu Dec 10 14:53:10 2020.

 --------------------------------------------------------------------
 #N Geom=AllCheck Guess=TCheck SCRF=Check GenChk RB3LYP/6-31G(d) Freq
 --------------------------------------------------------------------

 Structure from the checkpoint file:  "JID_5222.chk"
 ------------------------------
 CID_82618251_JID_5222_neutraal
 ------------------------------
 Charge =  0 Multiplicity = 1

 SCF Done:  E(RB3LYP) =  -1012.96436017     A.U. after    1 cycles

  Exact polarizability: 181.646  -2.196 140.659   2.856  10.957 113.114
 Approx polarizability: 234.398  -4.306 225.854   6.115  23.401 174.191

                      1                      2                      3
                      A                      A                      A
 Frequencies --     38.6542                48.9092                66.9846
 Red. masses --      3.3454                 4.3717                 3.1403
 Frc consts  --      0.0029                 0.0062                 0.0083
 IR Inten    --      0.1979                 0.9756                 1.0720

                      4                      5                      6
                      A                      A                      A
 Frequencies --    102.1523               117.0934               131.4784
 Red. masses --      2.8172                 1.9903                 1.5807
 Frc consts  --      0.0173                 0.0161                 0.0161
 IR Inten    --      0.8447                 0.7169                 1.2182

                      7                      8                      9
                      A                      A                      A
 Frequencies --    138.7945               165.9875               190.6948
 Red. masses --      2.9650                 2.3248                 2.8494
 Frc consts  --      0.0337                 0.0377                 0.0610
 IR Inten    --      0.2043                 0.3158                 4.1106

                     10                     11                     12
                      A                      A                      A
 Frequencies --    214.9457               241.3581               258.0062
 Red. masses --      3.3035                 1.7090                 2.7913
 Frc consts  --      0.0899                 0.0587                 0.1095
 IR Inten    --      4.1051                 0.8765                 2.0569

                     13                     14                     15
                      A                      A                      A
 Frequencies --    276.7410               286.6442               320.5589
 Red. masses --      2.7963                 2.1774                 2.9084
 Frc consts  --      0.1262                 0.1054                 0.1761
 IR Inten    --      1.7355                 2.5443                 4.9558

                     16                     17                     18
                      A                      A                      A
 Frequencies --    348.8489               382.8349               406.4836
 Red. masses --      1.8188                 1.9772                 2.6727
 Frc consts  --      0.1304                 0.1707                 0.2602
 IR Inten    --     47.1611                85.5943                 5.3853

                     19                     20                     21
                      A                      A                      A
 Frequencies --    430.7662               436.4663               520.2476
 Red. masses --      4.5175                 3.3328                 3.9501
 Frc consts  --      0.4939                 0.3741                 0.6299
 IR Inten    --      2.8519                11.0312                 0.2728

                     22                     23                     24
                      A                      A                      A
 Frequencies --    561.8887               592.6932               650.2082
 Red. masses --      3.8009                 3.6318                 3.9287
 Frc consts  --      0.7070                 0.7517                 0.9786
 IR Inten    --      9.1701                 3.8243                 7.0139

                     25                     26                     27
                      A                      A                      A
 Frequencies --    651.6687               674.1366               704.8948
 Red. masses --      3.9309                 4.4957                 3.1809
 Frc consts  --      0.9835                 1.2038                 0.9312
 IR Inten    --      2.9705                 3.0670                 5.1829

                     28                     29                     30
                      A                      A                      A
 Frequencies --    731.7171               760.1713               778.6790
 Red. masses --      3.7968                 3.3803                 1.6215
 Frc consts  --      1.1977                 1.1509                 0.5793
 IR Inten    --      3.0277                 0.7505               123.1617

                     31                     32                     33
                      A                      A                      A
 Frequencies --    807.7125               832.5629               878.3672
 Red. masses --      1.3077                 2.4133                 1.8383
 Frc consts  --      0.5027                 0.9856                 0.8356
 IR Inten    --     26.1308                21.3795                 0.5877

                     34                     35                     36
                      A                      A                      A
 Frequencies --    930.7918               957.2729               998.2931
 Red. masses --      1.8739                 2.1637                 2.0124
 Frc consts  --      0.9565                 1.1682                 1.1816
 IR Inten    --      3.9934                12.7934                 8.2572

                     37                     38                     39
                      A                      A                      A
 Frequencies --   1003.4381              1021.8735              1029.1940
 Red. masses --      1.8652                 3.1358                 2.1161
 Frc consts  --      1.1065                 1.9293                 1.3206
 IR Inten    --     50.4423                53.0614                 6.5130

                     40                     41                     42
                      A                      A                      A
 Frequencies --   1071.0088              1104.5009              1135.6369
 Red. masses --      3.0560                 2.4744                 1.7431
 Frc consts  --      2.0653                 1.7785                 1.3245
 IR Inten    --      5.3949                 1.3226                21.7616

                     43                     44                     45
                      A                      A                      A
 Frequencies --   1159.0461              1161.1147              1168.9764
 Red. masses --      1.3954                 1.2851                 1.2956
 Frc consts  --      1.1044                 1.0208                 1.0431
 IR Inten    --     12.9371                 6.9166                 5.7314

                     46                     47                     48
                      A                      A                      A
 Frequencies --   1179.4938              1191.8938              1204.3254
 Red. masses --      1.9217                 1.7114                 1.5224
 Frc consts  --      1.5752                 1.4324                 1.3010
 IR Inten    --      8.2964                11.7801                 6.0431

                     49                     50                     51
                      A                      A                      A
 Frequencies --   1207.2560              1218.6491              1237.7624
 Red. masses --      1.9519                 1.5974                 1.3294
 Frc consts  --      1.6762                 1.3978                 1.2000
 IR Inten    --     13.1066                 2.9841                 8.2474

                     52                     53                     54
                      A                      A                      A
 Frequencies --   1260.5612              1283.9581              1316.5229
 Red. masses --      1.3068                 1.3258                 1.4589
 Frc consts  --      1.2234                 1.2877                 1.4898
 IR Inten    --     24.6713                23.6730                 0.7921

                     55                     56                     57
                      A                      A                      A
 Frequencies --   1340.7301              1364.1492              1371.5915
 Red. masses --      1.2680                 1.4987                 1.6627
 Frc consts  --      1.3429                 1.6432                 1.8430
 IR Inten    --     24.9884                14.8333                17.0035

                     58                     59                     60
                      A                      A                      A
 Frequencies --   1402.3934              1405.3649              1432.1724
 Red. masses --      1.4797                 3.1545                 1.5428
 Frc consts  --      1.7146                 3.6708                 1.8644
 IR Inten    --     14.8798                17.1678                15.1311

                     61                     62                     63
                      A                      A                      A
 Frequencies --   1449.0298              1471.0543              1481.4283
 Red. masses --      2.2535                 1.6535                 1.1535
 Frc consts  --      2.7878                 2.1082                 1.4916
 IR Inten    --     87.5911                12.8953                 0.0201

                     64                     65                     66
                      A                      A                      A
 Frequencies --   1492.1593              1502.9651              1508.3075
 Red. masses --      1.1217                 1.1645                 1.1909
 Frc consts  --      1.4714                 1.5498                 1.5963
 IR Inten    --      2.1413                10.1996                 3.9906

                     67                     68                     69
                      A                      A                      A
 Frequencies --   1514.3253              1517.4505              1522.2293
 Red. masses --      1.0917                 1.6541                 1.0949
 Frc consts  --      1.4751                 2.2441                 1.4949
 IR Inten    --      7.7457                10.5383                 1.5554

                     70                     71                     72
                      A                      A                      A
 Frequencies --   1523.9732              1532.7826              1545.2051
 Red. masses --      1.1985                 1.0921                 1.3873
 Frc consts  --      1.6400                 1.5118                 1.9515
 IR Inten    --     25.2840                13.0761                14.1395

                     73                     74                     75
                      A                      A                      A
 Frequencies --   1552.1948              1552.8314              1634.3281
 Red. masses --      1.0659                 2.8827                 6.0232
 Frc consts  --      1.5130                 4.0954                 9.4789
 IR Inten    --      8.2452                10.5237                 1.2788

                     76                     77                     78
                      A                      A                      A
 Frequencies --   2964.0419              3017.3843              3038.2341
 Red. masses --      1.0599                 1.0583                 1.0664
 Frc consts  --      5.4864                 5.6770                 5.8001
 IR Inten    --     69.0524                37.6771                37.7824

                     79                     80                     81
                      A                      A                      A
 Frequencies --   3038.4466              3044.6483              3049.1835
 Red. masses --      1.0657                 1.0954                 1.0500
 Frc consts  --      5.7970                 5.9825                 5.7518
 IR Inten    --     26.6760                 8.0610                44.6303

                     82                     83                     84
                      A                      A                      A
 Frequencies --   3067.6422              3070.4159              3073.8440
 Red. masses --      1.0794                 1.0662                 1.0758
 Frc consts  --      5.9845                 5.9225                 5.9891
 IR Inten    --     46.7129                41.4926                44.1198

                     85                     86                     87
                      A                      A                      A
 Frequencies --   3096.4476              3097.9357              3117.7144
 Red. masses --      1.0971                 1.1005                 1.1030
 Frc consts  --      6.1979                 6.2229                 6.3168
 IR Inten    --     10.1472                42.3615                30.2438

                     88                     89                     90
                      A                      A                      A
 Frequencies --   3129.8192              3133.0383              3172.0385
 Red. masses --      1.1036                 1.0899                 1.1049
 Frc consts  --      6.3693                 6.3033                 6.5503
 IR Inten    --     15.1397                14.7995                 2.1596

                     91                     92                     93
                      A                      A                      A
 Frequencies --   3245.6814              3510.1568              3719.8703
 Red. masses --      1.0951                 1.0733                 1.0660
 Frc consts  --      6.7967                 7.7913                 8.6906
 IR Inten    --      7.1092                 2.0845                12.3845

 - Thermochemistry -
 -------------------
 Temperature   298.150 Kelvin.  Pressure   1.00000 Atm.
 Atom     1 has atomic number  6 and mass  12.00000

 Molecular mass:   226.11399 amu.
 Principal axes and moments of inertia in atomic units:
                           1         2         3
     Eigenvalues --  1790.982056344.608057079.29354
           X            0.99991   0.01312  -0.00108
           Y           -0.01310   0.99972   0.01962
           Z            0.00134  -0.01961   0.99981
 This molecule is an asymmetric top.
 Rotational symmetry number  1.
 Warning -- assumption of classical behavior for rotation
           may cause significant error
 Rotational temperatures (Kelvin)      0.04836     0.01365     0.01223
 Rotational constants (GHZ):           1.00768     0.28445     0.25493
 Zero-point vibrational energy     749425.3 (Joules/Mol)
                                  179.11695 (Kcal/Mol)
 Warning -- explicit consideration of  23 degrees of freedom as
           vibrations may cause significant error
 Vibrational temperatures:     55.61    70.37    96.38   146.97   168.47
          (Kelvin)            189.17   199.69   238.82   274.37   309.26
                              347.26   371.21   398.17   412.42   461.21
                              501.92   550.81   584.84   619.78   627.98
                              748.52   808.43   852.75   935.50   937.61
                              969.93  1014.19  1052.78  1093.72  1120.35
                             1162.12  1197.87  1263.77  1339.20  1377.30
                             1436.32  1443.72  1470.25  1480.78  1540.94
                             1589.13  1633.93  1667.61  1670.59  1681.90
                             1697.03  1714.87  1732.76  1736.97  1753.36
                             1780.86  1813.67  1847.33  1894.18  1929.01
                             1962.71  1973.41  2017.73  2022.01  2060.58
                             2084.83  2116.52  2131.44  2146.88  2162.43
                             2170.12  2178.78  2183.27  2190.15  2192.66
                             2205.33  2223.21  2233.26  2234.18  2351.43
                             4264.60  4341.34  4371.34  4371.65  4380.57
                             4387.09  4413.65  4417.64  4422.58  4455.10
                             4457.24  4485.70  4503.11  4507.74  4563.86
                             4669.81  5050.33  5352.06

 Zero-point correction=                           0.285441 (Hartree/Particle)
 Thermal correction to Energy=                    0.301228
 Thermal correction to Enthalpy=                  0.302172
 Thermal correction to Gibbs Free Energy=         0.241941
 Sum of electronic and zero-point Energies=          -1012.678919
 Sum of electronic and thermal Energies=             -1012.663133
 Sum of electronic and thermal Enthalpies=           -1012.662188
 Sum of electronic and thermal Free Energies=        -1012.722419

                     E (Thermal)             CV                S
                      KCal/Mol        Cal/Mol-Kelvin    Cal/Mol-Kelvin
 Total                  189.023             59.196            126.767
 Electronic               0.000              0.000              0.000
 Translational            0.889              2.981             42.150
 Rotational               0.889              2.981             32.753
 Vibrational            187.246             53.234             51.864
 Vibration     1          0.594              1.981              5.327
 Vibration     2          0.595              1.978              4.861
 Vibration     3          0.598              1.970              4.240
 Vibration     4          0.604              1.947              3.413
 Vibration     5          0.608              1.935              3.148
 Vibration     6          0.612              1.922              2.924
 Vibration     7          0.614              1.915              2.820
 Vibration     8          0.624              1.884              2.480
 Vibration     9          0.634              1.853              2.221
 Vibration    10          0.645              1.818              2.001
 Vibration    11          0.658              1.777              1.793
 Vibration    12          0.667              1.749              1.675
 Vibration    13          0.678              1.716              1.554
 Vibration    14          0.684              1.699              1.494
 Vibration    15          0.706              1.634              1.307
 Vibration    16          0.726              1.578              1.171
 Vibration    17          0.752              1.507              1.028
 Vibration    18          0.771              1.456              0.939
 Vibration    19          0.792              1.403              0.856
 Vibration    20          0.797              1.391              0.838
 Vibration    21          0.875              1.205              0.609
 Vibration    22          0.918              1.114              0.520
 Vibration    23          0.950              1.047              0.462

 Optimization completed.
    -- Stationary point found.
 Normal termination of Gaussian 16 at Thu Dec 10 15:05:07 2020.

 ----------------------------------------------------------------------
 # B3LYP/6-311++G(d,p) empiricaldispersion=gd3bj scf=xqc pop=npa geom=c
 heck
 ----------------------------------------------------------------------

 --------------------------------------
 CID_82618251_JID_5222_Energie_neutraal
 --------------------------------------
 Structure from the checkpoint file:  "JID_5222.chk"
 Charge =  0 Multiplicity = 1

 SCF Done:  E(RB3LYP) =  -1013.16899419     A.U. after   16 cycles
 Normal termination of Gaussian 16 at Thu Dec 10 15:11:34 2020.

 ----------------------------------------------------------------------
 # B3LYP/6-311++G(d,p) empiricaldispersion=gd3bj scf=xqc pop=npa geom=c
 heck
 ----------------------------------------------------------------------

 ------------------------------------
 CID_82618251_JID_5222_Energie_kation
 ------------------------------------
 Structure from the checkpoint file:  "JID_5222.chk"
 Charge =  1 Multiplicity = 2

 SCF Done:  E(UB3LYP) =  -1012.89899827     A.U. after   27 cycles
 Normal termination of Gaussian 16 at Thu Dec 10 15:27:46 2020.
 Gaussian 16:  ES64L-G16RevA.03 25-Dec-2016

 ----------------------------------------------------------------------
 # B3LYP/6-311++G(d,p) empiricaldispersion=gd3bj scf=xqc pop=npa geom=c
 heck
 ----------------------------------------------------------------------

 -----------------------------------
 CID_82618251_JID_5222_Energie_anion
 -----------------------------------
 Structure from the checkpoint file:  "JID_5222.chk"
 Charge = -1 Multiplicity = 2

                         Standard orientation:
 ---------------------------------------------------------------------
 Center     Atomic      Atomic             Coordinates (Angstroms)
 Number     Number       Type             X           Y           Z
 ---------------------------------------------------------------------
      1          6           0       -4.019683   -1.077862    1.657729
      2          7           0       -3.369699   -1.614916    0.467651
      3          6           0       -3.300907   -0.688436   -0.655006
      4          6           0       -2.419117    0.561621   -0.469026
      5          6           0       -0.973362    0.219411   -0.288022
      6          6           0       -0.277581   -0.951649   -0.541542
      7          6           0        1.094992   -0.721282   -0.238464
      8          6           0        1.202872    0.588287    0.195049
      9          7           0       -0.053407    1.157821    0.152409
     10          6           0       -0.373555    2.533421    0.496604
     11          6           0        2.436726    1.320463    0.624104
     12          6           0        3.571932    0.338493    0.939149
     13         16           0        3.868290   -0.861173   -0.415263
     14          6           0        2.229324   -1.695945   -0.353025
     15          8           0       -2.614513    1.479062   -1.564947
     16          1           0       -5.047211   -0.790666    1.405644
     17          1           0       -3.528926   -0.198077    2.111402
     18          1           0       -4.071344   -1.860533    2.421854
     19          1           0       -2.428402   -1.919572    0.705105
     20          1           0       -2.948515   -1.236565   -1.539276
     21          1           0       -4.314173   -0.339517   -0.883510
     22          1           0       -2.783975    1.120527    0.399967
     23          1           0       -0.700403   -1.874404   -0.916931
     24          1           0        0.503093    3.163483    0.334373
     25          1           0       -1.178229    2.882280   -0.152454
     26          1           0       -0.682608    2.627203    1.545188
     27          1           0        2.241403    1.921408    1.523814
     28          1           0        2.768709    2.019821   -0.156630
     29          1           0        3.352146   -0.214630    1.858911
     30          1           0        4.514860    0.872293    1.084374
     31          1           0        2.159231   -2.275455   -1.279543
     32          1           0        2.232980   -2.414614    0.476710
     33          1           0       -2.133280    1.103820   -2.320931
 ---------------------------------------------------------------------

 SCF Done:  E(UB3LYP) =  -1013.15759578     A.U. after   31 cycles

 The electronic state is 2-A.
 Alpha  occ. eigenvalues --  -88.74434 -19.03606 -14.26278 -14.20800 -10.13562
 Alpha  occ. eigenvalues --  -10.11088 -10.10627 -10.10422 -10.10245 -10.10009
 Alpha  occ. eigenvalues --  -10.09956 -10.09429 -10.08569 -10.06890 -10.06590
 Alpha  occ. eigenvalues --   -7.83049  -5.79435  -5.79104  -5.78405  -0.93652
 Alpha  occ. eigenvalues --   -0.88788  -0.81487  -0.74193  -0.70691  -0.66917
 Alpha  occ. eigenvalues --   -0.66088  -0.62335  -0.59172  -0.58035  -0.54421
 Alpha  occ. eigenvalues --   -0.51530  -0.50878  -0.47026  -0.44429  -0.42355
 Alpha  occ. eigenvalues --   -0.40043  -0.39102  -0.38152  -0.36366  -0.35597
 Alpha  occ. eigenvalues --   -0.34934  -0.34597  -0.33662  -0.32247  -0.31954
 Alpha  occ. eigenvalues --   -0.31025  -0.30778  -0.29750  -0.29242  -0.28782
 Alpha  occ. eigenvalues --   -0.27928  -0.27449  -0.25784  -0.24984  -0.23868
 Alpha  occ. eigenvalues --   -0.21897  -0.20689  -0.14334  -0.13475  -0.13267
 Alpha  occ. eigenvalues --   -0.11147   0.04260
 Alpha virt. eigenvalues --    0.06358   0.06918   0.07200   0.07935   0.08696
 Alpha virt. eigenvalues --    0.08953   0.09160   0.09539   0.09968   0.10420
 Alpha virt. eigenvalues --    0.11116   0.11462   0.12126   0.12333   0.12773

  Beta  occ. eigenvalues --  -88.74432 -19.03593 -14.26276 -14.20793 -10.13551
  Beta  occ. eigenvalues --  -10.11079 -10.10602 -10.10417 -10.10192 -10.10009
  Beta  occ. eigenvalues --  -10.09956 -10.09398 -10.08532 -10.06887 -10.06587
  Beta  occ. eigenvalues --   -7.83047  -5.79434  -5.79100  -5.78401  -0.93628
  Beta  occ. eigenvalues --   -0.88775  -0.81472  -0.74171  -0.70663  -0.66893
  Beta  occ. eigenvalues --   -0.66054  -0.62307  -0.59121  -0.57987  -0.54376
  Beta  occ. eigenvalues --   -0.51491  -0.50836  -0.47000  -0.44397  -0.42311
  Beta  occ. eigenvalues --   -0.40011  -0.39070  -0.38120  -0.36334  -0.35565
  Beta  occ. eigenvalues --   -0.34898  -0.34569  -0.33633  -0.32219  -0.31922
  Beta  occ. eigenvalues --   -0.30998  -0.30739  -0.29715  -0.29195  -0.28753
  Beta  occ. eigenvalues --   -0.27908  -0.27422  -0.25753  -0.24966  -0.23840
  Beta  occ. eigenvalues --   -0.21872  -0.20674  -0.14312  -0.13457  -0.13247
  Beta  occ. eigenvalues --   -0.11134
  Beta virt. eigenvalues --    0.06359   0.07163   0.07289   0.07510   0.08422
  Beta virt. eigenvalues --    0.08898   0.09145   0.09605   0.09994   0.10316
  Beta virt. eigenvalues --    0.10900   0.11266   0.11807   0.12207   0.12457

 Mulliken charges and spin densities:
               1          2
     1  C    0.409727  -0.834534
     2  N   -0.185024   0.095605
     3  C   -0.290479  -0.128168
     4  C   -0.389834  -1.008098
     5  C   -0.363315   1.120826
     6  C   -0.183249   0.195651
     7  C    0.809417   0.118616
     8  C   -0.367313  -0.184741
     9  N   -0.008177   0.314462
    10  C    1.145975  -1.517332
    11  C    0.405428  -0.875687
    12  C    0.117773  -0.652241
    13  S    0.034465   0.057206
    14  C   -0.573606  -0.422893
    15  O   -0.169740   0.025989
    16  H   -0.115786   0.255946
    17  H   -0.278757   0.415255
    18  H   -0.200598   0.345550
    19  H    0.177311   0.029513
    20  H    0.117680   0.046468
    21  H    0.067342   0.106444
    22  H    0.406254  -0.205610
    23  H    0.075333   0.101769
    24  H   -0.582588   0.769145
    25  H   -0.042012   0.238350
    26  H   -0.561877   0.768995
    27  H   -0.528960   0.709664
    28  H   -0.024980   0.175726
    29  H    0.028144   0.159650
    30  H   -0.299713   0.531989
    31  H    0.164266  -0.018536
    32  H    0.065606   0.161084
    33  H    0.141285   0.103936
 Sum of Mulliken charges =  -1.00000   1.00000

 Dipole moment (field-independent basis, Debye):
    X=             -0.2064    Y=             -5.0514    Z=             -5.0849  Tot=              7.1705
 Quadrupole moment (field-independent basis, Debye-Ang):
   XX=           -176.9013   YY=           -149.2002   ZZ=           -139.5652
   XY=             -6.8194   XZ=              3.1576   YZ=             -4.7469

 Summary of Natural Population Analysis:

                                       Natural Population
                Natural  -----------------------------------------------
    Atom  No    Charge         Core      Valence    Rydberg      Total
 -----------------------------------------------------------------------
      C    1   -0.18103      0.99966     2.17260    0.00877     3.18103
      N    2   -0.34207      0.99976     2.82975    0.01255     3.84207
      C    3   -0.09305      0.99961     2.08126    0.01218     3.09305
      C    4    0.03385      0.99950     1.95258    0.01406     2.96615
      C    5    0.05561      0.99951     1.93026    0.01462     2.94439
      C    6   -0.15623      0.99949     2.14280    0.01393     3.15623
      C    7   -0.02672      0.99949     2.01916    0.00807     3.02672
      C    8    0.07151      0.99948     1.90994    0.01908     2.92849
      N    9   -0.19690      0.99959     2.68609    0.01121     3.69690
      C   10   -0.18024      0.99963     2.17225    0.00837     3.18024
      C   11   -0.21101      0.99959     2.20076    0.01066     3.21101
      C   12   -0.24584      0.99961     2.23349    0.01274     3.24584
      S   13    0.07917      4.99966     2.90065    0.02051     7.92083
      C   14   -0.24299      0.99958     2.23224    0.01117     3.24299
      O   15   -0.36938      0.99990     3.36336    0.00612     4.36938
      H   16    0.08965      0.00000     0.40930    0.00106     0.41035
      H   17    0.08338      0.00000     0.41493    0.00169     0.41662
      H   18    0.09499      0.00000     0.40402    0.00099     0.40501
      H   19    0.17555      0.00000     0.32038    0.00407     0.32445
      H   20    0.09114      0.00000     0.40759    0.00127     0.40886
      H   21    0.09705      0.00000     0.40178    0.00117     0.40295
      H   22    0.09534      0.00000     0.40238    0.00228     0.40466
      H   23    0.10283      0.00000     0.39611    0.00106     0.39717
      H   24    0.10406      0.00000     0.39412    0.00182     0.39594
      H   25    0.11003      0.00000     0.38837    0.00160     0.38997
      H   26    0.10186      0.00000     0.39526    0.00288     0.39814
      H   27    0.11316      0.00000     0.38329    0.00355     0.38684
      H   28    0.10586      0.00000     0.39189    0.00224     0.39414
      H   29    0.10135      0.00000     0.39697    0.00168     0.39865
      H   30    0.10874      0.00000     0.38993    0.00133     0.39126
      H   31    0.10390      0.00000     0.39467    0.00142     0.39610
      H   32    0.09922      0.00000     0.39898    0.00180     0.40078
      H   33    0.22751      0.00000     0.26949    0.00300     0.27249
 =======================================================================
   * Total *    0.00031     18.99405    41.78665    0.21898    60.99969

 Normal termination of Gaussian 16 at Thu Dec 10 15:45:43 2020.
