 Gaussian 16, Revision A.03,

 -----------------------------------------------------------
 # opt freq B3LYP/6-31G(d) empiricaldispersion=gd3bj scf=xqc
 -----------------------------------------------------------

 -------------------------------
 CID_112939685_JID_5937_neutraal
 -------------------------------
 Symbolic Z-matrix:
 Charge =  0 Multiplicity = 1

 SCF Done:  E(RB3LYP) =  -700.936770331     A.U. after   14 cycles
 SCF Done:  E(RB3LYP) =  -700.947441278     A.U. after   13 cycles
 SCF Done:  E(RB3LYP) =  -700.950872467     A.U. after   12 cycles
 SCF Done:  E(RB3LYP) =  -700.953837005     A.U. after   13 cycles
 SCF Done:  E(RB3LYP) =  -700.955535230     A.U. after   13 cycles
 SCF Done:  E(RB3LYP) =  -700.955959482     A.U. after   14 cycles
 SCF Done:  E(RB3LYP) =  -700.956661671     A.U. after   12 cycles
 SCF Done:  E(RB3LYP) =  -700.956736340     A.U. after   11 cycles
 SCF Done:  E(RB3LYP) =  -700.956781444     A.U. after   10 cycles
 SCF Done:  E(RB3LYP) =  -700.956810650     A.U. after   10 cycles
 SCF Done:  E(RB3LYP) =  -700.957540620     A.U. after    8 cycles
 SCF Done:  E(RB3LYP) =  -700.957540672     A.U. after    7 cycles
 SCF Done:  E(RB3LYP) =  -700.957540721     A.U. after    8 cycles
 SCF Done:  E(RB3LYP) =  -700.957540732     A.U. after    7 cycles
 SCF Done:  E(RB3LYP) =  -700.957540736     A.U. after    7 cycles
 Optimization completed.
    -- Stationary point found.
 Normal termination of Gaussian 16 at Thu Dec 10 17:49:12 2020.

 --------------------------------------------------------------------
 #N Geom=AllCheck Guess=TCheck SCRF=Check GenChk RB3LYP/6-31G(d) Freq
 --------------------------------------------------------------------

 Structure from the checkpoint file:  "JID_5937.chk"
 -------------------------------
 CID_112939685_JID_5937_neutraal
 -------------------------------
 Charge =  0 Multiplicity = 1

 SCF Done:  E(RB3LYP) =  -700.957540736     A.U. after    1 cycles

  Exact polarizability: 204.056  18.815 124.511  -2.126  -8.086  88.798
 Approx polarizability: 262.129  24.068 198.359  -7.501 -18.494 132.132

                      1                      2                      3
                      A                      A                      A
 Frequencies --     15.3244                36.3078                45.1301
 Red. masses --      4.0915                 3.8427                 4.4317
 Frc consts  --      0.0006                 0.0030                 0.0053
 IR Inten    --      0.0649                 0.6622                 0.7216

                      4                      5                      6
                      A                      A                      A
 Frequencies --     62.8153                86.5411               101.6374
 Red. masses --      3.4219                 3.0579                 2.5841
 Frc consts  --      0.0080                 0.0135                 0.0157
 IR Inten    --      0.8959                 0.5968                 1.9234

                      7                      8                      9
                      A                      A                      A
 Frequencies --    113.2183               143.9984               181.2844
 Red. masses --      2.8206                 3.5487                 4.4602
 Frc consts  --      0.0213                 0.0434                 0.0864
 IR Inten    --      3.5336                 4.2010                 8.4562

                     10                     11                     12
                      A                      A                      A
 Frequencies --    201.0425               228.9309               233.8255
 Red. masses --      5.1339                 1.5752                 2.8053
 Frc consts  --      0.1223                 0.0486                 0.0904
 IR Inten    --      1.3969                 1.6650                 6.7717

                     13                     14                     15
                      A                      A                      A
 Frequencies --    279.5653               323.7420               355.5058
 Red. masses --      1.9604                 2.9840                 2.9223
 Frc consts  --      0.0903                 0.1843                 0.2176
 IR Inten    --      3.0872                 3.2365                 3.2873

                     16                     17                     18
                      A                      A                      A
 Frequencies --    367.8040               454.7117               467.2078
 Red. masses --      2.8106                 2.8027                 6.0105
 Frc consts  --      0.2240                 0.3414                 0.7730
 IR Inten    --      5.5139                20.0900                 7.4048

                     19                     20                     21
                      A                      A                      A
 Frequencies --    500.1131               520.3544               536.1740
 Red. masses --      2.5537                 1.5593                 1.8797
 Frc consts  --      0.3763                 0.2488                 0.3184
 IR Inten    --     20.1520               118.2101                14.2297

                     22                     23                     24
                      A                      A                      A
 Frequencies --    550.6938               645.9835               660.0046
 Red. masses --      1.4931                 2.9361                 4.6004
 Frc consts  --      0.2668                 0.7219                 1.1807
 IR Inten    --     88.7906                16.9671                 2.2799

                     25                     26                     27
                      A                      A                      A
 Frequencies --    690.2761               714.4087               781.2413
 Red. masses --      2.0799                 4.6893                 3.3343
 Frc consts  --      0.5839                 1.4101                 1.1990
 IR Inten    --     16.4013                12.1031                 4.0480

                     28                     29                     30
                      A                      A                      A
 Frequencies --    797.5813               842.2620               862.2148
 Red. masses --      7.4366                 1.3964                 2.1446
 Frc consts  --      2.7873                 0.5836                 0.9393
 IR Inten    --     13.9312                15.1441                12.2600

                     31                     32                     33
                      A                      A                      A
 Frequencies --    924.1567               939.5409               943.4921
 Red. masses --      1.7283                 2.0379                 1.3468
 Frc consts  --      0.8697                 1.0599                 0.7063
 IR Inten    --      4.9909                 0.9242                37.2231

                     34                     35                     36
                      A                      A                      A
 Frequencies --    973.4112              1018.7398              1028.6421
 Red. masses --      2.2035                 7.4131                 3.7180
 Frc consts  --      1.2301                 4.5329                 2.3179
 IR Inten    --     12.0280                 1.3620                20.4570

                     37                     38                     39
                      A                      A                      A
 Frequencies --   1045.8302              1062.7756              1122.3568
 Red. masses --      1.1377                 3.0865                 2.1605
 Frc consts  --      0.7331                 2.0540                 1.6035
 IR Inten    --     16.0700                19.7111                50.5894

                     40                     41                     42
                      A                      A                      A
 Frequencies --   1128.8710              1139.9016              1157.3414
 Red. masses --      2.1600                 3.5316                 3.2189
 Frc consts  --      1.6218                 2.7037                 2.5403
 IR Inten    --     17.4464                35.3599                72.5285

                     43                     44                     45
                      A                      A                      A
 Frequencies --   1172.9299              1184.7768              1196.5458
 Red. masses --      5.3043                 2.4455                 1.3208
 Frc consts  --      4.2995                 2.0225                 1.1141
 IR Inten    --    155.4509                14.7506                 2.6247

                     46                     47                     48
                      A                      A                      A
 Frequencies --   1225.6302              1257.2347              1270.4415
 Red. masses --      1.4614                 2.1229                 1.2600
 Frc consts  --      1.2934                 1.9770                 1.1982
 IR Inten    --     80.5354                99.5738                11.0307

                     49                     50                     51
                      A                      A                      A
 Frequencies --   1284.1462              1307.1454              1323.7198
 Red. masses --      1.2958                 1.2624                 1.2381
 Frc consts  --      1.2590                 1.2709                 1.2782
 IR Inten    --      3.5588                11.4424                 1.3920

                     52                     53                     54
                      A                      A                      A
 Frequencies --   1350.6454              1379.7611              1403.4714
 Red. masses --      1.8443                 1.3228                 1.4736
 Frc consts  --      1.9823                 1.4837                 1.7102
 IR Inten    --    124.5640                55.0010                13.5587

                     55                     56                     57
                      A                      A                      A
 Frequencies --   1437.1886              1440.9517              1454.4588
 Red. masses --      1.5044                 1.6176                 2.0718
 Frc consts  --      1.8308                 1.9788                 2.5822
 IR Inten    --     95.9096                 2.5916                24.7405

                     58                     59                     60
                      A                      A                      A
 Frequencies --   1475.8061              1495.1745              1503.3687
 Red. masses --      1.2166                 1.1555                 1.1726
 Frc consts  --      1.5612                 1.5219                 1.5614
 IR Inten    --     15.8376                 7.6274                13.0019

                     61                     62                     63
                      A                      A                      A
 Frequencies --   1515.9812              1526.6772              1531.4232
 Red. masses --      1.0482                 1.0972                 1.0889
 Frc consts  --      1.4193                 1.5067                 1.5046
 IR Inten    --      5.4401               103.7307                21.0205

                     64                     65                     66
                      A                      A                      A
 Frequencies --   1534.4928              1551.8753              1599.3262
 Red. masses --      3.0782                 1.0943                 3.2623
 Frc consts  --      4.2705                 1.5527                 4.9164
 IR Inten    --    364.3937                 3.1285               464.7829

                     67                     68                     69
                      A                      A                      A
 Frequencies --   1608.3541              1631.2205              1733.4033
 Red. masses --      4.5450                 5.3377                 4.4668
 Frc consts  --      6.9271                 8.3682                 7.9076
 IR Inten    --    257.2720               386.5628                 5.6088

                     70                     71                     72
                      A                      A                      A
 Frequencies --   2990.2016              3002.8228              3020.5538
 Red. masses --      1.0498                 1.0420                 1.0901
 Frc consts  --      5.5304                 5.5358                 5.8597
 IR Inten    --     27.1636                91.1682                 4.2361

                     73                     74                     75
                      A                      A                      A
 Frequencies --   3038.6458              3047.2017              3073.2955
 Red. masses --      1.0894                 1.1056                 1.0633
 Frc consts  --      5.9267                 6.0484                 5.9170
 IR Inten    --    121.2360                45.7463                43.3497

                     76                     77                     78
                      A                      A                      A
 Frequencies --   3131.8133              3138.9264              3144.4424
 Red. masses --      1.1009                 1.0915                 1.0976
 Frc consts  --      6.3618                 6.3365                 6.3943
 IR Inten    --      2.4137                 7.7024                27.8971

                     79                     80                     81
                      A                      A                      A
 Frequencies --   3151.3511              3175.2939              3185.9044
 Red. masses --      1.0595                 1.0927                 1.0912
 Frc consts  --      6.1992                 6.4910                 6.5256
 IR Inten    --     17.7427                 4.2922                14.3919

                     82                     83                     84
                      A                      A                      A
 Frequencies --   3233.6034              3613.0369              3621.2307
 Red. masses --      1.1147                 1.0761                 1.0765
 Frc consts  --      6.8675                 8.2768                 8.3170
 IR Inten    --     19.7501                27.0125                84.9318

 - Thermochemistry -
 -------------------
 Temperature   298.150 Kelvin.  Pressure   1.00000 Atm.
 Atom     1 has atomic number  6 and mass  12.00000

 Molecular mass:   209.12766 amu.
 Principal axes and moments of inertia in atomic units:
                           1         2         3
     Eigenvalues --  1233.751208404.619549158.12592
           X            0.99999   0.00324  -0.00245
           Y           -0.00323   0.99999   0.00227
           Z            0.00245  -0.00227   0.99999
 This molecule is an asymmetric top.
 Rotational symmetry number  1.
 Warning -- assumption of classical behavior for rotation
           may cause significant error
 Rotational temperatures (Kelvin)      0.07020     0.01031     0.00946
 Rotational constants (GHZ):           1.46281     0.21473     0.19706
 Zero-point vibrational energy     659438.1 (Joules/Mol)
                                  157.60948 (Kcal/Mol)
 Warning -- explicit consideration of  22 degrees of freedom as
           vibrations may cause significant error
 Vibrational temperatures:     22.05    52.24    64.93    90.38   124.51
          (Kelvin)            146.23   162.90   207.18   260.83   289.26
                              329.38   336.42   402.23   465.79   511.49
                              529.19   654.23   672.21   719.55   748.67
                              771.43   792.33   929.43   949.60   993.15
                             1027.87  1124.03  1147.54  1211.83  1240.53
                             1329.66  1351.79  1357.47  1400.52  1465.74
                             1479.99  1504.72  1529.10  1614.82  1624.19
                             1640.06  1665.16  1687.58  1704.63  1721.56
                             1763.41  1808.88  1827.88  1847.60  1880.69
                             1904.54  1943.28  1985.17  2019.28  2067.79
                             2073.21  2092.64  2123.36  2151.22  2163.01
                             2181.16  2196.55  2203.38  2207.79  2232.80
                             2301.07  2314.06  2346.96  2493.98  4302.23
                             4320.39  4345.90  4371.93  4384.24  4421.79
                             4505.98  4516.21  4524.15  4534.09  4568.54
                             4583.81  4652.43  5198.35  5210.14

 Zero-point correction=                           0.251167 (Hartree/Particle)
 Thermal correction to Energy=                    0.266720
 Thermal correction to Enthalpy=                  0.267664
 Thermal correction to Gibbs Free Energy=         0.205541
 Sum of electronic and zero-point Energies=           -700.706374
 Sum of electronic and thermal Energies=              -700.690821
 Sum of electronic and thermal Enthalpies=            -700.689877
 Sum of electronic and thermal Free Energies=         -700.751999

                     E (Thermal)             CV                S
                      KCal/Mol        Cal/Mol-Kelvin    Cal/Mol-Kelvin
 Total                  167.369             55.857            130.748
 Electronic               0.000              0.000              0.000
 Translational            0.889              2.981             41.917
 Rotational               0.889              2.981             32.918
 Vibrational            165.592             49.895             55.913
 Vibration     1          0.593              1.986              7.163
 Vibration     2          0.594              1.982              5.451
 Vibration     3          0.595              1.979              5.020
 Vibration     4          0.597              1.972              4.367
 Vibration     5          0.601              1.959              3.737
 Vibration     6          0.604              1.948              3.423
 Vibration     7          0.607              1.939              3.213
 Vibration     8          0.616              1.909              2.750
 Vibration     9          0.630              1.865              2.315
 Vibration    10          0.638              1.838              2.124
 Vibration    11          0.652              1.797              1.887
 Vibration    12          0.654              1.789              1.849
 Vibration    13          0.680              1.711              1.536
 Vibration    14          0.708              1.628              1.291
 Vibration    15          0.731              1.564              1.142
 Vibration    16          0.740              1.538              1.089
 Vibration    17          0.813              1.350              0.782
 Vibration    18          0.824              1.323              0.745
 Vibration    19          0.856              1.250              0.658
 Vibration    20          0.875              1.205              0.609
 Vibration    21          0.891              1.170              0.574
 Vibration    22          0.906              1.138              0.543

 Optimization completed.
    -- Stationary point found.
 Normal termination of Gaussian 16 at Thu Dec 10 17:56:15 2020.

 ----------------------------------------------------------------------
 # B3LYP/6-311++G(d,p) empiricaldispersion=gd3bj scf=xqc pop=npa geom=c
 heck
 ----------------------------------------------------------------------

 ---------------------------------------
 CID_112939685_JID_5937_Energie_neutraal
 ---------------------------------------
 Structure from the checkpoint file:  "JID_5937.chk"
 Charge =  0 Multiplicity = 1

 SCF Done:  E(RB3LYP) =  -701.159665324     A.U. after   14 cycles
 Normal termination of Gaussian 16 at Thu Dec 10 17:59:16 2020.

 ----------------------------------------------------------------------
 # B3LYP/6-311++G(d,p) empiricaldispersion=gd3bj scf=xqc pop=npa geom=c
 heck
 ----------------------------------------------------------------------

 -------------------------------------
 CID_112939685_JID_5937_Energie_kation
 -------------------------------------
 Structure from the checkpoint file:  "JID_5937.chk"
 Charge =  1 Multiplicity = 2

 SCF Done:  E(UB3LYP) =  -700.872282681     A.U. after   27 cycles
 Normal termination of Gaussian 16 at Thu Dec 10 18:06:26 2020.
 Gaussian 16:  ES64L-G16RevA.03 25-Dec-2016

 ----------------------------------------------------------------------
 # B3LYP/6-311++G(d,p) empiricaldispersion=gd3bj scf=xqc pop=npa geom=c
 heck
 ----------------------------------------------------------------------

 ------------------------------------
 CID_112939685_JID_5937_Energie_anion
 ------------------------------------
 Structure from the checkpoint file:  "JID_5937.chk"
 Charge = -1 Multiplicity = 2

                         Standard orientation:
 ---------------------------------------------------------------------
 Center     Atomic      Atomic             Coordinates (Angstroms)
 Number     Number       Type             X           Y           Z
 ---------------------------------------------------------------------
      1          6           0        5.831328   -0.358698   -0.551957
      2          8           0        4.586830   -0.208870    0.100546
      3          6           0        3.700797   -1.287945   -0.146023
      4          6           0        2.381098   -0.955006    0.526958
      5          7           0        1.898015    0.317805    0.024354
      6          6           0        0.598409    0.701912    0.076859
      7          6           0        0.213263    2.022881   -0.295516
      8          7           0       -1.050831    2.390957   -0.293015
      9          7           0       -2.001654    1.519982    0.068732
     10          6           0       -1.594959    0.289316    0.437378
     11          7           0       -0.326186   -0.176249    0.456184
     12          7           0       -2.552998   -0.584894    0.863427
     13          6           0       -3.980248   -0.342264    0.670724
     14          6           0       -4.442012   -0.668002   -0.725300
     15          6           0       -5.360951   -1.587944   -1.015848
     16          1           0        6.432378    0.519981   -0.306364
     17          1           0        5.709972   -0.419733   -1.644751
     18          1           0        6.359101   -1.262000   -0.209251
     19          1           0        3.552216   -1.418465   -1.230207
     20          1           0        4.107659   -2.227850    0.260158
     21          1           0        1.634964   -1.722187    0.309181
     22          1           0        2.518072   -0.923682    1.617613
     23          1           0        2.604812    1.028993   -0.105241
     24          1           0        0.943980    2.766272   -0.604292
     25          1           0       -2.241763   -1.546341    0.900936
     26          1           0       -4.527501   -0.941710    1.406092
     27          1           0       -4.153070    0.714211    0.890784
     28          1           0       -3.959974   -0.094958   -1.516023
     29          1           0       -5.667202   -1.792935   -2.038062
     30          1           0       -5.853055   -2.167348   -0.236363
 ---------------------------------------------------------------------

 SCF Done:  E(UB3LYP) =  -701.154970509     A.U. after   33 cycles
 SCF Done:  E(UB3LYP) =  -701.154970509     a.u. after    1 cycles

 The electronic state is 2-A.
 Alpha  occ. eigenvalues --  -19.03429 -14.22532 -14.22300 -14.20182 -14.19049
 Alpha  occ. eigenvalues --  -14.17863 -10.14684 -10.13061 -10.12108 -10.11515
 Alpha  occ. eigenvalues --  -10.11359 -10.10176 -10.09302 -10.08634 -10.06989
 Alpha  occ. eigenvalues --   -0.94713  -0.90697  -0.84676  -0.83555  -0.77276
 Alpha  occ. eigenvalues --   -0.70543  -0.68168  -0.65746  -0.60235  -0.58712
 Alpha  occ. eigenvalues --   -0.54917  -0.52784  -0.50632  -0.48154  -0.45239
 Alpha  occ. eigenvalues --   -0.42812  -0.40635  -0.39748  -0.38673  -0.37598
 Alpha  occ. eigenvalues --   -0.36180  -0.36047  -0.35354  -0.34674  -0.34135
 Alpha  occ. eigenvalues --   -0.32531  -0.31102  -0.29465  -0.28493  -0.27802
 Alpha  occ. eigenvalues --   -0.27193  -0.24058  -0.22789  -0.22539  -0.19944
 Alpha  occ. eigenvalues --   -0.18819  -0.18544  -0.17171  -0.13727  -0.10761
 Alpha  occ. eigenvalues --   -0.10168   0.04235
 Alpha virt. eigenvalues --    0.05953   0.06369   0.07531   0.07811   0.08165
 Alpha virt. eigenvalues --    0.08845   0.08979   0.09892   0.09945   0.10850
 Alpha virt. eigenvalues --    0.11043   0.11710   0.11995   0.12166   0.12621

  Beta  occ. eigenvalues --  -19.03420 -14.22534 -14.22287 -14.19724 -14.18990
  Beta  occ. eigenvalues --  -14.17657 -10.14677 -10.12953 -10.12076 -10.11514
  Beta  occ. eigenvalues --  -10.11304 -10.10171 -10.09299 -10.08622 -10.06991
  Beta  occ. eigenvalues --   -0.94698  -0.90383  -0.84554  -0.83294  -0.77001
  Beta  occ. eigenvalues --   -0.70461  -0.68012  -0.65614  -0.60198  -0.58563
  Beta  occ. eigenvalues --   -0.54609  -0.52702  -0.50521  -0.48127  -0.45078
  Beta  occ. eigenvalues --   -0.42747  -0.40556  -0.39685  -0.38588  -0.37553
  Beta  occ. eigenvalues --   -0.36078  -0.35980  -0.35238  -0.34604  -0.34043
  Beta  occ. eigenvalues --   -0.32197  -0.30836  -0.29422  -0.28414  -0.27722
  Beta  occ. eigenvalues --   -0.27136  -0.23860  -0.22527  -0.21284  -0.19742
  Beta  occ. eigenvalues --   -0.18646  -0.18228  -0.17142  -0.13220  -0.10335
  Beta  occ. eigenvalues --   -0.09787
  Beta virt. eigenvalues --    0.06216   0.06933   0.07495   0.08014   0.08300
  Beta virt. eigenvalues --    0.08979   0.09189   0.09514   0.09922   0.10035
  Beta virt. eigenvalues --    0.11122   0.11423   0.11876   0.12104   0.12166

 Mulliken charges and spin densities:
               1          2
     1  C    1.108107  -1.357870
     2  O   -0.270263   0.097042
     3  C    0.288912  -0.528503
     4  C   -0.255494  -0.071036
     5  N   -0.114512   0.036173
     6  C    0.166474  -0.037444
     7  C   -0.361927   0.089675
     8  N   -0.078841   0.192714
     9  N   -0.194792   0.030738
    10  C   -0.263343  -0.047004
    11  N   -0.328870   0.119557
    12  N   -0.002289   0.005023
    13  C   -0.515665  -0.102224
    14  C    0.403490   0.088553
    15  C   -0.525548  -0.048325
    16  H   -0.340296   0.478092
    17  H   -0.332638   0.465229
    18  H   -0.557172   0.694066
    19  H    0.030127   0.117558
    20  H   -0.212186   0.363274
    21  H    0.053296   0.116756
    22  H    0.050339   0.133151
    23  H    0.297676  -0.013713
    24  H    0.071414   0.062316
    25  H    0.234110   0.024671
    26  H    0.139169   0.014140
    27  H    0.182170   0.017710
    28  H    0.165966   0.014450
    29  H    0.101476   0.008931
    30  H    0.061110   0.036298
 Sum of Mulliken charges =  -1.00000   1.00000

 Dipole moment (field-independent basis, Debye):
    X=             -8.1734    Y=             -1.8993    Z=              0.7396  Tot=              8.4237
 Quadrupole moment (field-independent basis, Debye-Ang):
   XX=           -200.7611   YY=           -123.3890   ZZ=           -109.2606
   XY=             22.9032   XZ=              1.5655   YZ=              0.3787

 Summary of Natural Population Analysis:

                                       Natural Population
                Natural  -----------------------------------------------
    Atom  No    Charge         Core      Valence    Rydberg      Total
 -----------------------------------------------------------------------
      C    1   -0.09560      0.99962     2.08694    0.00903     3.09560
      O    2   -0.30615      0.99988     3.29571    0.01056     4.30615
      C    3   -0.01145      0.99959     1.99886    0.01300     3.01145
      C    4   -0.09630      0.99962     2.08432    0.01236     3.09630
      N    5   -0.30323      0.99966     2.79383    0.00973     3.80323
      C    6    0.22294      0.99956     1.76400    0.01350     2.77706
      C    7   -0.05113      0.99959     2.03654    0.01500     3.05113
      N    8   -0.04551      0.99972     2.52998    0.01582     3.54551
      N    9   -0.20236      0.99969     2.68800    0.01467     3.70236
      C   10    0.29031      0.99962     1.69182    0.01825     2.70969
      N   11   -0.27055      0.99964     2.76115    0.00976     3.77055
      N   12   -0.31236      0.99966     2.80116    0.01154     3.81236
      C   13   -0.10824      0.99960     2.09709    0.01154     3.10824
      C   14   -0.08156      0.99957     2.07251    0.00948     3.08156
      C   15   -0.20302      0.99958     2.19600    0.00744     3.20302
      H   16    0.09046      0.00000     0.40810    0.00144     0.40954
      H   17    0.07916      0.00000     0.41874    0.00211     0.42084
      H   18    0.08172      0.00000     0.41508    0.00320     0.41828
      H   19    0.08084      0.00000     0.41752    0.00164     0.41916
      H   20    0.08386      0.00000     0.41430    0.00183     0.41614
      H   21    0.10927      0.00000     0.38877    0.00196     0.39073
      H   22    0.09085      0.00000     0.40760    0.00155     0.40915
      H   23    0.19527      0.00000     0.30145    0.00328     0.30473
      H   24    0.08760      0.00000     0.41018    0.00222     0.41240
      H   25    0.18954      0.00000     0.30785    0.00261     0.31046
      H   26    0.08978      0.00000     0.40875    0.00147     0.41022
      H   27    0.11719      0.00000     0.38104    0.00177     0.38281
      H   28    0.10122      0.00000     0.39741    0.00137     0.39878
      H   29    0.09167      0.00000     0.40716    0.00117     0.40833
      H   30    0.08579      0.00000     0.41263    0.00157     0.41421
 =======================================================================
   * Total *    0.00000     14.99460    40.79452    0.21088    56.00000

 Normal termination of Gaussian 16 at Thu Dec 10 18:15:14 2020.
