 Gaussian 16, Revision A.03,

 -----------------------------------------------------------
 # opt freq B3LYP/6-31G(d) empiricaldispersion=gd3bj scf=xqc
 -----------------------------------------------------------

 -------------------------------
 CID_80873097_JID_10576_neutraal
 -------------------------------
 Symbolic Z-matrix:
 Charge =  0 Multiplicity = 1

 SCF Done:  E(RB3LYP) =  -1357.95817435     A.U. after   16 cycles
 SCF Done:  E(RB3LYP) =  -1357.96947073     A.U. after   16 cycles
 SCF Done:  E(RB3LYP) =  -1357.96618904     A.U. after   17 cycles
 SCF Done:  E(RB3LYP) =  -1357.96573590     A.U. after   16 cycles
 SCF Done:  E(RB3LYP) =  -1357.96623913     A.U. after   15 cycles
 SCF Done:  E(RB3LYP) =  -1357.97082359     A.U. after   12 cycles
 SCF Done:  E(RB3LYP) =  -1357.97355138     A.U. after   16 cycles
 SCF Done:  E(RB3LYP) =  -1357.97622203     A.U. after   15 cycles
 SCF Done:  E(RB3LYP) =  -1357.97609960     A.U. after   15 cycles
 SCF Done:  E(RB3LYP) =  -1357.97644779     A.U. after   15 cycles
 SCF Done:  E(RB3LYP) =  -1357.98147831     A.U. after   13 cycles
 SCF Done:  E(RB3LYP) =  -1357.98148580     A.U. after   11 cycles
 SCF Done:  E(RB3LYP) =  -1357.98148971     A.U. after   10 cycles
 SCF Done:  E(RB3LYP) =  -1357.98149102     A.U. after   10 cycles
 SCF Done:  E(RB3LYP) =  -1357.98149136     A.U. after    9 cycles
 SCF Done:  E(RB3LYP) =  -1357.98149148     A.U. after    8 cycles
 Optimization completed.
    -- Stationary point found.
 Normal termination of Gaussian 16 at Sun Dec 13 17:01:24 2020.

 --------------------------------------------------------------------
 #N Geom=AllCheck Guess=TCheck SCRF=Check GenChk RB3LYP/6-31G(d) Freq
 --------------------------------------------------------------------

 Structure from the checkpoint file:  "JID_10576.chk"
 -------------------------------
 CID_80873097_JID_10576_neutraal
 -------------------------------
 Charge =  0 Multiplicity = 1

 SCF Done:  E(RB3LYP) =  -1357.98149147     A.U. after    1 cycles

  Exact polarizability: 224.200  -7.224 167.584  31.373   8.073 106.244
 Approx polarizability: 353.982  -9.699 365.240  75.900  20.917 190.267

                      1                      2                      3
                      A                      A                      A
 Frequencies --     34.5308                43.8102                54.7455
 Red. masses --      8.1336                 8.1572                 6.8174
 Frc consts  --      0.0057                 0.0092                 0.0120
 IR Inten    --      1.3477                 3.6757                 0.5081

                      4                      5                      6
                      A                      A                      A
 Frequencies --     71.7168                85.6000                99.3030
 Red. masses --     14.6541                10.7479                 7.2072
 Frc consts  --      0.0444                 0.0464                 0.0419
 IR Inten    --      0.2667                 0.1445                 1.9876

                      7                      8                      9
                      A                      A                      A
 Frequencies --    131.9036               180.4997               193.4391
 Red. masses --      5.6542                11.3956                12.8551
 Frc consts  --      0.0580                 0.2187                 0.2834
 IR Inten    --      0.2813                 1.9445                 5.5631

                     10                     11                     12
                      A                      A                      A
 Frequencies --    209.7759               227.2686               254.1490
 Red. masses --     13.2413                 7.8792                 5.9837
 Frc consts  --      0.3433                 0.2398                 0.2277
 IR Inten    --      5.7878                 1.0023                 2.9282

                     13                     14                     15
                      A                      A                      A
 Frequencies --    288.2353               314.2464               369.5009
 Red. masses --      7.1964                 7.5081                 4.0847
 Frc consts  --      0.3523                 0.4368                 0.3286
 IR Inten    --      1.1719                 1.7681                53.5171

                     16                     17                     18
                      A                      A                      A
 Frequencies --    377.1806               393.3466               405.6371
 Red. masses --      1.5974                 6.4932                 3.9495
 Frc consts  --      0.1339                 0.5919                 0.3829
 IR Inten    --    169.1530                22.0191                 7.8280

                     19                     20                     21
                      A                      A                      A
 Frequencies --    423.3308               428.9475               470.2923
 Red. masses --      4.4045                 9.8054                 4.2748
 Frc consts  --      0.4651                 1.0630                 0.5571
 IR Inten    --      1.0041                 1.3633                12.7663

                     22                     23                     24
                      A                      A                      A
 Frequencies --    488.1065               519.8157               571.2168
 Red. masses --      8.8212                 4.6586                 6.2481
 Frc consts  --      1.2382                 0.7417                 1.2012
 IR Inten    --      6.2886                 7.0634                 6.0898

                     25                     26                     27
                      A                      A                      A
 Frequencies --    581.3954               589.3271               631.4851
 Red. masses --      5.8112                 5.4991                 1.4576
 Frc consts  --      1.1573                 1.1253                 0.3425
 IR Inten    --      3.7157                 1.8739                 7.0217

                     28                     29                     30
                      A                      A                      A
 Frequencies --    661.2006               664.5498               710.1932
 Red. masses --      3.2980                 5.4452                 5.7474
 Frc consts  --      0.8495                 1.4168                 1.7080
 IR Inten    --      0.3547                 7.9060                 6.1815

                     31                     32                     33
                      A                      A                      A
 Frequencies --    734.0478               747.8916               757.5493
 Red. masses --      4.4574                10.3189                 2.5239
 Frc consts  --      1.4151                 3.4006                 0.8534
 IR Inten    --     17.8175                 2.0312                24.0694

                     34                     35                     36
                      A                      A                      A
 Frequencies --    792.2933               797.5721               801.2762
 Red. masses --     10.0175                 2.1955                 9.7676
 Frc consts  --      3.7049                 0.8229                 3.6949
 IR Inten    --     34.0544                 9.4907                15.4521

                     37                     38                     39
                      A                      A                      A
 Frequencies --    864.1621               871.3045               888.7199
 Red. masses --     10.1749                12.8827                 1.4028
 Frc consts  --      4.4768                 5.7623                 0.6528
 IR Inten    --     13.8792                62.9951                 0.1501

                     40                     41                     42
                      A                      A                      A
 Frequencies --    966.1532               986.4354               996.4057
 Red. masses --      1.3625                 5.0311                 1.5286
 Frc consts  --      0.7493                 2.8844                 0.8942
 IR Inten    --      0.7324                31.9732                 4.7443

                     43                     44                     45
                      A                      A                      A
 Frequencies --    999.2768              1050.5499              1070.0788
 Red. masses --      1.3037                 2.4746                 3.7479
 Frc consts  --      0.7670                 1.6091                 2.5286
 IR Inten    --      0.3327                18.2954                 6.4696

                     46                     47                     48
                      A                      A                      A
 Frequencies --   1079.6474              1140.5999              1152.1313
 Red. masses --      3.9517                 4.4282                 2.1392
 Frc consts  --      2.7139                 3.3943                 1.6730
 IR Inten    --      1.9730                 3.9435                 2.9110

                     49                     50                     51
                      A                      A                      A
 Frequencies --   1177.6529              1200.6092              1250.1754
 Red. masses --      2.0048                 1.0982                 4.0620
 Frc consts  --      1.6381                 0.9327                 3.7405
 IR Inten    --      6.6247                 0.2858                22.2973

                     52                     53                     54
                      A                      A                      A
 Frequencies --   1296.6378              1300.2535              1353.6681
 Red. masses --      2.3425                 2.8777                 6.3428
 Frc consts  --      2.3204                 2.8665                 6.8478
 IR Inten    --     86.1488                75.6420                 9.5372

                     55                     56                     57
                      A                      A                      A
 Frequencies --   1370.4022              1380.3353              1404.7306
 Red. masses --      7.4721                 4.0692                11.3437
 Frc consts  --      8.2678                 4.5680                13.1884
 IR Inten    --    131.8190                19.7497               115.7115

                     58                     59                     60
                      A                      A                      A
 Frequencies --   1421.4302              1481.8640              1501.9217
 Red. masses --      2.0960                 2.1532                 2.2043
 Frc consts  --      2.4951                 2.7859                 2.9297
 IR Inten    --    136.9061                 4.7825                23.9436

                     61                     62                     63
                      A                      A                      A
 Frequencies --   1511.1478              1565.3819              1575.3324
 Red. masses --      2.3754                 8.9422                 4.3475
 Frc consts  --      3.1960                12.9103                 6.3567
 IR Inten    --     18.8969               317.6803                84.6181

                     64                     65                     66
                      A                      A                      A
 Frequencies --   1618.8415              1629.9425              1638.9602
 Red. masses --      7.3351                 5.1689                 5.3276
 Frc consts  --     11.3256                 8.0908                 8.4317
 IR Inten    --     34.0156                68.7936                88.3981

                     67                     68                     69
                      A                      A                      A
 Frequencies --   1655.6913              1667.4667              3201.0863
 Red. masses --      4.5643                 3.6089                 1.0915
 Frc consts  --      7.3720                 5.9121                 6.5898
 IR Inten    --     49.8752               715.8715                31.8544

                     70                     71                     72
                      A                      A                      A
 Frequencies --   3205.4227              3218.6463              3226.3024
 Red. masses --      1.0870                 1.0910                 1.0959
 Frc consts  --      6.5803                 6.6592                 6.7210
 IR Inten    --      2.9153                 5.4247                 9.0195

                     73                     74                     75
                      A                      A                      A
 Frequencies --   3244.2527              3579.6498              3713.5579
 Red. masses --      1.0937                 1.0441                 1.1065
 Frc consts  --      6.7825                 7.8827                 8.9902
 IR Inten    --      1.5279                91.1570               100.6535

 - Thermochemistry -
 -------------------
 Temperature   298.150 Kelvin.  Pressure   1.00000 Atm.
 Atom     1 has atomic number  6 and mass  12.00000

 Molecular mass:   293.02188 amu.
 Principal axes and moments of inertia in atomic units:
                           1         2         3
     Eigenvalues --  3189.048216027.103056446.36785
           X            0.99997   0.00095   0.00743
           Y           -0.00119   0.99947   0.03250
           Z           -0.00740  -0.03251   0.99944
 This molecule is an asymmetric top.
 Rotational symmetry number  1.
 Warning -- assumption of classical behavior for rotation
           may cause significant error
 Rotational temperatures (Kelvin)      0.02716     0.01437     0.01344
 Rotational constants (GHZ):           0.56592     0.29944     0.27996
 Zero-point vibrational energy     475887.7 (Joules/Mol)
                                  113.73989 (Kcal/Mol)
 Warning -- explicit consideration of  26 degrees of freedom as
           vibrations may cause significant error
 Vibrational temperatures:     49.68    63.03    78.77   103.18   123.16
          (Kelvin)            142.87   189.78   259.70   278.32   301.82
                              326.99   365.66   414.71   452.13   531.63
                              542.68   565.94   583.62   609.08   617.16
                              676.65   702.28   747.90   821.85   836.50
                              847.91   908.57   951.32   956.14  1021.81
                             1056.13  1076.05  1089.94  1139.93  1147.53
                             1152.86  1243.34  1253.61  1278.67  1390.08
                             1419.26  1433.61  1437.74  1511.51  1539.60
                             1553.37  1641.07  1657.66  1694.38  1727.41
                             1798.72  1865.57  1870.77  1947.63  1971.70
                             1985.99  2021.09  2045.12  2132.07  2160.93
                             2174.20  2252.24  2266.55  2329.15  2345.12
                             2358.10  2382.17  2399.11  4605.65  4611.89
                             4630.91  4641.93  4667.76  5150.32  5342.98

 Zero-point correction=                           0.181256 (Hartree/Particle)
 Thermal correction to Energy=                    0.197844
 Thermal correction to Enthalpy=                  0.198788
 Thermal correction to Gibbs Free Energy=         0.135960
 Sum of electronic and zero-point Energies=          -1357.800235
 Sum of electronic and thermal Energies=             -1357.783648
 Sum of electronic and thermal Enthalpies=           -1357.782703
 Sum of electronic and thermal Free Energies=        -1357.845532

                     E (Thermal)             CV                S
                      KCal/Mol        Cal/Mol-Kelvin    Cal/Mol-Kelvin
 Total                  124.149             62.364            132.233
 Electronic               0.000              0.000              0.000
 Translational            0.889              2.981             42.923
 Rotational               0.889              2.981             33.182
 Vibrational            122.371             56.402             56.128
 Vibration     1          0.594              1.983              5.550
 Vibration     2          0.595              1.980              5.079
 Vibration     3          0.596              1.976              4.638
 Vibration     4          0.598              1.967              4.106
 Vibration     5          0.601              1.959              3.758
 Vibration     6          0.604              1.950              3.468
 Vibration     7          0.612              1.921              2.918
 Vibration     8          0.629              1.866              2.323
 Vibration     9          0.635              1.849              2.195
 Vibration    10          0.642              1.826              2.046
 Vibration    11          0.651              1.799              1.900
 Vibration    12          0.665              1.756              1.702
 Vibration    13          0.685              1.696              1.484
 Vibration    14          0.702              1.646              1.340
 Vibration    15          0.742              1.535              1.082
 Vibration    16          0.748              1.519              1.050
 Vibration    17          0.761              1.484              0.987
 Vibration    18          0.771              1.458              0.942
 Vibration    19          0.785              1.420              0.881
 Vibration    20          0.790              1.407              0.862
 Vibration    21          0.827              1.316              0.737
 Vibration    22          0.844              1.276              0.689
 Vibration    23          0.875              1.206              0.610
 Vibration    24          0.927              1.094              0.502
 Vibration    25          0.938              1.072              0.483
 Vibration    26          0.947              1.055              0.468

 Optimization completed.
    -- Stationary point found.
 Normal termination of Gaussian 16 at Sun Dec 13 17:17:24 2020.

 ----------------------------------------------------------------------
 # B3LYP/6-311++G(d,p) empiricaldispersion=gd3bj scf=xqc pop=npa geom=c
 heck
 ----------------------------------------------------------------------

 ---------------------------------------
 CID_80873097_JID_10576_Energie_neutraal
 ---------------------------------------
 Structure from the checkpoint file:  "JID_10576.chk"
 Charge =  0 Multiplicity = 1

 SCF Done:  E(RB3LYP) =  -1358.28043863     A.U. after   19 cycles
 Normal termination of Gaussian 16 at Sun Dec 13 17:22:54 2020.

 ----------------------------------------------------------------------
 # B3LYP/6-311++G(d,p) empiricaldispersion=gd3bj scf=xqc pop=npa geom=c
 heck
 ----------------------------------------------------------------------

 -------------------------------------
 CID_80873097_JID_10576_Energie_kation
 -------------------------------------
 Structure from the checkpoint file:  "JID_10576.chk"
 Charge =  1 Multiplicity = 2

 SCF Done:  E(UB3LYP) =  -1357.96332095     A.U. after   31 cycles
 Normal termination of Gaussian 16 at Sun Dec 13 17:35:23 2020.
 Gaussian 16:  ES64L-G16RevA.03 25-Dec-2016

 ----------------------------------------------------------------------
 # B3LYP/6-311++G(d,p) empiricaldispersion=gd3bj scf=xqc pop=npa geom=c
 heck
 ----------------------------------------------------------------------

 ------------------------------------
 CID_80873097_JID_10576_Energie_anion
 ------------------------------------
 Structure from the checkpoint file:  "JID_10576.chk"
 Charge = -1 Multiplicity = 2

                         Standard orientation:
 ---------------------------------------------------------------------
 Center     Atomic      Atomic             Coordinates (Angstroms)
 Number     Number       Type             X           Y           Z
 ---------------------------------------------------------------------
      1          6           0        3.794796   -0.897445   -0.168623
      2          6           0        3.851170    0.177848    0.718157
      3          6           0        2.770545    1.048331    0.834954
      4          6           0        1.628971    0.900016    0.037844
      5          6           0        1.606985   -0.173177   -0.868775
      6          6           0        2.659425   -1.082937   -0.949703
      7          7           0        0.477642   -0.418980   -1.781917
      8          8           0       -0.045539    0.545848   -2.331501
      9          8           0        0.144048   -1.592743   -1.949113
     10         16           0        0.347052    2.117528    0.261491
     11          6           0       -1.162569    1.187240    0.282857
     12          7           0       -2.182608    1.903127   -0.186807
     13          6           0       -3.342057    1.257588   -0.350409
     14          7           0       -3.565426   -0.040551   -0.222872
     15          6           0       -2.550216   -0.789450    0.263367
     16          6           0       -1.328314   -0.161014    0.659978
     17          7           0       -0.366133   -0.879874    1.459804
     18          8           0        0.339537   -0.243839    2.240696
     19          8           0       -0.313475   -2.116759    1.347533
     20          7           0       -2.784406   -2.102927    0.384717
     21          1           0        4.622133   -1.595136   -0.244980
     22          1           0        4.724699    0.323619    1.345847
     23          1           0        2.787925    1.843429    1.572478
     24          1           0        2.572756   -1.917018   -1.635459
     25          1           0       -4.186225    1.865549   -0.667549
     26          1           0       -3.676402   -2.441680    0.054217
     27          1           0       -2.020204   -2.726836    0.602311
 ---------------------------------------------------------------------

 SCF Done:  E(UB3LYP) =  -1358.34686510     A.U. after   25 cycles

 The electronic state is 2-A.
 Alpha  occ. eigenvalues --  -88.74884 -19.01079 -19.00843 -18.99869 -18.99791
 Alpha  occ. eigenvalues --  -14.39428 -14.38503 -14.22256 -14.19384 -14.19266
 Alpha  occ. eigenvalues --  -10.15517 -10.13292 -10.11913 -10.11275 -10.10893
 Alpha  occ. eigenvalues --  -10.10639 -10.07969 -10.07888 -10.07808 -10.07603
 Alpha  occ. eigenvalues --   -7.83476  -5.79882  -5.79475  -5.78853  -1.08693
 Alpha  occ. eigenvalues --   -1.07640  -0.91447  -0.90297  -0.88411  -0.82878
 Alpha  occ. eigenvalues --   -0.77553  -0.76230  -0.70726  -0.68509  -0.67965
 Alpha  occ. eigenvalues --   -0.62632  -0.58728  -0.57098  -0.52466  -0.51269
 Alpha  occ. eigenvalues --   -0.50374  -0.47505  -0.45047  -0.43159  -0.41958
 Alpha  occ. eigenvalues --   -0.41325  -0.40568  -0.39212  -0.38452  -0.38246
 Alpha  occ. eigenvalues --   -0.37731  -0.35400  -0.34743  -0.34580  -0.33720
 Alpha  occ. eigenvalues --   -0.32241  -0.31201  -0.28286  -0.27325  -0.26592
 Alpha  occ. eigenvalues --   -0.25606  -0.23119  -0.20752  -0.20660  -0.18560
 Alpha  occ. eigenvalues --   -0.18087  -0.17826  -0.17486  -0.16779  -0.16051
 Alpha  occ. eigenvalues --   -0.15572  -0.14641  -0.14168  -0.12827  -0.11334
 Alpha  occ. eigenvalues --   -0.01005
 Alpha virt. eigenvalues --    0.03594   0.07389   0.07614   0.08781   0.09235
 Alpha virt. eigenvalues --    0.09377   0.09701   0.09931   0.10319   0.11015
 Alpha virt. eigenvalues --    0.12492   0.13106   0.13850   0.13977   0.14809

  Beta  occ. eigenvalues --  -88.74890 -19.00929 -19.00568 -18.99633 -18.99474
  Beta  occ. eigenvalues --  -14.39121 -14.38104 -14.22223 -14.19372 -14.19331
  Beta  occ. eigenvalues --  -10.15468 -10.13063 -10.11740 -10.11227 -10.10815
  Beta  occ. eigenvalues --  -10.10680 -10.08012 -10.07852 -10.07796 -10.07487
  Beta  occ. eigenvalues --   -7.83480  -5.79893  -5.79485  -5.78856  -1.08199
  Beta  occ. eigenvalues --   -1.07010  -0.91041  -0.89787  -0.88264  -0.82770
  Beta  occ. eigenvalues --   -0.77401  -0.76110  -0.70498  -0.68279  -0.67714
  Beta  occ. eigenvalues --   -0.62420  -0.58298  -0.56753  -0.52308  -0.50950
  Beta  occ. eigenvalues --   -0.50215  -0.47288  -0.44870  -0.42896  -0.41625
  Beta  occ. eigenvalues --   -0.40930  -0.39612  -0.38414  -0.38160  -0.37818
  Beta  occ. eigenvalues --   -0.36981  -0.35105  -0.34440  -0.34266  -0.33646
  Beta  occ. eigenvalues --   -0.31767  -0.31098  -0.27995  -0.27222  -0.26402
  Beta  occ. eigenvalues --   -0.25293  -0.22970  -0.20658  -0.20165  -0.17596
  Beta  occ. eigenvalues --   -0.17443  -0.17085  -0.16763  -0.16274  -0.15414
  Beta  occ. eigenvalues --   -0.15086  -0.14289  -0.13866  -0.12501  -0.11272
  Beta virt. eigenvalues --    0.04162   0.06103   0.07590   0.07801   0.08809
  Beta virt. eigenvalues --    0.09360   0.09749   0.10019   0.10719   0.10975
  Beta virt. eigenvalues --    0.11527   0.12525   0.13187   0.13882   0.14035

 Mulliken charges and spin densities:
               1          2
     1  C   -0.264289  -0.010281
     2  C   -0.698727   0.097630
     3  C   -0.276335  -0.037594
     4  C    0.656886   0.065091
     5  C    0.228619   0.023561
     6  C   -0.164545   0.050700
     7  N   -0.079411   0.106559
     8  O    0.026342   0.055721
     9  O   -0.110098   0.099122
    10  S   -0.240948  -0.006317
    11  C   -0.125383   0.187842
    12  N    0.015319  -0.043973
    13  C   -0.005246   0.110010
    14  N   -0.204643  -0.001734
    15  C   -0.069181   0.026102
    16  C   -0.396558  -0.060788
    17  N   -0.227781   0.130750
    18  O    0.000891   0.091009
    19  O   -0.136384   0.117252
    20  N   -0.337751   0.014072
    21  H    0.146938  -0.000090
    22  H    0.132389  -0.006041
    23  H    0.179660   0.003848
    24  H    0.198204  -0.002703
    25  H    0.178351  -0.008540
    26  H    0.274172  -0.000024
    27  H    0.299506  -0.001185
 Sum of Mulliken charges =  -1.00000   1.00000

 Dipole moment (field-independent basis, Debye):
    X=              1.9563    Y=             -0.5800    Z=              0.8062  Tot=              2.1940
 Quadrupole moment (field-independent basis, Debye-Ang):
   XX=           -133.2968   YY=           -136.7500   ZZ=           -147.0004
   XY=              5.3251   XZ=             -2.6708   YZ=              4.9745

 Summary of Natural Population Analysis:

                                       Natural Population
                Natural  -----------------------------------------------
    Atom  No    Charge         Core      Valence    Rydberg      Total
 -----------------------------------------------------------------------
      C    1   -0.10833      0.99957     2.09999    0.00877     3.10833
      C    2   -0.07390      0.99957     2.06561    0.00873     3.07390
      C    3   -0.10157      0.99951     2.09230    0.00976     3.10157
      C    4   -0.07516      0.99935     2.06044    0.01537     3.07516
      C    5    0.04309      0.99930     1.94250    0.01511     2.95691
      C    6   -0.07716      0.99952     2.06917    0.00847     3.07716
      N    7    0.27068      0.99970     2.20073    0.02889     3.22932
      O    8   -0.19255      0.99990     3.18427    0.00838     4.19255
      O    9   -0.18168      0.99990     3.17377    0.00801     4.18168
      S   10    0.18439      4.99945     2.79681    0.01936     7.81561
      C   11    0.09910      0.99945     1.88409    0.01736     2.90090
      N   12   -0.27936      0.99965     2.76807    0.01163     3.77936
      C   13    0.18584      0.99967     1.79541    0.01908     2.81416
      N   14   -0.28091      0.99968     2.77049    0.01074     3.78091
      C   15    0.22652      0.99955     1.75867    0.01526     2.77348
      C   16   -0.04318      0.99929     2.02669    0.01719     3.04318
      N   17    0.28072      0.99969     2.19166    0.02793     3.21928
      O   18   -0.19119      0.99990     3.18310    0.00819     4.19119
      O   19   -0.20424      0.99990     3.19642    0.00792     4.20424
      N   20   -0.37321      0.99968     2.86640    0.00714     3.87321
      H   21    0.09704      0.00000     0.40204    0.00092     0.40296
      H   22    0.09509      0.00000     0.40394    0.00097     0.40491
      H   23    0.10471      0.00000     0.39432    0.00097     0.39529
      H   24    0.11231      0.00000     0.38663    0.00106     0.38769
      H   25    0.07626      0.00000     0.42256    0.00118     0.42374
      H   26    0.19198      0.00000     0.30655    0.00147     0.30802
      H   27    0.21471      0.00000     0.28393    0.00136     0.28529
 =======================================================================
   * Total *   -0.00000     23.99223    50.72655    0.28122    75.00000

 Normal termination of Gaussian 16 at Sun Dec 13 17:45:46 2020.
