 Gaussian 16, Revision A.03,

 -----------------------------------------------------------
 # opt freq B3LYP/6-31G(d) empiricaldispersion=gd3bj scf=xqc
 -----------------------------------------------------------

 ------------------------------
 CID_62900237_JID_5430_neutraal
 ------------------------------
 Symbolic Z-matrix:
 Charge =  0 Multiplicity = 1

 SCF Done:  E(RB3LYP) =  -707.466760306     A.U. after   15 cycles
 SCF Done:  E(RB3LYP) =  -707.470647752     A.U. after   13 cycles
 SCF Done:  E(RB3LYP) =  -707.471069867     A.U. after   13 cycles
 SCF Done:  E(RB3LYP) =  -707.471478022     A.U. after   12 cycles
 SCF Done:  E(RB3LYP) =  -707.471163958     A.U. after   13 cycles
 SCF Done:  E(RB3LYP) =  -707.471813302     A.U. after   12 cycles
 SCF Done:  E(RB3LYP) =  -707.472102194     A.U. after   14 cycles
 SCF Done:  E(RB3LYP) =  -707.471254444     A.U. after   16 cycles
 SCF Done:  E(RB3LYP) =  -707.472949261     A.U. after   14 cycles
 SCF Done:  E(RB3LYP) =  -707.473779576     A.U. after   16 cycles
 SCF Done:  E(RB3LYP) =  -707.478594864     A.U. after    9 cycles
 SCF Done:  E(RB3LYP) =  -707.478596170     A.U. after    8 cycles
 SCF Done:  E(RB3LYP) =  -707.478596641     A.U. after    8 cycles
 SCF Done:  E(RB3LYP) =  -707.478596928     A.U. after    8 cycles
 SCF Done:  E(RB3LYP) =  -707.478596961     A.U. after    7 cycles
 Optimization completed.
    -- Stationary point found.
 Normal termination of Gaussian 16 at Thu Dec 10 16:16:17 2020.

 --------------------------------------------------------------------
 #N Geom=AllCheck Guess=TCheck SCRF=Check GenChk RB3LYP/6-31G(d) Freq
 --------------------------------------------------------------------

 Structure from the checkpoint file:  "JID_5430.chk"
 ------------------------------
 CID_62900237_JID_5430_neutraal
 ------------------------------
 Charge =  0 Multiplicity = 1

 SCF Done:  E(RB3LYP) =  -707.478596961     A.U. after    1 cycles

  Exact polarizability: 182.166   4.116 118.081  -0.218  15.853  91.034
 Approx polarizability: 254.882  15.268 210.659   8.284  46.314 138.100

                      1                      2                      3
                      A                      A                      A
 Frequencies --     37.1442                60.3582                67.0919
 Red. masses --      4.3451                 5.3278                 5.2987
 Frc consts  --      0.0035                 0.0114                 0.0141
 IR Inten    --      0.1087                 4.2248                 2.1360

                      4                      5                      6
                      A                      A                      A
 Frequencies --     89.7151               115.9025               125.0674
 Red. masses --      3.0916                 3.1768                 5.5015
 Frc consts  --      0.0147                 0.0251                 0.0507
 IR Inten    --      3.1345                 0.3109                 2.4555

                      7                      8                      9
                      A                      A                      A
 Frequencies --    176.8939               188.5893               217.4468
 Red. masses --      4.7971                 3.0689                 1.7777
 Frc consts  --      0.0884                 0.0643                 0.0495
 IR Inten    --      5.4509                 4.1581                 5.8511

                     10                     11                     12
                      A                      A                      A
 Frequencies --    259.5747               278.3033               305.8039
 Red. masses --      2.0728                 3.4903                 3.7791
 Frc consts  --      0.0823                 0.1593                 0.2082
 IR Inten    --      6.3116                 1.5389                 4.0860

                     13                     14                     15
                      A                      A                      A
 Frequencies --    317.2322               363.4578               393.0495
 Red. masses --      3.7596                 4.2162                 1.2213
 Frc consts  --      0.2229                 0.3282                 0.1112
 IR Inten    --      0.6757                17.4429               291.3025

                     16                     17                     18
                      A                      A                      A
 Frequencies --    426.9038               434.1866               473.4115
 Red. masses --      4.4164                 3.5741                 3.2588
 Frc consts  --      0.4742                 0.3970                 0.4303
 IR Inten    --      3.2364                 2.4282                 4.2848

                     19                     20                     21
                      A                      A                      A
 Frequencies --    510.7756               532.8865               581.7463
 Red. masses --      2.9985                 2.7956                 2.0105
 Frc consts  --      0.4609                 0.4677                 0.4009
 IR Inten    --     12.5586                 5.4680                10.2504

                     22                     23                     24
                      A                      A                      A
 Frequencies --    611.5113               627.1758               660.3963
 Red. masses --      6.1079                 3.0281                 3.8379
 Frc consts  --      1.3457                 0.7018                 0.9862
 IR Inten    --     24.7142                16.9625                14.0400

                     25                     26                     27
                      A                      A                      A
 Frequencies --    721.5365               726.4615               776.0994
 Red. masses --      3.0318                 4.0393                 1.5110
 Frc consts  --      0.9300                 1.2560                 0.5362
 IR Inten    --     13.0683                 1.5768                 3.2957

                     28                     29                     30
                      A                      A                      A
 Frequencies --    779.8603               841.7375               862.7222
 Red. masses --      4.3968                 1.3706                 1.3687
 Frc consts  --      1.5755                 0.5722                 0.6002
 IR Inten    --      4.9032                20.7102                35.4994

                     31                     32                     33
                      A                      A                      A
 Frequencies --    868.9748               892.3143               953.5212
 Red. masses --      5.2686                 2.1802                 1.8472
 Frc consts  --      2.3440                 1.0228                 0.9895
 IR Inten    --     37.6296                 2.7378                15.4743

                     34                     35                     36
                      A                      A                      A
 Frequencies --    960.6551               992.4027              1030.8607
 Red. masses --      1.2876                 1.3068                 3.2015
 Frc consts  --      0.7001                 0.7583                 2.0045
 IR Inten    --      0.0076                 0.5162                11.2367

                     37                     38                     39
                      A                      A                      A
 Frequencies --   1033.3443              1036.6393              1073.7508
 Red. masses --      1.7684                 3.6375                 2.2720
 Frc consts  --      1.1126                 2.3031                 1.5434
 IR Inten    --      0.7942                46.1396                39.3527

                     40                     41                     42
                      A                      A                      A
 Frequencies --   1101.0311              1142.3568              1147.9400
 Red. masses --      1.7626                 1.8916                 1.3139
 Frc consts  --      1.2589                 1.4544                 1.0201
 IR Inten    --     16.3595                32.6947                11.0911

                     43                     44                     45
                      A                      A                      A
 Frequencies --   1169.1559              1195.9566              1252.2253
 Red. masses --      2.3547                 1.2864                 2.2759
 Frc consts  --      1.8964                 1.0841                 2.1026
 IR Inten    --      8.5964               139.7900                27.7397

                     46                     47                     48
                      A                      A                      A
 Frequencies --   1266.2817              1292.8656              1334.1571
 Red. masses --      2.9876                 1.3452                 1.4993
 Frc consts  --      2.8225                 1.3247                 1.5723
 IR Inten    --    322.5042                21.1703                51.8327

                     49                     50                     51
                      A                      A                      A
 Frequencies --   1341.3689              1360.5037              1382.6554
 Red. masses --      1.4664                 3.7883                 1.8284
 Frc consts  --      1.5545                 4.1314                 2.0594
 IR Inten    --     19.3233                21.1434                80.3473

                     52                     53                     54
                      A                      A                      A
 Frequencies --   1409.8191              1415.9968              1437.3584
 Red. masses --      1.9527                 1.3926                 1.2386
 Frc consts  --      2.2867                 1.6451                 1.5077
 IR Inten    --     29.9446                15.1590                 2.4877

                     55                     56                     57
                      A                      A                      A
 Frequencies --   1440.8228              1477.7450              1513.7910
 Red. masses --      1.4370                 2.5200                 1.0790
 Frc consts  --      1.7577                 3.2422                 1.4568
 IR Inten    --      4.7049                 6.9767                 2.2456

                     58                     59                     60
                      A                      A                      A
 Frequencies --   1527.4345              1547.7749              1559.3066
 Red. masses --      1.0502                 1.0541                 2.4832
 Frc consts  --      1.4436                 1.4878                 3.5573
 IR Inten    --      6.0696                 7.7689                69.4322

                     61                     62                     63
                      A                      A                      A
 Frequencies --   1630.6397              1634.3631              1664.7530
 Red. masses --      6.7780                 1.3353                 4.7711
 Frc consts  --     10.6185                 2.1015                 7.7905
 IR Inten    --      8.4883               102.7471               286.7954

                     64                     65                     66
                      A                      A                      A
 Frequencies --   1796.2126              1804.5548              2900.7729
 Red. masses --      9.5935                 9.2734                 1.0834
 Frc consts  --     18.2365                17.7921                 5.3710
 IR Inten    --    251.1126               247.0327               161.8910

                     67                     68                     69
                      A                      A                      A
 Frequencies --   3052.1137              3068.4482              3069.4798
 Red. masses --      1.0417                 1.0838                 1.0661
 Frc consts  --      5.7173                 6.0125                 5.9179
 IR Inten    --     33.4942                20.6402                18.3857

                     70                     71                     72
                      A                      A                      A
 Frequencies --   3112.3460              3133.2567              3159.7789
 Red. masses --      1.0974                 1.0978                 1.1007
 Frc consts  --      6.2633                 6.3501                 6.4747
 IR Inten    --     18.9943                27.5700                11.5838

                     73                     74                     75
                      A                      A                      A
 Frequencies --   3183.8398              3217.5912              3220.0842
 Red. masses --      1.0889                 1.0898                 1.0929
 Frc consts  --      6.5036                 6.6474                 6.6770
 IR Inten    --     10.5445                 1.6072                 4.8909

                     76                     77                     78
                      A                      A                      A
 Frequencies --   3246.1284              3588.2636              3712.7561
 Red. masses --      1.0925                 1.0448                 1.1049
 Frc consts  --      6.7825                 7.9258                 8.9735
 IR Inten    --      2.3050                36.4482                45.9686

 - Thermochemistry -
 -------------------
 Temperature   298.150 Kelvin.  Pressure   1.00000 Atm.
 Atom     1 has atomic number  6 and mass  12.00000

 Molecular mass:   207.08954 amu.
 Principal axes and moments of inertia in atomic units:
                           1         2         3
     Eigenvalues --  1550.981496006.381736129.18326
           X            0.99986  -0.00263  -0.01676
           Y            0.00160   0.99813  -0.06106
           Z            0.01689   0.06103   0.99799
 This molecule is an asymmetric top.
 Rotational symmetry number  1.
 Warning -- assumption of classical behavior for rotation
           may cause significant error
 Rotational temperatures (Kelvin)      0.05584     0.01442     0.01413
 Rotational constants (GHZ):           1.16361     0.30047     0.29445
 Zero-point vibrational energy     597639.0 (Joules/Mol)
                                  142.83914 (Kcal/Mol)
 Warning -- explicit consideration of  22 degrees of freedom as
           vibrations may cause significant error
 Vibrational temperatures:     53.44    86.84    96.53   129.08   166.76
          (Kelvin)            179.94   254.51   271.34   312.86   373.47
                              400.42   439.98   456.43   522.93   565.51
                              614.22   624.70   681.13   734.89   766.70
                              837.00   879.83   902.37   950.16  1038.13
                             1045.22  1116.63  1122.05  1211.07  1241.26
                             1250.26  1283.84  1371.90  1382.17  1427.85
                             1483.18  1486.75  1491.49  1544.89  1584.14
                             1643.60  1651.63  1682.15  1720.71  1801.67
                             1821.90  1860.15  1919.55  1929.93  1957.46
                             1989.33  2028.42  2037.30  2068.04  2073.02
                             2126.15  2178.01  2197.64  2226.90  2243.49
                             2346.13  2351.48  2395.21  2584.35  2596.35
                             4173.57  4391.31  4414.81  4416.30  4477.97
                             4508.06  4546.22  4580.84  4629.40  4632.98
                             4670.45  5162.71  5341.83

 Zero-point correction=                           0.227629 (Hartree/Particle)
 Thermal correction to Energy=                    0.242120
 Thermal correction to Enthalpy=                  0.243065
 Thermal correction to Gibbs Free Energy=         0.185560
 Sum of electronic and zero-point Energies=           -707.250968
 Sum of electronic and thermal Energies=              -707.236477
 Sum of electronic and thermal Enthalpies=            -707.235532
 Sum of electronic and thermal Free Energies=         -707.293037

                     E (Thermal)             CV                S
                      KCal/Mol        Cal/Mol-Kelvin    Cal/Mol-Kelvin
 Total                  151.933             54.330            121.029
 Electronic               0.000              0.000              0.000
 Translational            0.889              2.981             41.888
 Rotational               0.889              2.981             32.412
 Vibrational            150.155             48.369             46.729
 Vibration     1          0.594              1.982              5.406
 Vibration     2          0.597              1.973              4.445
 Vibration     3          0.598              1.970              4.237
 Vibration     4          0.602              1.956              3.666
 Vibration     5          0.608              1.936              3.168
 Vibration     6          0.610              1.928              3.021
 Vibration     7          0.628              1.871              2.361
 Vibration     8          0.633              1.856              2.242
 Vibration     9          0.646              1.814              1.980
 Vibration    10          0.668              1.747              1.665
 Vibration    11          0.679              1.714              1.544
 Vibration    12          0.696              1.663              1.385
 Vibration    13          0.704              1.641              1.324
 Vibration    14          0.737              1.548              1.107
 Vibration    15          0.760              1.485              0.989
 Vibration    16          0.789              1.412              0.869
 Vibration    17          0.795              1.396              0.845
 Vibration    18          0.830              1.309              0.728
 Vibration    19          0.866              1.226              0.632
 Vibration    20          0.888              1.177              0.581
 Vibration    21          0.939              1.071              0.482
 Vibration    22          0.971              1.007              0.430

 Optimization completed.
    -- Stationary point found.
 Normal termination of Gaussian 16 at Thu Dec 10 16:25:22 2020.

 ----------------------------------------------------------------------
 # B3LYP/6-311++G(d,p) empiricaldispersion=gd3bj scf=xqc pop=npa geom=c
 heck
 ----------------------------------------------------------------------

 --------------------------------------
 CID_62900237_JID_5430_Energie_neutraal
 --------------------------------------
 Structure from the checkpoint file:  "JID_5430.chk"
 Charge =  0 Multiplicity = 1

 SCF Done:  E(RB3LYP) =  -707.685557298     A.U. after   15 cycles
 Normal termination of Gaussian 16 at Thu Dec 10 16:29:30 2020.

 ----------------------------------------------------------------------
 # B3LYP/6-311++G(d,p) empiricaldispersion=gd3bj scf=xqc pop=npa geom=c
 heck
 ----------------------------------------------------------------------

 ------------------------------------
 CID_62900237_JID_5430_Energie_kation
 ------------------------------------
 Structure from the checkpoint file:  "JID_5430.chk"
 Charge =  1 Multiplicity = 2

 SCF Done:  E(UB3LYP) =  -707.371451282     A.U. after   28 cycles
 Normal termination of Gaussian 16 at Thu Dec 10 16:40:18 2020.
 Gaussian 16:  ES64L-G16RevA.03 25-Dec-2016

 ----------------------------------------------------------------------
 # B3LYP/6-311++G(d,p) empiricaldispersion=gd3bj scf=xqc pop=npa geom=c
 heck
 ----------------------------------------------------------------------

 -----------------------------------
 CID_62900237_JID_5430_Energie_anion
 -----------------------------------
 Structure from the checkpoint file:  "JID_5430.chk"
 Charge = -1 Multiplicity = 2

                         Standard orientation:
 ---------------------------------------------------------------------
 Center     Atomic      Atomic             Coordinates (Angstroms)
 Number     Number       Type             X           Y           Z
 ---------------------------------------------------------------------
      1          6           0       -3.733484   -0.349781    1.888073
      2          6           0       -2.293294   -0.537065    1.400396
      3          6           0       -2.199008   -0.551954   -0.126213
      4          6           0       -2.348710    0.833946   -0.788062
      5          8           0       -2.774566    1.809165   -0.186018
      6          7           0       -2.017098    0.847219   -2.108277
      7          8           0       -1.035903   -1.242880   -0.628090
      8          6           0        0.223325   -0.794956   -0.341177
      9          6           0        0.530442    0.472794    0.181260
     10          6           0        1.859544    0.815376    0.392454
     11          6           0        2.893798   -0.080845    0.090725
     12          6           0        2.572804   -1.340977   -0.434044
     13          6           0        1.250763   -1.699152   -0.649108
     14          6           0        4.299330    0.294430    0.318589
     15          8           0        4.671169    1.364227    0.765644
     16          1           0       -4.125341    0.616519    1.563304
     17          1           0       -3.773403   -0.389307    2.981430
     18          1           0       -4.388708   -1.140430    1.501795
     19          1           0       -1.660179    0.249131    1.818676
     20          1           0       -1.897611   -1.497177    1.751491
     21          1           0       -3.015712   -1.171286   -0.515070
     22          1           0       -1.500429    0.077209   -2.507977
     23          1           0       -1.998093    1.740510   -2.580242
     24          1           0       -0.248047    1.187341    0.415265
     25          1           0        2.120915    1.789084    0.794548
     26          1           0        3.369353   -2.043035   -0.669903
     27          1           0        0.981271   -2.670706   -1.049647
     28          1           0        5.036996   -0.493390    0.044622
 ---------------------------------------------------------------------

 SCF Done:  E(UB3LYP) =  -707.695153661     A.U. after   33 cycles
 SCF Done:  E(UB3LYP) =  -707.695153661     a.u. after    1 cycles

 The electronic state is 2-A.
 Alpha  occ. eigenvalues --  -19.03753 -19.00391 -18.92481 -14.24553 -10.18527
 Alpha  occ. eigenvalues --  -10.14077 -10.08915 -10.07431 -10.06827 -10.06100
 Alpha  occ. eigenvalues --  -10.03861 -10.03852 -10.03557 -10.02273 -10.01642
 Alpha  occ. eigenvalues --   -0.96168  -0.94472  -0.86145  -0.81971  -0.72067
 Alpha  occ. eigenvalues --   -0.69566  -0.63120  -0.61568  -0.59119  -0.53253
 Alpha  occ. eigenvalues --   -0.50847  -0.48388  -0.47379  -0.45118  -0.42235
 Alpha  occ. eigenvalues --   -0.41806  -0.38982  -0.36044  -0.34959  -0.33870
 Alpha  occ. eigenvalues --   -0.33001  -0.32343  -0.31444  -0.30290  -0.29091
 Alpha  occ. eigenvalues --   -0.28700  -0.27129  -0.26501  -0.25986  -0.25339
 Alpha  occ. eigenvalues --   -0.24093  -0.23760  -0.22845  -0.20219  -0.19556
 Alpha  occ. eigenvalues --   -0.18999  -0.16518  -0.12680  -0.09870  -0.08615
 Alpha  occ. eigenvalues --    0.04660
 Alpha virt. eigenvalues --    0.06290   0.07433   0.08244   0.09326   0.09805
 Alpha virt. eigenvalues --    0.10516   0.11077   0.11323   0.11681   0.12019
 Alpha virt. eigenvalues --    0.12676   0.13199   0.13854   0.14604   0.15020

  Beta  occ. eigenvalues --  -19.03681 -19.00379 -18.91965 -14.24548 -10.18499
  Beta  occ. eigenvalues --  -10.14071 -10.08551 -10.07425 -10.06816 -10.05786
  Beta  occ. eigenvalues --  -10.03969 -10.03771 -10.03600 -10.01993 -10.01585
  Beta  occ. eigenvalues --   -0.96052  -0.94355  -0.85196  -0.81950  -0.71804
  Beta  occ. eigenvalues --   -0.69481  -0.62876  -0.61346  -0.58834  -0.53211
  Beta  occ. eigenvalues --   -0.50440  -0.48169  -0.47185  -0.44898  -0.41801
  Beta  occ. eigenvalues --   -0.41681  -0.38894  -0.35896  -0.34931  -0.33688
  Beta  occ. eigenvalues --   -0.32840  -0.32207  -0.31183  -0.30151  -0.28987
  Beta  occ. eigenvalues --   -0.28583  -0.26745  -0.26306  -0.25570  -0.25269
  Beta  occ. eigenvalues --   -0.23673  -0.22938  -0.21810  -0.20109  -0.19032
  Beta  occ. eigenvalues --   -0.18155  -0.16287  -0.12006  -0.08421  -0.08157
  Beta virt. eigenvalues --    0.06505   0.07398   0.08315   0.09230   0.09963
  Beta virt. eigenvalues --    0.10463   0.10781   0.11110   0.11379   0.11652
  Beta virt. eigenvalues --    0.12267   0.12653   0.13127   0.13774   0.14643

 Mulliken charges and spin densities:
               1          2
     1  C   -0.257457  -0.386279
     2  C   -0.192419   0.039168
     3  C    0.196412  -0.011747
     4  C   -0.310917  -0.040046
     5  O   -0.293586   0.003022
     6  N   -0.257708   0.002660
     7  O   -0.113422   0.009999
     8  C   -0.547580   0.161860
     9  C    0.031263  -0.130398
    10  C   -0.111880   0.265978
    11  C    1.296253   0.009098
    12  C   -0.973168   0.080225
    13  C   -0.150368   0.021342
    14  C   -0.392944   0.231846
    15  O   -0.396240   0.175063
    16  H    0.140957   0.034268
    17  H    0.075085   0.051978
    18  H   -0.039934   0.162249
    19  H    0.154304   0.019520
    20  H    0.136770   0.023061
    21  H   -0.088191   0.277011
    22  H    0.274783   0.005474
    23  H    0.253463   0.021067
    24  H    0.174832  -0.009463
    25  H    0.163300  -0.016362
    26  H    0.092950  -0.003845
    27  H    0.111466   0.023152
    28  H    0.023975  -0.019900
 Sum of Mulliken charges =  -1.00000   1.00000

 Dipole moment (field-independent basis, Debye):
    X=             -8.0126    Y=             -2.7602    Z=             -3.0748  Tot=              9.0153
 Quadrupole moment (field-independent basis, Debye-Ang):
   XX=           -170.5942   YY=           -109.8832   ZZ=            -95.3125
   XY=            -12.1363   XZ=             -5.4593   YZ=             -4.5859

 Summary of Natural Population Analysis:

                                       Natural Population
                Natural  -----------------------------------------------
    Atom  No    Charge         Core      Valence    Rydberg      Total
 -----------------------------------------------------------------------
      C    1   -0.28630      0.99966     2.28258    0.00406     3.28630
      C    2   -0.20674      0.99962     2.19680    0.01031     3.20674
      C    3    0.03063      0.99948     1.95446    0.01542     2.96937
      C    4    0.32984      0.99969     1.64370    0.02678     2.67016
      O    5   -0.32038      0.99987     3.31474    0.00576     4.32038
      N    6   -0.40077      0.99970     2.89442    0.00666     3.90077
      O    7   -0.28339      0.99986     3.27405    0.00948     4.28339
      C    8    0.21005      0.99939     1.77674    0.01383     2.78995
      C    9   -0.17809      0.99952     2.17130    0.00727     3.17809
      C   10   -0.01442      0.99954     2.00594    0.00894     3.01442
      C   11   -0.08032      0.99949     2.07187    0.00896     3.08032
      C   12   -0.06199      0.99954     2.05439    0.00806     3.06199
      C   13   -0.14913      0.99954     2.14084    0.00876     3.14913
      C   14    0.24462      0.99968     1.73465    0.02105     2.75538
      O   15   -0.25216      0.99988     3.24447    0.00781     4.25216
      H   16    0.10824      0.00000     0.39068    0.00108     0.39176
      H   17    0.09649      0.00000     0.40277    0.00075     0.40351
      H   18    0.09163      0.00000     0.40705    0.00131     0.40837
      H   19    0.10811      0.00000     0.39066    0.00123     0.39189
      H   20    0.10351      0.00000     0.39549    0.00100     0.39649
      H   21    0.10044      0.00000     0.39767    0.00189     0.39956
      H   22    0.20253      0.00000     0.29582    0.00164     0.29747
      H   23    0.19291      0.00000     0.30495    0.00214     0.30709
      H   24    0.10125      0.00000     0.39695    0.00180     0.39875
      H   25    0.10164      0.00000     0.39655    0.00181     0.39836
      H   26    0.09068      0.00000     0.40749    0.00183     0.40932
      H   27    0.09628      0.00000     0.40234    0.00138     0.40372
      H   28    0.02482      0.00000     0.47201    0.00316     0.47518
 =======================================================================
   * Total *   -0.00000     14.99446    39.82138    0.18416    55.00000

 Normal termination of Gaussian 16 at Thu Dec 10 16:53:07 2020.
