 Gaussian 16, Revision A.03,

 -----------------------------------------------------------
 # opt freq B3LYP/6-31G(d) empiricaldispersion=gd3bj scf=xqc
 -----------------------------------------------------------

 -------------------------------
 CID_62745147_JID_10238_neutraal
 -------------------------------
 Symbolic Z-matrix:
 Charge =  0 Multiplicity = 1

 SCF Done:  E(RB3LYP) =  -826.022839605     A.U. after   14 cycles
 SCF Done:  E(RB3LYP) =  -826.027269894     A.U. after   12 cycles
 SCF Done:  E(RB3LYP) =  -826.027838338     A.U. after   12 cycles
 SCF Done:  E(RB3LYP) =  -826.027964909     A.U. after   11 cycles
 SCF Done:  E(RB3LYP) =  -826.028021638     A.U. after   10 cycles
 SCF Done:  E(RB3LYP) =  -826.028054443     A.U. after   10 cycles
 SCF Done:  E(RB3LYP) =  -826.028070164     A.U. after    9 cycles
 SCF Done:  E(RB3LYP) =  -826.028082146     A.U. after   10 cycles
 SCF Done:  E(RB3LYP) =  -826.028085555     A.U. after    9 cycles
 SCF Done:  E(RB3LYP) =  -826.028086202     A.U. after    8 cycles
 SCF Done:  E(RB3LYP) =  -826.028086446     A.U. after    7 cycles
 SCF Done:  E(RB3LYP) =  -826.028086504     A.U. after    7 cycles
 SCF Done:  E(RB3LYP) =  -826.028086534     A.U. after    6 cycles
 Optimization completed.
    -- Stationary point found.
 Normal termination of Gaussian 16 at Sun Dec 13 16:43:09 2020.

 --------------------------------------------------------------------
 #N Geom=AllCheck Guess=TCheck SCRF=Check GenChk RB3LYP/6-31G(d) Freq
 --------------------------------------------------------------------

 Structure from the checkpoint file:  "JID_10238.chk"
 -------------------------------
 CID_62745147_JID_10238_neutraal
 -------------------------------
 Charge =  0 Multiplicity = 1

 SCF Done:  E(RB3LYP) =  -826.028086534     A.U. after    1 cycles

  Exact polarizability: 310.246   1.319 195.932 -17.569   1.563 114.464
 Approx polarizability: 398.410   1.026 328.555 -32.766   3.023 176.906

                      1                      2                      3
                      A                      A                      A
 Frequencies --     22.2522                28.3858                32.9780
 Red. masses --      3.1203                 4.5342                 3.4620
 Frc consts  --      0.0009                 0.0022                 0.0022
 IR Inten    --      0.1400                 0.1486                 0.1505

                      4                      5                      6
                      A                      A                      A
 Frequencies --     46.9692                97.1522               117.1413
 Red. masses --      3.6023                 4.6854                 3.0676
 Frc consts  --      0.0047                 0.0261                 0.0248
 IR Inten    --      0.0519                 1.0005                 0.6075

                      7                      8                      9
                      A                      A                      A
 Frequencies --    123.4179               134.8678               149.7395
 Red. masses --      2.6484                 2.9032                 1.1277
 Frc consts  --      0.0238                 0.0311                 0.0149
 IR Inten    --      0.6990                 2.2245                 0.1228

                     10                     11                     12
                      A                      A                      A
 Frequencies --    157.4806               187.0120               225.3893
 Red. masses --      1.0730                 3.4202                 4.0662
 Frc consts  --      0.0157                 0.0705                 0.1217
 IR Inten    --      0.1240                 0.8808                 0.2939

                     13                     14                     15
                      A                      A                      A
 Frequencies --    226.4711               227.7937               270.4444
 Red. masses --      1.4090                 2.4798                 1.0378
 Frc consts  --      0.0426                 0.0758                 0.0447
 IR Inten    --      0.1954                 0.6434                 0.0666

                     16                     17                     18
                      A                      A                      A
 Frequencies --    277.6416               282.5590               311.4412
 Red. masses --      3.1567                 1.0817                 2.9594
 Frc consts  --      0.1434                 0.0509                 0.1691
 IR Inten    --      1.9191                 0.1607                 0.8632

                     19                     20                     21
                      A                      A                      A
 Frequencies --    336.4289               346.8959               354.9510
 Red. masses --      2.2521                 2.4818                 3.2463
 Frc consts  --      0.1502                 0.1760                 0.2410
 IR Inten    --      0.6478                 0.6753                 0.3540

                     22                     23                     24
                      A                      A                      A
 Frequencies --    367.7252               380.2166               418.0952
 Red. masses --      2.8877                 3.3989                 3.0276
 Frc consts  --      0.2301                 0.2895                 0.3118
 IR Inten    --      0.2298                 0.4736                 0.0001

                     25                     26                     27
                      A                      A                      A
 Frequencies --    451.3420               459.7905               485.0993
 Red. masses --      2.3376                 3.0356                 2.8190
 Frc consts  --      0.2806                 0.3781                 0.3908
 IR Inten    --      6.9555                 0.5577                 1.8088

                     28                     29                     30
                      A                      A                      A
 Frequencies --    505.1542               554.4227               559.4881
 Red. masses --      3.7641                 4.0103                 3.6550
 Frc consts  --      0.5659                 0.7263                 0.6741
 IR Inten    --      0.5950                 0.4683                 0.1142

                     31                     32                     33
                      A                      A                      A
 Frequencies --    566.6035               578.8292               636.7975
 Red. masses --      4.2251                 5.0205                 6.4155
 Frc consts  --      0.7992                 0.9911                 1.5328
 IR Inten    --      0.8012                 8.4398                 0.3224

                     34                     35                     36
                      A                      A                      A
 Frequencies --    667.4039               679.3712               711.5151
 Red. masses --      4.3972                 5.2795                 1.7576
 Frc consts  --      1.1540                 1.4357                 0.5242
 IR Inten    --      5.0867                 9.4706                34.0021

                     37                     38                     39
                      A                      A                      A
 Frequencies --    748.7485               761.6656               780.8264
 Red. masses --      2.8498                 2.3522                 1.7969
 Frc consts  --      0.9413                 0.8040                 0.6455
 IR Inten    --     10.9611                26.8114                62.8276

                     40                     41                     42
                      A                      A                      A
 Frequencies --    809.3042               843.5147               870.1275
 Red. masses --      2.7124                 4.3185                 1.2472
 Frc consts  --      1.0467                 1.8104                 0.5563
 IR Inten    --      4.7862                 0.5469                 0.0005

                     43                     44                     45
                      A                      A                      A
 Frequencies --    921.5401               929.5794               934.1974
 Red. masses --      1.8185                 4.2422                 2.9175
 Frc consts  --      0.9099                 2.1598                 1.5002
 IR Inten    --      1.1005                 2.5188                 7.5982

                     46                     47                     48
                      A                      A                      A
 Frequencies --    941.0149               955.2822               971.0735
 Red. masses --      2.1961                 1.4352                 1.4164
 Frc consts  --      1.1458                 0.7716                 0.7869
 IR Inten    --      1.2153                 1.3163                 2.2179

                     49                     50                     51
                      A                      A                      A
 Frequencies --    972.4104               987.9880              1006.2904
 Red. masses --      1.4718                 1.3409                 1.2687
 Frc consts  --      0.8200                 0.7712                 0.7569
 IR Inten    --      2.5431                 0.0004                 0.3130

                     52                     53                     54
                      A                      A                      A
 Frequencies --   1010.7157              1014.5195              1023.3297
 Red. masses --      1.7205                 1.6324                 6.2447
 Frc consts  --      1.0355                 0.9899                 3.8530
 IR Inten    --      7.5730                14.2592                 0.7810

                     55                     56                     57
                      A                      A                      A
 Frequencies --   1055.4755              1058.3315              1059.2911
 Red. masses --      1.6327                 1.4253                 2.0813
 Frc consts  --      1.0717                 0.9406                 1.3760
 IR Inten    --      9.3946                 1.1555                 8.5179

                     58                     59                     60
                      A                      A                      A
 Frequencies --   1068.5849              1076.8519              1095.8339
 Red. masses --      1.6296                 1.5886                 2.2039
 Frc consts  --      1.0964                 1.0854                 1.5593
 IR Inten    --      2.4680                 2.6454                 2.5314

                     61                     62                     63
                      A                      A                      A
 Frequencies --   1110.0629              1125.7549              1156.5138
 Red. masses --      1.5268                 2.7449                 3.3323
 Frc consts  --      1.1085                 2.0496                 2.6260
 IR Inten    --      3.9088                20.5747                 1.3187

                     64                     65                     66
                      A                      A                      A
 Frequencies --   1192.4453              1203.3757              1226.7519
 Red. masses --      1.0996                 1.3151                 2.9164
 Frc consts  --      0.9212                 1.1221                 2.5859
 IR Inten    --      0.0998                24.1463                 0.7192

                     67                     68                     69
                      A                      A                      A
 Frequencies --   1235.8299              1256.9579              1272.2572
 Red. masses --      1.6342                 2.2821                 2.7397
 Frc consts  --      1.4705                 2.1243                 2.6128
 IR Inten    --      0.1407                64.7205                35.7485

                     70                     71                     72
                      A                      A                      A
 Frequencies --   1284.2679              1305.5663              1338.3735
 Red. masses --      4.0369                 1.9836                 1.9551
 Frc consts  --      3.9229                 1.9921                 2.0633
 IR Inten    --     26.3798                12.1290                 0.0611

                     73                     74                     75
                      A                      A                      A
 Frequencies --   1368.5372              1391.0391              1397.4995
 Red. masses --      3.0509                 1.8089                 1.8991
 Frc consts  --      3.3666                 2.0623                 2.1853
 IR Inten    --      2.0434                32.1873                 3.3783

                     76                     77                     78
                      A                      A                      A
 Frequencies --   1415.1957              1424.1689              1428.0854
 Red. masses --      1.8384                 1.2441                 1.3273
 Frc consts  --      2.1693                 1.4867                 1.5949
 IR Inten    --      0.5988                14.7463                34.9750

                     79                     80                     81
                      A                      A                      A
 Frequencies --   1436.5834              1440.4478              1445.2284
 Red. masses --      2.0875                 1.7041                 4.4157
 Frc consts  --      2.5383                 2.0832                 5.4340
 IR Inten    --     13.4246                 8.6524               204.1048

                     82                     83                     84
                      A                      A                      A
 Frequencies --   1452.9279              1500.6277              1502.2718
 Red. masses --      1.2759                 1.2678                 1.5117
 Frc consts  --      1.5869                 1.6821                 2.0101
 IR Inten    --      2.7679                51.4090                 3.3094

                     85                     86                     87
                      A                      A                      A
 Frequencies --   1503.5848              1509.7876              1510.7191
 Red. masses --      1.2908                 1.0849                 1.0786
 Frc consts  --      1.7193                 1.4571                 1.4503
 IR Inten    --     64.1135                 4.2556                 7.9556

                     88                     89                     90
                      A                      A                      A
 Frequencies --   1513.3215              1517.0959              1518.7715
 Red. masses --      1.0576                 1.0558                 1.0700
 Frc consts  --      1.4271                 1.4318                 1.4542
 IR Inten    --      4.0468                13.9607                 3.8658

                     91                     92                     93
                      A                      A                      A
 Frequencies --   1521.5386              1533.3796              1545.9141
 Red. masses --      1.0947                 1.0578                 1.4214
 Frc consts  --      1.4932                 1.4654                 2.0015
 IR Inten    --     16.7274                 6.6518                21.7530

                     94                     95                     96
                      A                      A                      A
 Frequencies --   1546.6944              1548.8138              1563.0480
 Red. masses --      1.6752                 1.0631                 1.0829
 Frc consts  --      2.3612                 1.5025                 1.5588
 IR Inten    --      3.0769                 1.7688                 2.0969

                     97                     98                     99
                      A                      A                      A
 Frequencies --   1604.0254              1620.6179              1646.0360
 Red. masses --      7.3613                 5.9658                 6.1334
 Frc consts  --     11.1591                 9.2316                 9.7911
 IR Inten    --    150.7775               212.7840                 5.2679

                    100                    101                    102
                      A                      A                      A
 Frequencies --   1665.9879              3010.6689              3040.8149
 Red. masses --      5.6751                 1.0694                 1.0371
 Frc consts  --      9.2804                 5.7111                 5.6500
 IR Inten    --      0.5073                34.3440                22.6102

                    103                    104                    105
                      A                      A                      A
 Frequencies --   3045.7071              3047.8771              3053.0344
 Red. masses --      1.0368                 1.0446                 1.0399
 Frc consts  --      5.6665                 5.7172                 5.7111
 IR Inten    --     31.1549                10.7654                17.1934

                    106                    107                    108
                      A                      A                      A
 Frequencies --   3056.1681              3081.8719              3104.6612
 Red. masses --      1.0369                 1.0888                 1.1007
 Frc consts  --      5.7062                 6.0927                 6.2508
 IR Inten    --      7.7616                25.9248                 4.8389

                    109                    110                    111
                      A                      A                      A
 Frequencies --   3106.4872              3111.4910              3116.3461
 Red. masses --      1.0995                 1.0993                 1.0911
 Frc consts  --      6.2513                 6.2707                 6.2431
 IR Inten    --     13.9456                58.4340                 6.5944

                    112                    113                    114
                      A                      A                      A
 Frequencies --   3116.3983              3123.3949              3128.4019
 Red. masses --      1.1016                 1.1009                 1.1034
 Frc consts  --      6.3035                 6.3277                 6.3624
 IR Inten    --      8.5368                72.7386                 8.1673

                    115                    116                    117
                      A                      A                      A
 Frequencies --   3135.7110              3163.0161              3167.2520
 Red. masses --      1.1026                 1.1001                 1.1031
 Frc consts  --      6.3879                 6.4846                 6.5200
 IR Inten    --     51.7763                 8.8824                 5.6306

                    118                    119                    120
                      A                      A                      A
 Frequencies --   3181.4157              3192.7371              3205.5233
 Red. masses --      1.0853                 1.0901                 1.0955
 Frc consts  --      6.4721                 6.5467                 6.6324
 IR Inten    --      0.0695                23.0014                43.5029

                    121                    122                    123
                      A                      A                      A
 Frequencies --   3232.7729              3234.0228              3475.6948
 Red. masses --      1.0915                 1.0926                 1.0739
 Frc consts  --      6.7206                 6.7328                 7.6439
 IR Inten    --      6.2630                 3.8091                 1.0977

 - Thermochemistry -
 -------------------
 Temperature   298.150 Kelvin.  Pressure   1.00000 Atm.
 Atom     1 has atomic number  6 and mass  12.00000

 Molecular mass:   269.18920 amu.
 Principal axes and moments of inertia in atomic units:
                           1         2         3
     Eigenvalues --  1948.23535********************
           X            1.00000   0.00044   0.00106
           Y           -0.00044   1.00000   0.00255
           Z           -0.00106  -0.00255   1.00000
 This molecule is an asymmetric top.
 Rotational symmetry number  1.
 Warning -- assumption of classical behavior for rotation
           may cause significant error
 Rotational temperatures (Kelvin)      0.04446     0.00672     0.00619
 Rotational constants (GHZ):           0.92635     0.14000     0.12893
 Zero-point vibrational energy     979665.8 (Joules/Mol)
                                  234.14576 (Kcal/Mol)
 Warning -- explicit consideration of  32 degrees of freedom as
           vibrations may cause significant error
 Vibrational temperatures:     32.02    40.84    47.45    67.58   139.78
          (Kelvin)            168.54   177.57   194.04   215.44   226.58
                              269.07   324.28   325.84   327.74   389.11
                              399.46   406.54   448.09   484.05   499.11
                              510.70   529.07   547.05   601.55   649.38
                              661.54   697.95   726.80   797.69   804.98
                              815.22   832.81   916.21   960.25   977.46
                             1023.71  1077.28  1095.87  1123.44  1164.41
                             1213.63  1251.92  1325.89  1337.46  1344.10
                             1353.91  1374.44  1397.16  1399.08  1421.49
                             1447.83  1454.19  1459.67  1472.34  1518.59
                             1522.70  1524.08  1537.46  1549.35  1576.66
                             1597.13  1619.71  1663.97  1715.66  1731.39
                             1765.02  1778.08  1808.48  1830.49  1847.78
                             1878.42  1925.62  1969.02  2001.39  2010.69
                             2036.15  2049.06  2054.70  2066.92  2072.48
                             2079.36  2090.44  2159.07  2161.43  2163.32
                             2172.25  2173.59  2177.33  2182.76  2185.17
                             2189.15  2206.19  2224.23  2225.35  2228.40
                             2248.88  2307.83  2331.71  2368.28  2396.99
                             4331.68  4375.05  4382.09  4385.22  4392.64
                             4397.14  4434.13  4466.92  4469.54  4476.74
                             4483.73  4483.80  4493.87  4501.07  4511.59
                             4550.87  4556.97  4577.35  4593.64  4612.03
                             4651.24  4653.04  5000.75

 Zero-point correction=                           0.373135 (Hartree/Particle)
 Thermal correction to Energy=                    0.393151
 Thermal correction to Enthalpy=                  0.394095
 Thermal correction to Gibbs Free Energy=         0.323631
 Sum of electronic and zero-point Energies=           -825.654952
 Sum of electronic and thermal Energies=              -825.634935
 Sum of electronic and thermal Enthalpies=            -825.633991
 Sum of electronic and thermal Free Energies=         -825.704455

                     E (Thermal)             CV                S
                      KCal/Mol        Cal/Mol-Kelvin    Cal/Mol-Kelvin
 Total                  246.706             77.013            148.304
 Electronic               0.000              0.000              0.000
 Translational            0.889              2.981             42.670
 Rotational               0.889              2.981             34.218
 Vibrational            244.929             71.051             71.416
 Vibration     1          0.593              1.985              6.422
 Vibration     2          0.593              1.984              5.939
 Vibration     3          0.594              1.983              5.642
 Vibration     4          0.595              1.979              4.941
 Vibration     5          0.603              1.951              3.511
 Vibration     6          0.608              1.935              3.147
 Vibration     7          0.610              1.929              3.046
 Vibration     8          0.613              1.919              2.875
 Vibration     9          0.618              1.903              2.676
 Vibration    10          0.621              1.894              2.580
 Vibration    11          0.632              1.858              2.257
 Vibration    12          0.650              1.802              1.915
 Vibration    13          0.650              1.801              1.907
 Vibration    14          0.651              1.799              1.896
 Vibration    15          0.674              1.728              1.593
 Vibration    16          0.679              1.715              1.548
 Vibration    17          0.682              1.706              1.518
 Vibration    18          0.700              1.652              1.355
 Vibration    19          0.717              1.603              1.229
 Vibration    20          0.725              1.582              1.180
 Vibration    21          0.731              1.565              1.144
 Vibration    22          0.740              1.539              1.089
 Vibration    23          0.750              1.512              1.038
 Vibration    24          0.781              1.431              0.898
 Vibration    25          0.810              1.358              0.792
 Vibration    26          0.818              1.339              0.767
 Vibration    27          0.841              1.283              0.696
 Vibration    28          0.860              1.239              0.645
 Vibration    29          0.910              1.130              0.535
 Vibration    30          0.915              1.119              0.525
 Vibration    31          0.923              1.104              0.511
 Vibration    32          0.935              1.077              0.488

 Optimization completed.
    -- Stationary point found.
 Normal termination of Gaussian 16 at Sun Dec 13 17:07:08 2020.

 ----------------------------------------------------------------------
 # B3LYP/6-311++G(d,p) empiricaldispersion=gd3bj scf=xqc pop=npa geom=c
 heck
 ----------------------------------------------------------------------

 ---------------------------------------
 CID_62745147_JID_10238_Energie_neutraal
 ---------------------------------------
 Structure from the checkpoint file:  "JID_10238.chk"
 Charge =  0 Multiplicity = 1

 SCF Done:  E(RB3LYP) =  -826.243495930     A.U. after   14 cycles
 Normal termination of Gaussian 16 at Sun Dec 13 17:18:03 2020.

 ----------------------------------------------------------------------
 # B3LYP/6-311++G(d,p) empiricaldispersion=gd3bj scf=xqc pop=npa geom=c
 heck
 ----------------------------------------------------------------------

 -------------------------------------
 CID_62745147_JID_10238_Energie_kation
 -------------------------------------
 Structure from the checkpoint file:  "JID_10238.chk"
 Charge =  1 Multiplicity = 2

 SCF Done:  E(UB3LYP) =  -825.955527878     A.U. after   27 cycles
 Normal termination of Gaussian 16 at Sun Dec 13 17:48:04 2020.
 Gaussian 16:  ES64L-G16RevA.03 25-Dec-2016

 ----------------------------------------------------------------------
 # B3LYP/6-311++G(d,p) empiricaldispersion=gd3bj scf=xqc pop=npa geom=c
 heck
 ----------------------------------------------------------------------

 ------------------------------------
 CID_62745147_JID_10238_Energie_anion
 ------------------------------------
 Structure from the checkpoint file:  "JID_10238.chk"
 Charge = -1 Multiplicity = 2

                         Standard orientation:
 ---------------------------------------------------------------------
 Center     Atomic      Atomic             Coordinates (Angstroms)
 Number     Number       Type             X           Y           Z
 ---------------------------------------------------------------------
      1          6           0        0.671908    2.631992   -0.508092
      2          6           0        0.049716    1.258250   -0.449404
      3          6           0        0.800976    0.085333   -0.612552
      4          6           0        0.099624   -1.128403   -0.497556
      5          7           0       -1.219450   -1.158098   -0.280052
      6          6           0       -1.857765    0.017930   -0.163542
      7          7           0       -1.271527    1.222398   -0.230785
      8          6           0       -3.322115   -0.019121    0.065562
      9          6           0       -3.995120   -1.246529    0.154225
     10          6           0       -5.370468   -1.279798    0.368499
     11          6           0       -6.090625   -0.090091    0.496813
     12          6           0       -5.425998    1.135206    0.409408
     13          6           0       -4.050814    1.172338    0.195258
     14          6           0        0.800091   -2.455249   -0.613193
     15          6           0        2.292850    0.108583   -0.833017
     16          7           0        2.980857   -0.210461    0.424341
     17          6           0        4.451856   -0.059009    0.451844
     18          6           0        4.909338    1.391587    0.195456
     19          6           0        4.894853   -0.493160    1.856069
     20          6           0        5.073118   -0.998135   -0.591760
     21          1           0        1.559784    2.704925    0.129766
     22          1           0        0.985785    2.882215   -1.528923
     23          1           0       -0.063851    3.369860   -0.183720
     24          1           0       -3.422116   -2.160927    0.052861
     25          1           0       -5.882525   -2.235771    0.435815
     26          1           0       -7.163992   -0.117589    0.663988
     27          1           0       -5.981493    2.063788    0.508471
     28          1           0       -3.520830    2.115220    0.125301
     29          1           0        1.120352   -2.637719   -1.647560
     30          1           0        1.695261   -2.467831    0.015785
     31          1           0        0.117254   -3.254179   -0.319040
     32          1           0        2.564119   -0.652288   -1.572107
     33          1           0        2.587345    1.077032   -1.263956
     34          1           0        2.581760    0.366416    1.164090
     35          1           0        4.472808    2.071225    0.938040
     36          1           0        5.999760    1.477350    0.264302
     37          1           0        4.615244    1.740631   -0.800088
     38          1           0        4.580173   -1.522663    2.052326
     39          1           0        5.983256   -0.428926    1.960472
     40          1           0        4.447224    0.151530    2.623138
     41          1           0        4.700382   -2.018480   -0.454018
     42          1           0        4.843334   -0.681610   -1.614742
     43          1           0        6.163259   -1.009411   -0.488827
 ---------------------------------------------------------------------

 SCF Done:  E(UB3LYP) =  -826.248905323     A.U. after   30 cycles

 The electronic state is 2-A.
 Alpha  occ. eigenvalues --  -14.19640 -14.16802 -14.16776 -10.11822 -10.09466
 Alpha  occ. eigenvalues --  -10.09213 -10.09109 -10.08558 -10.07085 -10.07069
 Alpha  occ. eigenvalues --  -10.07035 -10.06260 -10.05242 -10.04862 -10.04841
 Alpha  occ. eigenvalues --  -10.04499 -10.04279 -10.04004 -10.03735 -10.03729
 Alpha  occ. eigenvalues --   -0.84720  -0.81463  -0.75518  -0.72892  -0.70685
 Alpha  occ. eigenvalues --   -0.67386  -0.62574  -0.62298  -0.61604  -0.60639
 Alpha  occ. eigenvalues --   -0.60215  -0.59636  -0.55284  -0.50507  -0.48830
 Alpha  occ. eigenvalues --   -0.46181  -0.46132  -0.45516  -0.40797  -0.39635
 Alpha  occ. eigenvalues --   -0.38992  -0.37194  -0.35981  -0.34912  -0.33810
 Alpha  occ. eigenvalues --   -0.33157  -0.32608  -0.31837  -0.31421  -0.31222
 Alpha  occ. eigenvalues --   -0.30339  -0.29657  -0.29616  -0.29283  -0.28713
 Alpha  occ. eigenvalues --   -0.28279  -0.27751  -0.27575  -0.27277  -0.25983
 Alpha  occ. eigenvalues --   -0.25501  -0.24880  -0.24256  -0.23750  -0.22037
 Alpha  occ. eigenvalues --   -0.21618  -0.17247  -0.16784  -0.16227  -0.13130
 Alpha  occ. eigenvalues --   -0.13128  -0.11327  -0.10972   0.03676
 Alpha virt. eigenvalues --    0.05365   0.07543   0.07653   0.07971   0.08183
 Alpha virt. eigenvalues --    0.08918   0.09318   0.09797   0.09876   0.09942
 Alpha virt. eigenvalues --    0.10497   0.10927   0.11500   0.11681   0.12270

  Beta  occ. eigenvalues --  -14.19587 -14.16737 -14.16691 -10.11814 -10.09462
  Beta  occ. eigenvalues --  -10.09192 -10.09125 -10.08246 -10.07067 -10.07049
  Beta  occ. eigenvalues --  -10.07017 -10.06259 -10.05245 -10.04910 -10.04887
  Beta  occ. eigenvalues --  -10.04270 -10.04060 -10.03948 -10.03620 -10.03616
  Beta  occ. eigenvalues --   -0.84412  -0.81379  -0.75279  -0.72662  -0.70522
  Beta  occ. eigenvalues --   -0.67179  -0.62495  -0.62008  -0.61460  -0.60584
  Beta  occ. eigenvalues --   -0.60177  -0.59499  -0.55086  -0.50087  -0.48760
  Beta  occ. eigenvalues --   -0.46106  -0.46061  -0.45279  -0.40687  -0.39530
  Beta  occ. eigenvalues --   -0.38938  -0.37108  -0.35939  -0.34714  -0.33768
  Beta  occ. eigenvalues --   -0.32895  -0.32524  -0.31758  -0.31357  -0.31139
  Beta  occ. eigenvalues --   -0.30250  -0.29617  -0.29536  -0.29253  -0.28665
  Beta  occ. eigenvalues --   -0.28242  -0.27665  -0.27176  -0.26854  -0.25886
  Beta  occ. eigenvalues --   -0.25449  -0.24826  -0.24188  -0.23237  -0.21870
  Beta  occ. eigenvalues --   -0.21556  -0.16618  -0.16596  -0.15067  -0.13080
  Beta  occ. eigenvalues --   -0.12634  -0.11198  -0.09873
  Beta virt. eigenvalues --    0.05688   0.07595   0.07637   0.07999   0.08233
  Beta virt. eigenvalues --    0.08359   0.09034   0.09303   0.09827   0.09890
  Beta virt. eigenvalues --    0.09948   0.10454   0.10910   0.11512   0.11904

 Mulliken charges and spin densities:
               1          2
     1  C   -0.610055  -0.038583
     2  C    0.324537   0.000364
     3  C    0.708143   0.147791
     4  C   -0.402211   0.035424
     5  N    0.087148   0.024232
     6  C   -0.176810   0.186520
     7  N    0.064989   0.035187
     8  C    0.727444   0.000529
     9  C   -0.374728   0.104037
    10  C   -0.471617  -0.029042
    11  C   -0.342221   0.170826
    12  C   -0.512222  -0.033312
    13  C   -0.367076   0.111040
    14  C   -0.564803  -0.039058
    15  C   -0.600804  -0.183137
    16  N    0.208449  -0.050149
    17  C   -0.930281   0.853078
    18  C    0.134538  -0.634860
    19  C   -0.114611  -0.334026
    20  C    0.101850  -0.540890
    21  H    0.089057   0.044519
    22  H    0.161332   0.000598
    23  H    0.154672   0.003395
    24  H    0.146000  -0.006306
    25  H    0.131624   0.002011
    26  H    0.094683  -0.013577
    27  H    0.130104   0.002155
    28  H    0.151981  -0.006295
    29  H    0.144873   0.002427
    30  H    0.179642   0.002421
    31  H    0.151924   0.003916
    32  H    0.114477   0.002841
    33  H    0.150038  -0.030407
    34  H    0.248875  -0.019768
    35  H    0.063353   0.073582
    36  H   -0.105869   0.259726
    37  H    0.023349   0.117252
    38  H    0.078140   0.078092
    39  H   -0.062244   0.194743
    40  H    0.003056   0.122173
    41  H    0.128745   0.010703
    42  H    0.055267   0.091754
    43  H   -0.122737   0.278074
 Sum of Mulliken charges =  -1.00000   1.00000

 Dipole moment (field-independent basis, Debye):
    X=              2.8765    Y=              0.3937    Z=             -1.0504  Tot=              3.0875
 Quadrupole moment (field-independent basis, Debye-Ang):
   XX=           -227.4511   YY=           -139.7842   ZZ=           -138.3183
   XY=             -0.3852   XZ=             -4.1475   YZ=              0.4826

 Summary of Natural Population Analysis:

                                       Natural Population
                Natural  -----------------------------------------------
    Atom  No    Charge         Core      Valence    Rydberg      Total
 -----------------------------------------------------------------------
      C    1   -0.30202      0.99963     2.29705    0.00533     3.30202
      C    2    0.12536      0.99951     1.86246    0.01267     2.87464
      C    3   -0.03572      0.99940     2.02696    0.00936     3.03572
      C    4    0.13795      0.99951     1.84938    0.01316     2.86205
      N    5   -0.25418      0.99966     2.74342    0.01111     3.75418
      C    6    0.24672      0.99961     1.73301    0.02065     2.75328
      N    7   -0.25397      0.99966     2.74251    0.01180     3.75397
      C    8    0.01465      0.99949     1.97649    0.00937     2.98535
      C    9   -0.08597      0.99960     2.07150    0.01488     3.08597
      C   10   -0.13412      0.99948     2.11796    0.01668     3.13412
      C   11   -0.03053      0.99946     2.02287    0.00820     3.03053
      C   12   -0.13460      0.99948     2.11845    0.01667     3.13460
      C   13   -0.08564      0.99960     2.07116    0.01488     3.08564
      C   14   -0.30640      0.99963     2.30225    0.00452     3.30640
      C   15   -0.09907      0.99961     2.08954    0.00993     3.09907
      N   16   -0.34140      0.99972     2.83045    0.01123     3.84140
      C   17    0.05404      0.99960     1.93468    0.01168     2.94596
      C   18   -0.29553      0.99962     2.28873    0.00718     3.29553
      C   19   -0.28500      0.99962     2.27784    0.00755     3.28500
      C   20   -0.29047      0.99962     2.28380    0.00706     3.29047
      H   21    0.09888      0.00000     0.39980    0.00133     0.40112
      H   22    0.10048      0.00000     0.39835    0.00117     0.39952
      H   23    0.10897      0.00000     0.38975    0.00128     0.39103
      H   24    0.10712      0.00000     0.39179    0.00109     0.39288
      H   25    0.09033      0.00000     0.40804    0.00163     0.40967
      H   26    0.08515      0.00000     0.41390    0.00094     0.41485
      H   27    0.09028      0.00000     0.40809    0.00163     0.40972
      H   28    0.10670      0.00000     0.39219    0.00111     0.39330
      H   29    0.09882      0.00000     0.40029    0.00090     0.40118
      H   30    0.11123      0.00000     0.38731    0.00147     0.38877
      H   31    0.10668      0.00000     0.39238    0.00094     0.39332
      H   32    0.09477      0.00000     0.40390    0.00133     0.40523
      H   33    0.08464      0.00000     0.41371    0.00165     0.41536
      H   34    0.17241      0.00000     0.32505    0.00254     0.32759
      H   35    0.09821      0.00000     0.40090    0.00089     0.40179
      H   36    0.10021      0.00000     0.39885    0.00094     0.39979
      H   37    0.09929      0.00000     0.39987    0.00084     0.40071
      H   38    0.10371      0.00000     0.39537    0.00092     0.39629
      H   39    0.09872      0.00000     0.40043    0.00085     0.40128
      H   40    0.09737      0.00000     0.40187    0.00075     0.40263
      H   41    0.10335      0.00000     0.39586    0.00079     0.39665
      H   42    0.09933      0.00000     0.39994    0.00073     0.40067
      H   43    0.10021      0.00000     0.39898    0.00080     0.39979
 =======================================================================
   * Total *    0.00098     19.99150    52.75710    0.25043    72.99902

 Normal termination of Gaussian 16 at Sun Dec 13 18:21:22 2020.
