 Gaussian 16, Revision A.03,

 -----------------------------------------------------------
 # opt freq B3LYP/6-31G(d) empiricaldispersion=gd3bj scf=xqc
 -----------------------------------------------------------

 -------------------------------
 CID_124198385_JID_4591_neutraal
 -------------------------------
 Symbolic Z-matrix:
 Charge =  0 Multiplicity = 1

 SCF Done:  E(RB3LYP) =  -561.646132626     A.U. after   13 cycles
 SCF Done:  E(RB3LYP) =  -561.650212776     A.U. after   11 cycles
 SCF Done:  E(RB3LYP) =  -561.650799214     A.U. after   11 cycles
 SCF Done:  E(RB3LYP) =  -561.650988401     A.U. after   12 cycles
 SCF Done:  E(RB3LYP) =  -561.651123698     A.U. after   11 cycles
 SCF Done:  E(RB3LYP) =  -561.651214237     A.U. after   10 cycles
 SCF Done:  E(RB3LYP) =  -561.651236410     A.U. after   10 cycles
 SCF Done:  E(RB3LYP) =  -561.651240742     A.U. after    9 cycles
 SCF Done:  E(RB3LYP) =  -561.651242783     A.U. after    9 cycles
 SCF Done:  E(RB3LYP) =  -561.651243208     A.U. after    8 cycles
 SCF Done:  E(RB3LYP) =  -561.651243259     A.U. after    7 cycles
 Optimization completed.
    -- Stationary point found.
 Normal termination of Gaussian 16 at Thu Dec 10 10:07:56 2020.

 --------------------------------------------------------------------
 #N Geom=AllCheck Guess=TCheck SCRF=Check GenChk RB3LYP/6-31G(d) Freq
 --------------------------------------------------------------------

 Structure from the checkpoint file:  "JID_4591.chk"
 -------------------------------
 CID_124198385_JID_4591_neutraal
 -------------------------------
 Charge =  0 Multiplicity = 1

 SCF Done:  E(RB3LYP) =  -561.651243259     A.U. after    1 cycles

  Exact polarizability: 176.961  -8.565 150.468  -1.226   0.240  87.399
 Approx polarizability: 237.931  -9.741 240.584  -2.308  -0.857 134.107

                      1                      2                      3
                      A                      A                      A
 Frequencies --     41.8395                53.1093                78.1544
 Red. masses --      3.2311                 3.3843                 2.8077
 Frc consts  --      0.0033                 0.0056                 0.0101
 IR Inten    --      0.1535                 0.0023                 0.0484

                      4                      5                      6
                      A                      A                      A
 Frequencies --    106.7545               163.3692               177.1242
 Red. masses --      3.1291                 2.2689                 2.1617
 Frc consts  --      0.0210                 0.0357                 0.0400
 IR Inten    --      0.3539                 0.0389                 0.0535

                      7                      8                      9
                      A                      A                      A
 Frequencies --    219.3681               242.3285               257.4431
 Red. masses --      2.4743                 1.2837                 1.6666
 Frc consts  --      0.0702                 0.0444                 0.0651
 IR Inten    --      0.6781                 0.0472                 0.2614

                     10                     11                     12
                      A                      A                      A
 Frequencies --    280.2537               292.6913               353.9470
 Red. masses --      1.7770                 3.1026                 2.3515
 Frc consts  --      0.0822                 0.1566                 0.1736
 IR Inten    --      0.4709                 4.1906                 0.0926

                     13                     14                     15
                      A                      A                      A
 Frequencies --    371.7033               428.6444               462.7523
 Red. masses --      2.0369                 3.1264                 2.5542
 Frc consts  --      0.1658                 0.3384                 0.3223
 IR Inten    --      0.8392                 3.6892                 0.1929

                     16                     17                     18
                      A                      A                      A
 Frequencies --    474.4826               490.1004               515.3094
 Red. masses --      3.4711                 2.7221                 2.0223
 Frc consts  --      0.4604                 0.3852                 0.3164
 IR Inten    --      8.8145                11.4887                63.4032

                     19                     20                     21
                      A                      A                      A
 Frequencies --    557.9674               594.7506               640.7150
 Red. masses --      3.6247                 4.2435                 4.3741
 Frc consts  --      0.6649                 0.8844                 1.0580
 IR Inten    --      0.9368                30.4590                 7.4921

                     22                     23                     24
                      A                      A                      A
 Frequencies --    701.5110               734.7525               745.0389
 Red. masses --      2.4615                 1.5761                 2.0669
 Frc consts  --      0.7137                 0.5013                 0.6760
 IR Inten    --     44.1841                11.3642                 7.3490

                     25                     26                     27
                      A                      A                      A
 Frequencies --    758.6175               797.6398               838.6677
 Red. masses --      1.5855                 1.6663                 2.2582
 Frc consts  --      0.5376                 0.6246                 0.9358
 IR Inten    --     56.3194                 1.4220                 1.3784

                     28                     29                     30
                      A                      A                      A
 Frequencies --    854.4344               870.4280               888.7728
 Red. masses --      1.6113                 2.3244                 2.2198
 Frc consts  --      0.6931                 1.0376                 1.0331
 IR Inten    --      1.3649                 1.3976                 4.1797

                     31                     32                     33
                      A                      A                      A
 Frequencies --    901.6132               923.8433               952.2435
 Red. masses --      2.3740                 1.4307                 1.7969
 Frc consts  --      1.1370                 0.7194                 0.9600
 IR Inten    --      2.9584                 1.4295                 6.2864

                     34                     35                     36
                      A                      A                      A
 Frequencies --    959.5491               965.3984               989.9916
 Red. masses --      1.2232                 1.9947                 1.5189
 Frc consts  --      0.6635                 1.0953                 0.8771
 IR Inten    --      0.2080                 7.8627                 3.0065

                     37                     38                     39
                      A                      A                      A
 Frequencies --   1046.9785              1055.0834              1056.6203
 Red. masses --      1.8337                 1.5179                 2.1171
 Frc consts  --      1.1843                 0.9956                 1.3926
 IR Inten    --      1.1110                 2.6492                 6.5519

                     40                     41                     42
                      A                      A                      A
 Frequencies --   1100.9119              1115.8149              1127.5111
 Red. masses --      2.3490                 2.3335                 2.0286
 Frc consts  --      1.6774                 1.7118                 1.5194
 IR Inten    --      1.9809                 8.0034                 2.5022

                     43                     44                     45
                      A                      A                      A
 Frequencies --   1147.0886              1156.7114              1167.2166
 Red. masses --      1.8090                 2.0776                 1.7972
 Frc consts  --      1.4024                 1.6378                 1.4426
 IR Inten    --      2.6693                 6.0481                 4.3385

                     46                     47                     48
                      A                      A                      A
 Frequencies --   1189.6187              1207.7078              1233.0319
 Red. masses --      1.1178                 2.2943                 1.3629
 Frc consts  --      0.9321                 1.9716                 1.2209
 IR Inten    --      2.0047                 0.3151                15.2452

                     49                     50                     51
                      A                      A                      A
 Frequencies --   1274.0731              1287.9689              1294.3862
 Red. masses --      1.3240                 1.5610                 1.8711
 Frc consts  --      1.2663                 1.5256                 1.8470
 IR Inten    --      3.8736                22.0615                42.7014

                     52                     53                     54
                      A                      A                      A
 Frequencies --   1304.0135              1321.7968              1352.0577
 Red. masses --      1.4813                 1.2793                 1.1930
 Frc consts  --      1.4841                 1.3169                 1.2850
 IR Inten    --      1.1131                 0.1479                21.0170

                     55                     56                     57
                      A                      A                      A
 Frequencies --   1365.9129              1372.1203              1391.5302
 Red. masses --      1.7723                 1.8635                 1.4454
 Frc consts  --      1.9482                 2.0671                 1.6490
 IR Inten    --     13.6800                11.6292                10.0413

                     58                     59                     60
                      A                      A                      A
 Frequencies --   1402.5969              1409.3179              1418.5045
 Red. masses --      1.5448                 1.4277                 1.4594
 Frc consts  --      1.7906                 1.6708                 1.7301
 IR Inten    --     18.8139                 2.3407                 2.4941

                     61                     62                     63
                      A                      A                      A
 Frequencies --   1438.8617              1444.1907              1457.0570
 Red. masses --      1.3278                 1.2693                 1.6940
 Frc consts  --      1.6196                 1.5598                 2.1190
 IR Inten    --     15.1299                 6.7273                 5.8181

                     64                     65                     66
                      A                      A                      A
 Frequencies --   1511.6944              1517.3262              1522.1971
 Red. masses --      1.0785                 1.9932                 1.1015
 Frc consts  --      1.4522                 2.7036                 1.5038
 IR Inten    --      4.3988                28.9512                 1.9602

                     67                     68                     69
                      A                      A                      A
 Frequencies --   1524.1650              1524.6688              1530.7055
 Red. masses --      1.0858                 1.1300                 1.0778
 Frc consts  --      1.4862                 1.5477                 1.4879
 IR Inten    --      1.8027                 5.7369                 8.1944

                     70                     71                     72
                      A                      A                      A
 Frequencies --   1535.6353              1539.1451              1542.6000
 Red. masses --      1.0760                 2.5860                 1.0744
 Frc consts  --      1.4950                 3.6094                 1.5063
 IR Inten    --      6.4494                58.3440                 2.7724

                     73                     74                     75
                      A                      A                      A
 Frequencies --   1656.2375              1671.6622              2958.7879
 Red. masses --      6.2060                 6.4009                 1.0830
 Frc consts  --     10.0301                10.5387                 5.5862
 IR Inten    --      2.4342                49.8109                53.8809

                     76                     77                     78
                      A                      A                      A
 Frequencies --   3006.5341              3028.7479              3039.6998
 Red. masses --      1.0817                 1.0629                 1.0628
 Frc consts  --      5.7609                 5.7448                 5.7857
 IR Inten    --     24.6971                17.4441                33.5963

                     79                     80                     81
                      A                      A                      A
 Frequencies --   3043.7208              3047.4076              3053.5970
 Red. masses --      1.0468                 1.0525                 1.0383
 Frc consts  --      5.7138                 5.7590                 5.7042
 IR Inten    --     22.7760                17.7486                23.2631

                     82                     83                     84
                      A                      A                      A
 Frequencies --   3060.9784              3074.1220              3082.7547
 Red. masses --      1.0985                 1.1000                 1.1010
 Frc consts  --      6.0641                 6.1246                 6.1645
 IR Inten    --     30.0634                37.2130                69.8453

                     85                     86                     87
                      A                      A                      A
 Frequencies --   3110.4256              3116.7041              3117.1552
 Red. masses --      1.1015                 1.1016                 1.1007
 Frc consts  --      6.2789                 6.3050                 6.3016
 IR Inten    --     53.2333                62.3179                21.5247

                     88                     89                     90
                      A                      A                      A
 Frequencies --   3139.5344              3176.9387              3182.4185
 Red. masses --      1.1017                 1.0853                 1.0885
 Frc consts  --      6.3979                 6.4540                 6.4949
 IR Inten    --     27.2591                 7.7239                 7.7954

                     91                     92                     93
                      A                      A                      A
 Frequencies --   3194.5242              3208.4418              3565.1936
 Red. masses --      1.0925                 1.0967                 1.0762
 Frc consts  --      6.5689                 6.6516                 8.0595
 IR Inten    --     36.7881                30.2466                 4.5591

 - Thermochemistry -
 -------------------
 Temperature   298.150 Kelvin.  Pressure   1.00000 Atm.
 Atom     1 has atomic number  6 and mass  12.00000

 Molecular mass:   189.15175 amu.
 Principal axes and moments of inertia in atomic units:
                           1         2         3
     Eigenvalues --  1541.580384104.831585226.61330
           X            0.99996   0.00735   0.00424
           Y           -0.00737   0.99997   0.00321
           Z           -0.00421  -0.00324   0.99999
 This molecule is an asymmetric top.
 Rotational symmetry number  1.
 Warning -- assumption of classical behavior for rotation
           may cause significant error
 Rotational temperatures (Kelvin)      0.05619     0.02110     0.01657
 Rotational constants (GHZ):           1.17071     0.43966     0.34530
 Zero-point vibrational energy     778217.0 (Joules/Mol)
                                  185.99832 (Kcal/Mol)
 Warning -- explicit consideration of  20 degrees of freedom as
           vibrations may cause significant error
 Vibrational temperatures:     60.20    76.41   112.45   153.60   235.05
          (Kelvin)            254.84   315.62   348.66   370.40   403.22
                              421.12   509.25   534.80   616.72   665.80
                              682.67   705.15   741.42   802.79   855.71
                              921.85  1009.32  1057.14  1071.94  1091.48
                             1147.63  1206.66  1229.34  1252.35  1278.75
                             1297.22  1329.20  1370.07  1380.58  1388.99
                             1424.38  1506.37  1518.03  1520.24  1583.97
                             1605.41  1622.24  1650.40  1664.25  1679.36
                             1711.60  1737.62  1774.06  1833.11  1853.10
                             1862.33  1876.18  1901.77  1945.31  1965.24
                             1974.18  2002.10  2018.02  2027.69  2040.91
                             2070.20  2077.87  2096.38  2174.99  2183.09
                             2190.10  2192.93  2193.66  2202.34  2209.44
                             2214.49  2219.46  2382.96  2405.15  4257.04
                             4325.73  4357.69  4373.45  4379.24  4384.54
                             4393.44  4404.07  4422.98  4435.40  4475.21
                             4484.24  4484.89  4517.09  4570.91  4578.79
                             4596.21  4616.23  5129.52

 Zero-point correction=                           0.296407 (Hartree/Particle)
 Thermal correction to Energy=                    0.309862
 Thermal correction to Enthalpy=                  0.310806
 Thermal correction to Gibbs Free Energy=         0.256229
 Sum of electronic and zero-point Energies=           -561.354836
 Sum of electronic and thermal Energies=              -561.341381
 Sum of electronic and thermal Enthalpies=            -561.340437
 Sum of electronic and thermal Free Energies=         -561.395015

                     E (Thermal)             CV                S
                      KCal/Mol        Cal/Mol-Kelvin    Cal/Mol-Kelvin
 Total                  194.441             53.180            114.868
 Electronic               0.000              0.000              0.000
 Translational            0.889              2.981             41.618
 Rotational               0.889              2.981             31.870
 Vibrational            192.664             47.219             41.381
 Vibration     1          0.594              1.980              5.170
 Vibration     2          0.596              1.976              4.698
 Vibration     3          0.599              1.964              3.937
 Vibration     4          0.606              1.944              3.327
 Vibration     5          0.623              1.887              2.510
 Vibration     6          0.628              1.871              2.359
 Vibration     7          0.647              1.812              1.964
 Vibration     8          0.659              1.775              1.786
 Vibration     9          0.667              1.750              1.679
 Vibration    10          0.680              1.710              1.532
 Vibration    11          0.688              1.687              1.458
 Vibration    12          0.730              1.567              1.149
 Vibration    13          0.743              1.530              1.073
 Vibration    14          0.790              1.408              0.863
 Vibration    15          0.820              1.333              0.758
 Vibration    16          0.831              1.307              0.725
 Vibration    17          0.846              1.272              0.683
 Vibration    18          0.870              1.216              0.621
 Vibration    19          0.914              1.122              0.528
 Vibration    20          0.952              1.043              0.459

 Optimization completed.
    -- Stationary point found.
 Normal termination of Gaussian 16 at Thu Dec 10 10:18:37 2020.

 ----------------------------------------------------------------------
 # B3LYP/6-311++G(d,p) empiricaldispersion=gd3bj scf=xqc pop=npa geom=c
 heck
 ----------------------------------------------------------------------

 ---------------------------------------
 CID_124198385_JID_4591_Energie_neutraal
 ---------------------------------------
 Structure from the checkpoint file:  "JID_4591.chk"
 Charge =  0 Multiplicity = 1

 SCF Done:  E(RB3LYP) =  -561.801962344     A.U. after   15 cycles
 Normal termination of Gaussian 16 at Thu Dec 10 10:22:47 2020.

 ----------------------------------------------------------------------
 # B3LYP/6-311++G(d,p) empiricaldispersion=gd3bj scf=xqc pop=npa geom=c
 heck
 ----------------------------------------------------------------------

 -------------------------------------
 CID_124198385_JID_4591_Energie_kation
 -------------------------------------
 Structure from the checkpoint file:  "JID_4591.chk"
 Charge =  1 Multiplicity = 2

 SCF Done:  E(UB3LYP) =  -561.536584777     A.U. after   21 cycles
 Normal termination of Gaussian 16 at Thu Dec 10 10:31:24 2020.
 Gaussian 16:  ES64L-G16RevA.03 25-Dec-2016

 ----------------------------------------------------------------------
 # B3LYP/6-311++G(d,p) empiricaldispersion=gd3bj scf=xqc pop=npa geom=c
 heck
 ----------------------------------------------------------------------

 ------------------------------------
 CID_124198385_JID_4591_Energie_anion
 ------------------------------------
 Structure from the checkpoint file:  "JID_4591.chk"
 Charge = -1 Multiplicity = 2

                         Standard orientation:
 ---------------------------------------------------------------------
 Center     Atomic      Atomic             Coordinates (Angstroms)
 Number     Number       Type             X           Y           Z
 ---------------------------------------------------------------------
      1          6           0       -3.566983   -1.738698   -0.849659
      2          6           0       -3.536162   -0.307300   -0.305481
      3          6           0       -2.768745   -0.160751    1.017653
      4          6           0       -1.301453   -0.612098    0.979176
      5          6           0       -0.401735    0.114791   -0.031201
      6          6           0       -0.201813    1.635485    0.257095
      7          7           0        1.201758    1.887258   -0.136692
      8          6           0        1.908994    0.683646   -0.080062
      9          6           0        3.289358    0.487947   -0.097252
     10          6           0        3.771315   -0.825824   -0.085002
     11          6           0        2.899348   -1.915433   -0.060843
     12          6           0        1.513125   -1.701989   -0.042982
     13          6           0        1.023648   -0.405159   -0.044591
     14          6           0       -1.142300    2.573293   -0.491765
     15          1           0       -2.566709   -2.088194   -1.128574
     16          1           0       -4.199184   -1.807772   -1.741677
     17          1           0       -3.964974   -2.436467   -0.102348
     18          1           0       -3.105921    0.358613   -1.064104
     19          1           0       -4.565219    0.041620   -0.148189
     20          1           0       -2.823372    0.883704    1.351868
     21          1           0       -3.284715   -0.748605    1.789541
     22          1           0       -0.861968   -0.491993    1.977992
     23          1           0       -1.261846   -1.686946    0.763966
     24          1           0       -0.831454    0.006401   -1.038721
     25          1           0       -0.320708    1.792623    1.343756
     26          1           0        1.640010    2.691193    0.298105
     27          1           0        3.973802    1.331750   -0.119505
     28          1           0        4.844747   -0.995562   -0.093144
     29          1           0        3.292915   -2.927401   -0.051657
     30          1           0        0.831679   -2.548913   -0.017269
     31          1           0       -2.182864    2.420508   -0.190460
     32          1           0       -0.886612    3.620707   -0.292492
     33          1           0       -1.059490    2.406460   -1.570769
 ---------------------------------------------------------------------

 SCF Done:  E(UB3LYP) =  -561.786780303     A.U. after   33 cycles
 SCF Done:  E(UB3LYP) =  -561.786780303     a.u. after    1 cycles

 The electronic state is 2-A.
 Alpha  occ. eigenvalues --  -14.21788 -10.10927 -10.10885 -10.08437 -10.08023
 Alpha  occ. eigenvalues --  -10.07929 -10.07478 -10.07368 -10.07277 -10.07087
 Alpha  occ. eigenvalues --  -10.06781 -10.06738 -10.06262 -10.06162  -0.84928
 Alpha  occ. eigenvalues --   -0.74726  -0.71939  -0.68227  -0.65695  -0.63992
 Alpha  occ. eigenvalues --   -0.61967  -0.58410  -0.54528  -0.51002  -0.49398
 Alpha  occ. eigenvalues --   -0.48755  -0.45513  -0.42620  -0.40168  -0.38473
 Alpha  occ. eigenvalues --   -0.36977  -0.35816  -0.35026  -0.33752  -0.32867
 Alpha  occ. eigenvalues --   -0.31731  -0.31403  -0.30178  -0.29364  -0.28824
 Alpha  occ. eigenvalues --   -0.27287  -0.26692  -0.26611  -0.26040  -0.24467
 Alpha  occ. eigenvalues --   -0.24430  -0.22503  -0.22388  -0.21640  -0.20144
 Alpha  occ. eigenvalues --   -0.15493  -0.10477   0.04371
 Alpha virt. eigenvalues --    0.05989   0.06531   0.07524   0.07979   0.08012
 Alpha virt. eigenvalues --    0.08197   0.09432   0.09478   0.09906   0.10023
 Alpha virt. eigenvalues --    0.10658   0.11334   0.11710   0.12373   0.12968

  Beta  occ. eigenvalues --  -14.21754 -10.10910 -10.10885 -10.08433 -10.08019
  Beta  occ. eigenvalues --  -10.07925 -10.07476 -10.07355 -10.07274 -10.07078
  Beta  occ. eigenvalues --  -10.06763 -10.06720 -10.06234 -10.06137  -0.84895
  Beta  occ. eigenvalues --   -0.74709  -0.71913  -0.68195  -0.65669  -0.63971
  Beta  occ. eigenvalues --   -0.61927  -0.58373  -0.54480  -0.50963  -0.49342
  Beta  occ. eigenvalues --   -0.48731  -0.45465  -0.42569  -0.40125  -0.38449
  Beta  occ. eigenvalues --   -0.36945  -0.35789  -0.34987  -0.33726  -0.32834
  Beta  occ. eigenvalues --   -0.31703  -0.31373  -0.30141  -0.29339  -0.28795
  Beta  occ. eigenvalues --   -0.27256  -0.26663  -0.26583  -0.26011  -0.24433
  Beta  occ. eigenvalues --   -0.24403  -0.22471  -0.22363  -0.21609  -0.20115
  Beta  occ. eigenvalues --   -0.15485  -0.10447
  Beta virt. eigenvalues --    0.06355   0.06874   0.07310   0.07751   0.08360
  Beta virt. eigenvalues --    0.08501   0.08648   0.09557   0.10043   0.10270
  Beta virt. eigenvalues --    0.10378   0.11060   0.11429   0.12142   0.12801

 Mulliken charges and spin densities:
               1          2
     1  C    1.093966  -1.756829
     2  C   -1.061613   0.902470
     3  C    0.881797  -1.175136
     4  C   -0.479814   0.142974
     5  C    1.833475  -1.340606
     6  C   -1.471088   0.753104
     7  N    0.037017   0.085175
     8  C   -1.371792   1.020549
     9  C   -0.978978   0.380584
    10  C    0.427886  -0.681829
    11  C   -0.295374  -0.144199
    12  C   -0.278966  -0.253646
    13  C    2.082033  -0.896326
    14  C    1.118909  -1.596009
    15  H   -0.094849   0.246659
    16  H   -0.288797   0.424539
    17  H   -0.073654   0.211701
    18  H    0.329476  -0.183533
    19  H   -0.751936   0.926579
    20  H    0.185036  -0.042757
    21  H   -0.280285   0.449671
    22  H    0.000761   0.173680
    23  H    0.104328   0.014305
    24  H   -0.029972   0.211446
    25  H   -0.356737   0.584500
    26  H   -0.255617   0.520898
    27  H   -0.541342   0.687352
    28  H    0.066598   0.077635
    29  H   -0.009244   0.158705
    30  H   -0.061633   0.172528
    31  H   -0.075234   0.210904
    32  H   -0.440511   0.593202
    33  H    0.036155   0.121712
 Sum of Mulliken charges =  -1.00000   1.00000

 Dipole moment (field-independent basis, Debye):
    X=              3.3265    Y=             -3.5660    Z=             -0.8357  Tot=              4.9478
 Quadrupole moment (field-independent basis, Debye-Ang):
   XX=           -171.6972   YY=           -141.0988   ZZ=           -119.9032
   XY=            -11.8687   XZ=             -0.4062   YZ=             -4.6556

 Summary of Natural Population Analysis:

                                       Natural Population
                Natural  -----------------------------------------------
    Atom  No    Charge         Core      Valence    Rydberg      Total
 -----------------------------------------------------------------------
      C    1   -0.28709      0.99967     2.28180    0.00562     3.28709
      C    2   -0.19332      0.99964     2.18563    0.00805     3.19332
      C    3   -0.18898      0.99963     2.18070    0.00865     3.18898
      C    4   -0.18576      0.99961     2.17672    0.00942     3.18576
      C    5   -0.11670      0.99955     2.10683    0.01033     3.11670
      C    6   -0.00133      0.99960     1.98946    0.01227     3.00133
      N    7   -0.31589      0.99967     2.80463    0.01158     3.81589
      C    8    0.09296      0.99944     1.89610    0.01150     2.90704
      C    9   -0.12538      0.99952     2.11614    0.00973     3.12538
      C   10   -0.09724      0.99958     2.08845    0.00922     3.09724
      C   11   -0.12502      0.99957     2.11506    0.01039     3.12502
      C   12   -0.09646      0.99951     2.08894    0.00800     3.09646
      C   13   -0.02446      0.99946     2.01561    0.00938     3.02446
      C   14   -0.28537      0.99964     2.27924    0.00650     3.28537
      H   15    0.09432      0.00000     0.40461    0.00106     0.40568
      H   16    0.09978      0.00000     0.39925    0.00097     0.40022
      H   17    0.09618      0.00000     0.40273    0.00109     0.40382
      H   18    0.09329      0.00000     0.40534    0.00137     0.40671
      H   19    0.09801      0.00000     0.40046    0.00153     0.40199
      H   20    0.09752      0.00000     0.40108    0.00139     0.40248
      H   21    0.09687      0.00000     0.40200    0.00113     0.40313
      H   22    0.10015      0.00000     0.39863    0.00122     0.39985
      H   23    0.09670      0.00000     0.40197    0.00133     0.40330
      H   24    0.10218      0.00000     0.39611    0.00171     0.39782
      H   25    0.08537      0.00000     0.41226    0.00237     0.41463
      H   26    0.19041      0.00000     0.30352    0.00607     0.30959
      H   27    0.10252      0.00000     0.39592    0.00156     0.39748
      H   28    0.09747      0.00000     0.40176    0.00077     0.40253
      H   29    0.09741      0.00000     0.40183    0.00076     0.40259
      H   30    0.09958      0.00000     0.39900    0.00141     0.40042
      H   31    0.10100      0.00000     0.39775    0.00126     0.39900
      H   32    0.10248      0.00000     0.39621    0.00131     0.39752
      H   33    0.09880      0.00000     0.39987    0.00132     0.40120
 =======================================================================
   * Total *    0.00000     13.99408    37.84564    0.16028    52.00000

 Normal termination of Gaussian 16 at Thu Dec 10 10:47:01 2020.
