 Gaussian 16, Revision A.03,

 -----------------------------------------------------------
 # opt freq B3LYP/6-31G(d) empiricaldispersion=gd3bj scf=xqc
 -----------------------------------------------------------

 ------------------------------
 CID_64081390_JID_7898_neutraal
 ------------------------------
 Symbolic Z-matrix:
 Charge =  0 Multiplicity = 1

 SCF Done:  E(RB3LYP) =  -803.323254087     A.U. after   15 cycles
 SCF Done:  E(RB3LYP) =  -803.327985985     A.U. after   13 cycles
 SCF Done:  E(RB3LYP) =  -803.327773369     A.U. after   12 cycles
 SCF Done:  E(RB3LYP) =  -803.328946864     A.U. after   12 cycles
 SCF Done:  E(RB3LYP) =  -803.329521234     A.U. after   12 cycles
 SCF Done:  E(RB3LYP) =  -803.329678747     A.U. after   11 cycles
 SCF Done:  E(RB3LYP) =  -803.329715039     A.U. after   11 cycles
 SCF Done:  E(RB3LYP) =  -803.329724955     A.U. after   10 cycles
 SCF Done:  E(RB3LYP) =  -803.329737030     A.U. after   10 cycles
 SCF Done:  E(RB3LYP) =  -803.329742827     A.U. after   10 cycles
 SCF Done:  E(RB3LYP) =  -803.329746201     A.U. after    9 cycles
 SCF Done:  E(RB3LYP) =  -803.329748094     A.U. after    9 cycles
 SCF Done:  E(RB3LYP) =  -803.329748745     A.U. after    8 cycles
 SCF Done:  E(RB3LYP) =  -803.329749009     A.U. after    8 cycles
 Optimization completed.
    -- Stationary point found.
 Normal termination of Gaussian 16 at Sun Dec 13 20:15:00 2020.

 --------------------------------------------------------------------
 #N Geom=AllCheck Guess=TCheck SCRF=Check GenChk RB3LYP/6-31G(d) Freq
 --------------------------------------------------------------------

 Structure from the checkpoint file:  "JID_7898.chk"
 ------------------------------
 CID_64081390_JID_7898_neutraal
 ------------------------------
 Charge =  0 Multiplicity = 1

 SCF Done:  E(RB3LYP) =  -803.329749009     A.U. after    1 cycles

  Exact polarizability: 197.170   8.556 157.088  -5.604   4.021  97.018
 Approx polarizability: 256.949  11.342 252.344 -12.692   8.241 155.059

                      1                      2                      3
                      A                      A                      A
 Frequencies --     20.4161                35.5881                50.0832
 Red. masses --      3.7846                 4.5209                 4.1943
 Frc consts  --      0.0009                 0.0034                 0.0062
 IR Inten    --      1.3203                 0.8211                 3.0427

                      4                      5                      6
                      A                      A                      A
 Frequencies --     70.6403                90.9871               112.6757
 Red. masses --      3.3388                 3.6378                 4.2375
 Frc consts  --      0.0098                 0.0177                 0.0317
 IR Inten    --      2.6932                 0.0981                 1.9356

                      7                      8                      9
                      A                      A                      A
 Frequencies --    136.2966               161.3282               163.1605
 Red. masses --      2.2247                 2.9768                 4.7285
 Frc consts  --      0.0243                 0.0456                 0.0742
 IR Inten    --      3.1464                 1.4455                 0.2635

                     10                     11                     12
                      A                      A                      A
 Frequencies --    173.9372               207.2027               218.8031
 Red. masses --      1.1946                 2.6412                 1.7158
 Frc consts  --      0.0213                 0.0668                 0.0484
 IR Inten    --      0.5537                 3.6084                 0.7580

                     13                     14                     15
                      A                      A                      A
 Frequencies --    236.9825               260.1459               276.6987
 Red. masses --      3.5645                 1.2364                 2.9672
 Frc consts  --      0.1179                 0.0493                 0.1338
 IR Inten    --      0.2799                 0.4786                 1.8826

                     16                     17                     18
                      A                      A                      A
 Frequencies --    290.1159               309.1650               318.8385
 Red. masses --      2.7778                 2.9055                 1.1718
 Frc consts  --      0.1378                 0.1636                 0.0702
 IR Inten    --      5.3540                 8.2626                94.2108

                     19                     20                     21
                      A                      A                      A
 Frequencies --    373.6306               401.5132               410.1333
 Red. masses --      4.2064                 4.6107                 5.5552
 Frc consts  --      0.3460                 0.4379                 0.5506
 IR Inten    --     17.7173                 5.6070                 3.2213

                     22                     23                     24
                      A                      A                      A
 Frequencies --    414.1207               445.5902               465.4206
 Red. masses --      2.2937                 2.4602                 3.0092
 Frc consts  --      0.2318                 0.2878                 0.3841
 IR Inten    --      3.7682                 4.3393                 4.5489

                     25                     26                     27
                      A                      A                      A
 Frequencies --    512.9858               545.0488               554.9865
 Red. masses --      3.6236                 3.0342                 3.5914
 Frc consts  --      0.5618                 0.5311                 0.6518
 IR Inten    --     14.6785                 2.0909                 2.0721

                     28                     29                     30
                      A                      A                      A
 Frequencies --    622.6502               665.7964               708.2441
 Red. masses --      3.7865                 6.2070                 4.2915
 Frc consts  --      0.8649                 1.6211                 1.2683
 IR Inten    --      2.4624                 9.0877                18.3475

                     31                     32                     33
                      A                      A                      A
 Frequencies --    720.3720               742.9233               763.3264
 Red. masses --      6.2766                 3.9034                 1.8388
 Frc consts  --      1.9191                 1.2693                 0.6313
 IR Inten    --      5.0832                20.9727                94.5645

                     34                     35                     36
                      A                      A                      A
 Frequencies --    798.0782               807.8079               835.8456
 Red. masses --      2.2013                 2.6923                 2.5546
 Frc consts  --      0.8261                 1.0351                 1.0516
 IR Inten    --     46.3453                26.3877                 6.6065

                     37                     38                     39
                      A                      A                      A
 Frequencies --    866.9396               893.1176               908.0196
 Red. masses --      2.3735                 1.3695                 1.4146
 Frc consts  --      1.0510                 0.6436                 0.6872
 IR Inten    --      7.0059                 8.1325                 9.8450

                     40                     41                     42
                      A                      A                      A
 Frequencies --    921.8840               988.9506              1019.4909
 Red. masses --      3.5396                 2.6734                 1.6286
 Frc consts  --      1.7724                 1.5405                 0.9973
 IR Inten    --     15.4130                 1.3337                 2.6688

                     43                     44                     45
                      A                      A                      A
 Frequencies --   1064.7249              1084.5224              1092.5318
 Red. masses --      2.2086                 2.2785                 3.0406
 Frc consts  --      1.4752                 1.5790                 2.1383
 IR Inten    --      9.1959                 7.0416               189.1053

                     46                     47                     48
                      A                      A                      A
 Frequencies --   1135.1102              1159.3674              1164.1121
 Red. masses --      2.2179                 1.4662                 1.5075
 Frc consts  --      1.6837                 1.1611                 1.2036
 IR Inten    --     14.5890                45.7734                62.1001

                     49                     50                     51
                      A                      A                      A
 Frequencies --   1176.3131              1187.4493              1204.1916
 Red. masses --      1.3675                 1.2716                 1.4993
 Frc consts  --      1.1148                 1.0564                 1.2810
 IR Inten    --      8.7509                 0.9751                31.8076

                     52                     53                     54
                      A                      A                      A
 Frequencies --   1207.7694              1210.2085              1229.8408
 Red. masses --      1.8274                 1.5398                 1.5344
 Frc consts  --      1.5705                 1.3287                 1.3674
 IR Inten    --     18.7826                47.7281                29.4565

                     55                     56                     57
                      A                      A                      A
 Frequencies --   1245.1408              1279.1520              1315.8303
 Red. masses --      2.2357                 2.4504                 3.5229
 Frc consts  --      2.0422                 2.3622                 3.5938
 IR Inten    --     19.7802                53.4938                 8.2307

                     58                     59                     60
                      A                      A                      A
 Frequencies --   1324.3003              1334.7003              1335.4661
 Red. masses --      1.9240                 2.0753                 1.4463
 Frc consts  --      1.9880                 2.1782                 1.5197
 IR Inten    --     40.9379               262.6667                37.3086

                     61                     62                     63
                      A                      A                      A
 Frequencies --   1384.6143              1399.0505              1414.3789
 Red. masses --      3.6821                 1.2989                 1.2982
 Frc consts  --      4.1592                 1.4980                 1.5301
 IR Inten    --     34.5207                13.9481                 9.9546

                     64                     65                     66
                      A                      A                      A
 Frequencies --   1450.4939              1475.3298              1480.2674
 Red. masses --      2.0643                 1.5051                 1.6217
 Frc consts  --      2.5589                 1.9302                 2.0937
 IR Inten    --     52.1980                47.3655               108.0587

                     67                     68                     69
                      A                      A                      A
 Frequencies --   1493.1240              1500.8411              1504.8639
 Red. masses --      1.1815                 1.1925                 1.2378
 Frc consts  --      1.5519                 1.5826                 1.6515
 IR Inten    --     30.6343                18.7911                22.8738

                     70                     71                     72
                      A                      A                      A
 Frequencies --   1507.2174              1513.9635              1519.3876
 Red. masses --      1.2574                 1.1569                 1.1073
 Frc consts  --      1.6829                 1.5624                 1.5061
 IR Inten    --     19.1571                 3.9362                 9.7893

                     73                     74                     75
                      A                      A                      A
 Frequencies --   1520.7366              1526.0705              1536.8469
 Red. masses --      1.0480                 1.0523                 1.0782
 Frc consts  --      1.4279                 1.4439                 1.5003
 IR Inten    --      5.6070                19.1845                42.5734

                     76                     77                     78
                      A                      A                      A
 Frequencies --   1546.1512              1558.3218              1560.9885
 Red. masses --      1.3296                 2.3461                 1.0437
 Frc consts  --      1.8728                 3.3568                 1.4984
 IR Inten    --    115.8092                80.4983                 3.3551

                     79                     80                     81
                      A                      A                      A
 Frequencies --   1650.5808              1682.1237              1731.9255
 Red. masses --      6.1047                 6.6778                10.2470
 Frc consts  --      9.7992                11.1327                18.1094
 IR Inten    --     47.0244                 2.9294               268.7572

                     82                     83                     84
                      A                      A                      A
 Frequencies --   3019.8109              3025.3296              3029.6616
 Red. masses --      1.0354                 1.0419                 1.0570
 Frc consts  --      5.5633                 5.6183                 5.7164
 IR Inten    --     62.0679                61.4514                10.9167

                     85                     86                     87
                      A                      A                      A
 Frequencies --   3041.0530              3054.5963              3071.5379
 Red. masses --      1.0654                 1.0412                 1.1023
 Frc consts  --      5.8050                 5.7239                 6.1270
 IR Inten    --     39.0341                76.1857                46.9176

                     88                     89                     90
                      A                      A                      A
 Frequencies --   3076.2607              3087.0576              3107.0836
 Red. masses --      1.1064                 1.1020                 1.1043
 Frc consts  --      6.1687                 6.1877                 6.2814
 IR Inten    --     47.0954                42.7714                26.1733

                     91                     92                     93
                      A                      A                      A
 Frequencies --   3111.2377              3157.6481              3159.3194
 Red. masses --      1.1019                 1.0929                 1.0989
 Frc consts  --      6.2841                 6.4201                 6.4625
 IR Inten    --     34.0713                 7.4351                27.4605

                     94                     95                     96
                      A                      A                      A
 Frequencies --   3168.9867              3174.1728              3225.7634
 Red. masses --      1.0897                 1.0980                 1.0909
 Frc consts  --      6.4476                 6.5181                 6.6879
 IR Inten    --     18.9884                12.6055                 1.5227

                     97                     98                     99
                      A                      A                      A
 Frequencies --   3232.2981              3492.0469              3757.3792
 Red. masses --      1.0909                 1.0732                 1.0660
 Frc consts  --      6.7154                 7.7106                 8.8669
 IR Inten    --      9.1180                 1.2757                45.0306

 - Thermochemistry -
 -------------------
 Temperature   298.150 Kelvin.  Pressure   1.00000 Atm.
 Atom     1 has atomic number  6 and mass  12.00000

 Molecular mass:   238.13174 amu.
 Principal axes and moments of inertia in atomic units:
                           1         2         3
     Eigenvalues --  2299.004336932.742788385.34126
           X            1.00000  -0.00101  -0.00146
           Y            0.00104   0.99982   0.01891
           Z            0.00144  -0.01891   0.99982
 This molecule is an asymmetric top.
 Rotational symmetry number  1.
 Warning -- assumption of classical behavior for rotation
           may cause significant error
 Rotational temperatures (Kelvin)      0.03767     0.01249     0.01033
 Rotational constants (GHZ):           0.78501     0.26032     0.21523
 Zero-point vibrational energy     778883.7 (Joules/Mol)
                                  186.15768 (Kcal/Mol)
 Warning -- explicit consideration of  27 degrees of freedom as
           vibrations may cause significant error
 Vibrational temperatures:     29.37    51.20    72.06   101.64   130.91
          (Kelvin)            162.12   196.10   232.12   234.75   250.26
                              298.12   314.81   340.96   374.29   398.11
                              417.41   444.82   458.74   537.57   577.69
                              590.09   595.83   641.10   669.64   738.07
                              784.20   798.50   895.85   957.93  1019.01
                             1036.45  1068.90  1098.26  1148.26  1162.26
                             1202.60  1247.33  1285.00  1306.44  1326.39
                             1422.88  1466.82  1531.90  1560.39  1571.91
                             1633.17  1668.07  1674.90  1692.45  1708.47
                             1732.56  1737.71  1741.22  1769.47  1791.48
                             1840.41  1893.19  1905.37  1920.34  1921.44
                             1992.15  2012.92  2034.98  2086.94  2122.67
                             2129.77  2148.27  2159.38  2165.16  2168.55
                             2178.26  2186.06  2188.00  2195.68  2211.18
                             2224.57  2242.08  2245.91  2374.82  2420.20
                             2491.85  4344.83  4352.77  4359.01  4375.40
                             4394.88  4419.26  4426.05  4441.59  4470.40
                             4476.38  4543.15  4545.56  4559.47  4566.93
                             4641.15  4650.56  5024.28  5406.03

 Zero-point correction=                           0.296661 (Hartree/Particle)
 Thermal correction to Energy=                    0.314559
 Thermal correction to Enthalpy=                  0.315503
 Thermal correction to Gibbs Free Energy=         0.249793
 Sum of electronic and zero-point Energies=           -803.033088
 Sum of electronic and thermal Energies=              -803.015190
 Sum of electronic and thermal Enthalpies=            -803.014246
 Sum of electronic and thermal Free Energies=         -803.079956

                     E (Thermal)             CV                S
                      KCal/Mol        Cal/Mol-Kelvin    Cal/Mol-Kelvin
 Total                  197.389             66.103            138.299
 Electronic               0.000              0.000              0.000
 Translational            0.889              2.981             42.304
 Rotational               0.889              2.981             33.257
 Vibrational            195.611             60.142             62.737
 Vibration     1          0.593              1.986              6.593
 Vibration     2          0.594              1.982              5.491
 Vibration     3          0.595              1.978              4.814
 Vibration     4          0.598              1.968              4.135
 Vibration     5          0.602              1.956              3.639
 Vibration     6          0.607              1.939              3.222
 Vibration     7          0.614              1.917              2.855
 Vibration     8          0.622              1.890              2.534
 Vibration     9          0.623              1.888              2.513
 Vibration    10          0.627              1.875              2.393
 Vibration    11          0.641              1.830              2.068
 Vibration    12          0.647              1.812              1.969
 Vibration    13          0.656              1.784              1.825
 Vibration    14          0.668              1.746              1.661
 Vibration    15          0.678              1.717              1.554
 Vibration    16          0.686              1.692              1.473
 Vibration    17          0.699              1.656              1.367
 Vibration    18          0.705              1.638              1.316
 Vibration    19          0.745              1.526              1.065
 Vibration    20          0.767              1.467              0.957
 Vibration    21          0.774              1.448              0.926
 Vibration    22          0.778              1.440              0.912
 Vibration    23          0.805              1.371              0.809
 Vibration    24          0.823              1.327              0.750
 Vibration    25          0.868              1.221              0.626
 Vibration    26          0.900              1.151              0.555
 Vibration    27          0.910              1.129              0.534

                           ! Non-Optimized Parameters !
 Normal termination of Gaussian 16 at Sun Dec 13 20:28:32 2020.

 ----------------------------------------------------------------------
 # B3LYP/6-311++G(d,p) empiricaldispersion=gd3bj scf=xqc pop=npa geom=c
 heck
 ----------------------------------------------------------------------

 --------------------------------------
 CID_64081390_JID_7898_Energie_neutraal
 --------------------------------------
 Structure from the checkpoint file:  "JID_7898.chk"
 Charge =  0 Multiplicity = 1

 SCF Done:  E(RB3LYP) =  -803.567286553     A.U. after   15 cycles
 Normal termination of Gaussian 16 at Sun Dec 13 20:35:23 2020.

 ----------------------------------------------------------------------
 # B3LYP/6-311++G(d,p) empiricaldispersion=gd3bj scf=xqc pop=npa geom=c
 heck
 ----------------------------------------------------------------------

 ------------------------------------
 CID_64081390_JID_7898_Energie_kation
 ------------------------------------
 Structure from the checkpoint file:  "JID_7898.chk"
 Charge =  1 Multiplicity = 2

 SCF Done:  E(UB3LYP) =  -803.293883054     A.U. after   28 cycles
 Normal termination of Gaussian 16 at Sun Dec 13 20:53:45 2020.
 Gaussian 16:  ES64L-G16RevA.03 25-Dec-2016

 ----------------------------------------------------------------------
 # B3LYP/6-311++G(d,p) empiricaldispersion=gd3bj scf=xqc pop=npa geom=c
 heck
 ----------------------------------------------------------------------

 -----------------------------------
 CID_64081390_JID_7898_Energie_anion
 -----------------------------------
 Structure from the checkpoint file:  "JID_7898.chk"
 Charge = -1 Multiplicity = 2

                         Standard orientation:
 ---------------------------------------------------------------------
 Center     Atomic      Atomic             Coordinates (Angstroms)
 Number     Number       Type             X           Y           Z
 ---------------------------------------------------------------------
      1          6           0        3.847306   -2.214780   -0.644667
      2          7           0        3.537640   -1.620573    0.656272
      3          6           0        3.921668   -0.222656    0.783863
      4          6           0        3.145684    0.790989   -0.081181
      5          7           0        1.720066    0.837727    0.244729
      6          6           0        1.348648    1.595488    1.428393
      7          6           0        0.834233    0.201731   -0.580215
      8          8           0        1.194775   -0.512343   -1.516185
      9          6           0       -0.638381    0.363846   -0.301709
     10          6           0       -1.290485    1.608257   -0.356403
     11          6           0       -2.670167    1.671123   -0.181087
     12          6           0       -3.419412    0.512762    0.042816
     13          6           0       -2.778431   -0.727985    0.080451
     14          6           0       -1.393660   -0.789031   -0.108550
     15          8           0       -3.405570   -1.925206    0.286957
     16          6           0       -4.812221   -1.910910    0.447886
     17          8           0       -0.524757    2.723239   -0.593700
     18          1           0        4.929943   -2.155557   -0.810880
     19          1           0        3.327947   -1.748152   -1.493215
     20          1           0        3.574670   -3.275361   -0.620876
     21          1           0        2.536199   -1.701526    0.824581
     22          1           0        3.825802    0.059745    1.841238
     23          1           0        4.988224   -0.136794    0.536957
     24          1           0        3.560820    1.797117    0.067519
     25          1           0        3.228261    0.538724   -1.138741
     26          1           0        1.408485    2.674360    1.244687
     27          1           0        0.331685    1.347677    1.731205
     28          1           0        2.021461    1.337908    2.253147
     29          1           0       -3.175802    2.633889   -0.224729
     30          1           0       -4.490942    0.596930    0.177504
     31          1           0       -0.906089   -1.757696   -0.111029
     32          1           0       -5.112526   -1.327880    1.329384
     33          1           0       -5.315830   -1.503764   -0.439410
     34          1           0       -5.110262   -2.951515    0.586101
     35          1           0       -1.110262    3.493303   -0.654607
 ---------------------------------------------------------------------

 SCF Done:  E(UB3LYP) =  -803.560465898     A.U. after   33 cycles
 SCF Done:  E(UB3LYP) =  -803.560465898     a.u. after    1 cycles

 The electronic state is 2-A.
 Alpha  occ. eigenvalues --  -19.05937 -19.05088 -18.99018 -14.25248 -14.21268
 Alpha  occ. eigenvalues --  -10.17811 -10.13757 -10.13500 -10.13219 -10.11339
 Alpha  occ. eigenvalues --  -10.11208 -10.10778 -10.09648 -10.08755 -10.08019
 Alpha  occ. eigenvalues --  -10.07865 -10.07755  -0.97585  -0.96206  -0.94269
 Alpha  occ. eigenvalues --   -0.84809  -0.81500  -0.76031  -0.67760  -0.66272
 Alpha  occ. eigenvalues --   -0.65429  -0.61700  -0.60120  -0.59038  -0.54711
 Alpha  occ. eigenvalues --   -0.52850  -0.50804  -0.46147  -0.44869  -0.44049
 Alpha  occ. eigenvalues --   -0.41275  -0.40617  -0.40036  -0.38499  -0.37855
 Alpha  occ. eigenvalues --   -0.37510  -0.35850  -0.34613  -0.33683  -0.33251
 Alpha  occ. eigenvalues --   -0.32782  -0.32047  -0.31478  -0.31260  -0.30163
 Alpha  occ. eigenvalues --   -0.29565  -0.29271  -0.27919  -0.27766  -0.27028
 Alpha  occ. eigenvalues --   -0.26449  -0.26347  -0.24167  -0.20972  -0.17799
 Alpha  occ. eigenvalues --   -0.16144  -0.15132  -0.13683  -0.11384   0.03892
 Alpha virt. eigenvalues --    0.05634   0.06180   0.06561   0.07394   0.07842
 Alpha virt. eigenvalues --    0.08208   0.09182   0.09521   0.09820   0.09925
 Alpha virt. eigenvalues --    0.10472   0.10691   0.11141   0.11890   0.12565

  Beta  occ. eigenvalues --  -19.05930 -19.05034 -18.98998 -14.25248 -14.21266
  Beta  occ. eigenvalues --  -10.17798 -10.13763 -10.13509 -10.13186 -10.11331
  Beta  occ. eigenvalues --  -10.11201 -10.10758 -10.09645 -10.08727 -10.07982
  Beta  occ. eigenvalues --  -10.07839 -10.07708  -0.97567  -0.96110  -0.94233
  Beta  occ. eigenvalues --   -0.84796  -0.81494  -0.75973  -0.67704  -0.66215
  Beta  occ. eigenvalues --   -0.65394  -0.61669  -0.60052  -0.59017  -0.54656
  Beta  occ. eigenvalues --   -0.52777  -0.50755  -0.46087  -0.44809  -0.44002
  Beta  occ. eigenvalues --   -0.41259  -0.40582  -0.40001  -0.38465  -0.37831
  Beta  occ. eigenvalues --   -0.37484  -0.35828  -0.34548  -0.33620  -0.33212
  Beta  occ. eigenvalues --   -0.32743  -0.32011  -0.31451  -0.31231  -0.30138
  Beta  occ. eigenvalues --   -0.29533  -0.29231  -0.27904  -0.27706  -0.26988
  Beta  occ. eigenvalues --   -0.26410  -0.26311  -0.24123  -0.20903  -0.17711
  Beta  occ. eigenvalues --   -0.16111  -0.15019  -0.13668  -0.11303
  Beta virt. eigenvalues --    0.05945   0.06308   0.06858   0.07283   0.07817
  Beta virt. eigenvalues --    0.07992   0.08826   0.09509   0.09777   0.09898
  Beta virt. eigenvalues --    0.10181   0.10588   0.11079   0.11288   0.12021

 Mulliken charges and spin densities:
               1          2
     1  C   -0.351509  -0.052284
     2  N   -0.150218   0.014983
     3  C   -0.131381  -0.399120
     4  C   -0.255151   0.244183
     5  N    0.120687   0.043578
     6  C    0.273543  -0.701082
     7  C   -0.541883  -0.335144
     8  O   -0.233780  -0.001210
     9  C    1.149610  -0.648326
    10  C    0.461355  -0.642810
    11  C    0.441844  -0.537787
    12  C    1.079002  -0.558756
    13  C   -1.161544   0.605782
    14  C   -0.607005   0.419245
    15  O   -0.196684   0.034282
    16  C    0.453339  -0.788948
    17  O   -0.292174   0.065625
    18  H    0.092268   0.034308
    19  H    0.168739   0.003251
    20  H    0.122387   0.005575
    21  H    0.235051   0.023411
    22  H    0.104146   0.067244
    23  H    0.023220   0.098084
    24  H   -0.074618   0.239464
    25  H    0.180071   0.022538
    26  H   -0.191128   0.403544
    27  H    0.198530  -0.036263
    28  H   -0.035393   0.150152
    29  H   -1.370199   1.547282
    30  H    0.038553   0.152319
    31  H    0.190568   0.026247
    32  H   -0.194848   0.345556
    33  H   -0.158285   0.313140
    34  H   -0.153537   0.315259
    35  H   -0.233579   0.526679
 Sum of Mulliken charges =  -1.00000   1.00000

 Dipole moment (field-independent basis, Debye):
    X=              6.4527    Y=             -4.9826    Z=              0.7531  Tot=              8.1872
 Quadrupole moment (field-independent basis, Debye-Ang):
   XX=           -179.2038   YY=           -164.2709   ZZ=           -132.1842
   XY=             10.7387   XZ=             -1.2552   YZ=              1.4959

 Summary of Natural Population Analysis:

                                       Natural Population
                Natural  -----------------------------------------------
    Atom  No    Charge         Core      Valence    Rydberg      Total
 -----------------------------------------------------------------------
      C    1   -0.18419      0.99966     2.17725    0.00727     3.18419
      N    2   -0.33934      0.99976     2.82849    0.01110     3.83934
      C    3   -0.09254      0.99962     2.08059    0.01233     3.09254
      C    4   -0.09808      0.99961     2.08799    0.01049     3.09808
      N    5   -0.25140      0.99964     2.74041    0.01135     3.75140
      C    6   -0.17648      0.99963     2.16877    0.00808     3.17648
      C    7    0.34489      0.99958     1.63065    0.02488     2.65511
      O    8   -0.32638      0.99988     3.32181    0.00469     4.32638
      C    9   -0.07672      0.99943     2.06547    0.01183     3.07672
      C   10    0.15200      0.99934     1.83452    0.01413     2.84800
      C   11   -0.12107      0.99953     2.11044    0.01110     3.12107
      C   12   -0.12657      0.99953     2.11775    0.00929     3.12657
      C   13    0.14458      0.99937     1.84260    0.01345     2.85542
      C   14   -0.09266      0.99949     2.08352    0.00965     3.09266
      O   15   -0.27493      0.99986     3.26588    0.00919     4.27493
      C   16   -0.10105      0.99960     2.09231    0.00914     3.10105
      O   17   -0.34449      0.99988     3.33679    0.00782     4.34449
      H   18    0.08455      0.00000     0.41446    0.00099     0.41545
      H   19    0.09654      0.00000     0.40210    0.00136     0.40346
      H   20    0.09188      0.00000     0.40732    0.00080     0.40812
      H   21    0.17332      0.00000     0.32380    0.00288     0.32668
      H   22    0.09177      0.00000     0.40705    0.00119     0.40823
      H   23    0.09067      0.00000     0.40842    0.00091     0.40933
      H   24    0.09587      0.00000     0.40291    0.00122     0.40413
      H   25    0.11142      0.00000     0.38743    0.00115     0.38858
      H   26    0.10183      0.00000     0.39674    0.00143     0.39817
      H   27    0.10896      0.00000     0.38993    0.00111     0.39104
      H   28    0.09092      0.00000     0.40799    0.00109     0.40908
      H   29    0.10687      0.00000     0.38898    0.00415     0.39313
      H   30    0.10699      0.00000     0.39136    0.00166     0.39301
      H   31    0.10835      0.00000     0.39021    0.00144     0.39165
      H   32    0.08441      0.00000     0.41412    0.00147     0.41559
      H   33    0.08527      0.00000     0.41330    0.00142     0.41473
      H   34    0.09198      0.00000     0.40704    0.00098     0.40802
      H   35    0.24284      0.00000     0.24416    0.01300     0.25716
 =======================================================================
   * Total *    0.00000     16.99340    46.78255    0.22405    64.00000

 Normal termination of Gaussian 16 at Sun Dec 13 21:15:43 2020.
