 Gaussian 16, Revision A.03,

 -----------------------------------------------------------
 # opt freq B3LYP/6-31G(d) empiricaldispersion=gd3bj scf=xqc
 -----------------------------------------------------------

 -------------------------------
 CID_151491778_JID_3875_neutraal
 -------------------------------
 Symbolic Z-matrix:
 Charge =  0 Multiplicity = 1

 SCF Done:  E(RB3LYP) =  -947.996979159     A.U. after   16 cycles
 SCF Done:  E(RB3LYP) =  -948.000650536     A.U. after   13 cycles
 SCF Done:  E(RB3LYP) =  -948.001069695     A.U. after   12 cycles
 SCF Done:  E(RB3LYP) =  -948.001127002     A.U. after   12 cycles
 SCF Done:  E(RB3LYP) =  -948.001188475     A.U. after   11 cycles
 SCF Done:  E(RB3LYP) =  -948.001192011     A.U. after    9 cycles
 SCF Done:  E(RB3LYP) =  -948.001192621     A.U. after    9 cycles
 SCF Done:  E(RB3LYP) =  -948.001192939     A.U. after    8 cycles
 SCF Done:  E(RB3LYP) =  -948.001192971     A.U. after    7 cycles
 Optimization completed.
    -- Stationary point found.
 Normal termination of Gaussian 16 at Sun Dec 13 20:03:36 2020.

 --------------------------------------------------------------------
 #N Geom=AllCheck Guess=TCheck SCRF=Check GenChk RB3LYP/6-31G(d) Freq
 --------------------------------------------------------------------

 Structure from the checkpoint file:  "JID_3875.chk"
 -------------------------------
 CID_151491778_JID_3875_neutraal
 -------------------------------
 Charge =  0 Multiplicity = 1

 SCF Done:  E(RB3LYP) =  -948.001192971     A.U. after    1 cycles

  Exact polarizability: 146.830  -9.259 133.430  12.439   2.726  69.577
 Approx polarizability: 223.168 -17.925 263.466  29.391  12.965 108.921

                      1                      2                      3
                      A                      A                      A
 Frequencies --     46.2897                74.8946               106.7666
 Red. masses --      3.2551                 4.8559                 2.7303
 Frc consts  --      0.0041                 0.0160                 0.0183
 IR Inten    --      0.1473                 0.6430                 2.0646

                      4                      5                      6
                      A                      A                      A
 Frequencies --    155.9325               160.6628               208.4800
 Red. masses --      3.5119                 6.6787                 2.5659
 Frc consts  --      0.0503                 0.1016                 0.0657
 IR Inten    --      5.8865                 3.0830                 2.0236

                      7                      8                      9
                      A                      A                      A
 Frequencies --    240.5854               280.5681               310.3675
 Red. masses --      2.4611                 2.0136                 4.6432
 Frc consts  --      0.0839                 0.0934                 0.2635
 IR Inten    --      0.6341                 2.4863                 3.2738

                     10                     11                     12
                      A                      A                      A
 Frequencies --    353.1542               402.6308               472.8934
 Red. masses --      4.4265                 3.0226                 8.8449
 Frc consts  --      0.3253                 0.2887                 1.1654
 IR Inten    --      2.4110                 0.3401                 2.1788

                     13                     14                     15
                      A                      A                      A
 Frequencies --    483.9153               515.3161               563.0308
 Red. masses --      6.8755                 4.1904                 6.8037
 Frc consts  --      0.9486                 0.6556                 1.2707
 IR Inten    --      2.6426                 9.1925                16.9067

                     16                     17                     18
                      A                      A                      A
 Frequencies --    598.4794               609.4117               641.5433
 Red. masses --      6.2380                11.7788                 1.3660
 Frc consts  --      1.3164                 2.5773                 0.3313
 IR Inten    --      8.6860                 1.4230                70.1960

                     19                     20                     21
                      A                      A                      A
 Frequencies --    659.0115               734.8456               791.3219
 Red. masses --      3.6851                 4.6081                 2.4554
 Frc consts  --      0.9429                 1.4661                 0.9059
 IR Inten    --     15.5570                15.7698                 6.4740

                     22                     23                     24
                      A                      A                      A
 Frequencies --    800.7230               812.7756               826.3322
 Red. masses --      2.7262                 4.2951                 4.6910
 Frc consts  --      1.0298                 1.6717                 1.8872
 IR Inten    --      6.1434                10.3346                 6.4710

                     25                     26                     27
                      A                      A                      A
 Frequencies --    877.0927               893.9918               947.5239
 Red. masses --      2.8839                 2.3374                 1.4065
 Frc consts  --      1.3071                 1.1006                 0.7440
 IR Inten    --      3.5172                 4.1060                 3.0923

                     28                     29                     30
                      A                      A                      A
 Frequencies --    950.4634              1040.1848              1082.0158
 Red. masses --      2.6021                 2.2138                 3.8482
 Frc consts  --      1.3850                 1.4113                 2.6544
 IR Inten    --     10.9259                 2.9967                 3.5550

                     31                     32                     33
                      A                      A                      A
 Frequencies --   1095.4766              1113.5728              1150.7192
 Red. masses --      2.5053                 2.0147                 1.9815
 Frc consts  --      1.7714                 1.4720                 1.5459
 IR Inten    --      9.2669                 6.5348                30.3843

                     34                     35                     36
                      A                      A                      A
 Frequencies --   1177.6754              1282.7281              1300.0754
 Red. masses --      2.9692                 1.3148                 1.3089
 Frc consts  --      2.4263                 1.2746                 1.3034
 IR Inten    --     38.7401                 1.2066                17.3595

                     37                     38                     39
                      A                      A                      A
 Frequencies --   1305.4937              1367.4280              1383.7381
 Red. masses --      5.8344                 2.0892                 1.4610
 Frc consts  --      5.8586                 2.3017                 1.6482
 IR Inten    --     55.7491                45.0314                 1.5775

                     40                     41                     42
                      A                      A                      A
 Frequencies --   1390.2982              1439.9247              1445.9131
 Red. masses --      1.4130                 1.6533                 1.2674
 Frc consts  --      1.6092                 2.0197                 1.5612
 IR Inten    --     18.0915                 7.6740                 5.9615

                     43                     44                     45
                      A                      A                      A
 Frequencies --   1466.2768              1482.0544              1506.0218
 Red. masses --      6.1837                 3.0001                 1.1188
 Frc consts  --      7.8330                 3.8825                 1.4950
 IR Inten    --     19.7912                77.2880                 5.5594

                     46                     47                     48
                      A                      A                      A
 Frequencies --   1524.0209              1531.7959              1537.6541
 Red. masses --      1.0576                 1.0471                 1.0753
 Frc consts  --      1.4472                 1.4475                 1.4980
 IR Inten    --      4.9529                 5.3297                 6.7464

                     49                     50                     51
                      A                      A                      A
 Frequencies --   1598.1830              1679.7249              1791.1648
 Red. masses --      8.7409                 6.6591                 9.3101
 Frc consts  --     13.1540                11.0699                17.5984
 IR Inten    --     93.5194               206.1567               398.2697

                     52                     53                     54
                      A                      A                      A
 Frequencies --   3046.3420              3053.4730              3059.2117
 Red. masses --      1.0380                 1.0638                 1.0651
 Frc consts  --      5.6758                 5.8438                 5.8732
 IR Inten    --     18.8710                14.4787                37.0242

                     55                     56                     57
                      A                      A                      A
 Frequencies --   3100.3273              3108.7710              3121.3675
 Red. masses --      1.0972                 1.1007                 1.1000
 Frc consts  --      6.2138                 6.2675                 6.3144
 IR Inten    --      2.9207                 5.6189                30.2108

                     58                     59                     60
                      A                      A                      A
 Frequencies --   3125.3298              3192.5286              3599.4745
 Red. masses --      1.1026                 1.0924                 1.0781
 Frc consts  --      6.3457                 6.5601                 8.2300
 IR Inten    --     49.1137                15.9073                61.3253

 - Thermochemistry -
 -------------------
 Temperature   298.150 Kelvin.  Pressure   1.00000 Atm.
 Atom     1 has atomic number  6 and mass  12.00000

 Molecular mass:   195.04663 amu.
 Principal axes and moments of inertia in atomic units:
                           1         2         3
     Eigenvalues --  1747.266232737.683963994.03778
           X            0.99968   0.02296  -0.01067
           Y           -0.02301   0.99973  -0.00436
           Z            0.01057   0.00460   0.99993
 This molecule is an asymmetric top.
 Rotational symmetry number  1.
 Warning -- assumption of classical behavior for rotation
           may cause significant error
 Rotational temperatures (Kelvin)      0.04957     0.03164     0.02169
 Rotational constants (GHZ):           1.03289     0.65922     0.45186
 Zero-point vibrational energy     446314.6 (Joules/Mol)
                                  106.67174 (Kcal/Mol)
 Warning -- explicit consideration of  17 degrees of freedom as
           vibrations may cause significant error
 Vibrational temperatures:     66.60   107.76   153.61   224.35   231.16
          (Kelvin)            299.96   346.15   403.67   446.55   508.11
                              579.30   680.39   696.25   741.42   810.08
                              861.08   876.81   923.04   948.17  1057.28
                             1138.54  1152.06  1169.40  1188.91  1261.94
                             1286.25  1363.28  1367.50  1496.59  1556.78
                             1576.15  1602.18  1655.63  1694.41  1845.56
                             1870.52  1878.31  1967.42  1990.89  2000.33
                             2071.73  2080.35  2109.65  2132.35  2166.83
                             2192.73  2203.91  2212.34  2299.43  2416.75
                             2577.09  4383.01  4393.27  4401.52  4460.68
                             4472.83  4490.95  4496.65  4593.34  5178.84

 Zero-point correction=                           0.169992 (Hartree/Particle)
 Thermal correction to Energy=                    0.181316
 Thermal correction to Enthalpy=                  0.182261
 Thermal correction to Gibbs Free Energy=         0.132011
 Sum of electronic and zero-point Energies=           -947.831201
 Sum of electronic and thermal Energies=              -947.819877
 Sum of electronic and thermal Enthalpies=            -947.818932
 Sum of electronic and thermal Free Energies=         -947.869182

                     E (Thermal)             CV                S
                      KCal/Mol        Cal/Mol-Kelvin    Cal/Mol-Kelvin
 Total                  113.778             42.868            105.759
 Electronic               0.000              0.000              0.000
 Translational            0.889              2.981             41.709
 Rotational               0.889              2.981             31.325
 Vibrational            112.000             36.906             32.725
 Vibration     1          0.595              1.979              4.970
 Vibration     2          0.599              1.966              4.020
 Vibration     3          0.606              1.944              3.327
 Vibration     4          0.620              1.896              2.599
 Vibration     5          0.622              1.891              2.542
 Vibration     6          0.642              1.828              2.057
 Vibration     7          0.658              1.778              1.799
 Vibration     8          0.680              1.710              1.530
 Vibration     9          0.699              1.654              1.360
 Vibration    10          0.729              1.569              1.152
 Vibration    11          0.768              1.464              0.953
 Vibration    12          0.830              1.310              0.729
 Vibration    13          0.840              1.286              0.700
 Vibration    14          0.870              1.216              0.621
 Vibration    15          0.919              1.111              0.518
 Vibration    16          0.956              1.035              0.452
 Vibration    17          0.968              1.012              0.434

 Optimization completed.
    -- Stationary point found.
 Normal termination of Gaussian 16 at Sun Dec 13 20:09:14 2020.

 ----------------------------------------------------------------------
 # B3LYP/6-311++G(d,p) empiricaldispersion=gd3bj scf=xqc pop=npa geom=c
 heck
 ----------------------------------------------------------------------

 ---------------------------------------
 CID_151491778_JID_3875_Energie_neutraal
 ---------------------------------------
 Structure from the checkpoint file:  "JID_3875.chk"
 Charge =  0 Multiplicity = 1

 SCF Done:  E(RB3LYP) =  -948.177179427     A.U. after   17 cycles
 Normal termination of Gaussian 16 at Sun Dec 13 20:11:59 2020.

 ----------------------------------------------------------------------
 # B3LYP/6-311++G(d,p) empiricaldispersion=gd3bj scf=xqc pop=npa geom=c
 heck
 ----------------------------------------------------------------------

 -------------------------------------
 CID_151491778_JID_3875_Energie_kation
 -------------------------------------
 Structure from the checkpoint file:  "JID_3875.chk"
 Charge =  1 Multiplicity = 2

 SCF Done:  E(UB3LYP) =  -947.852943873     A.U. after   26 cycles
 Normal termination of Gaussian 16 at Sun Dec 13 20:17:59 2020.
 Gaussian 16:  ES64L-G16RevA.03 25-Dec-2016

 ----------------------------------------------------------------------
 # B3LYP/6-311++G(d,p) empiricaldispersion=gd3bj scf=xqc pop=npa geom=c
 heck
 ----------------------------------------------------------------------

 ------------------------------------
 CID_151491778_JID_3875_Energie_anion
 ------------------------------------
 Structure from the checkpoint file:  "JID_3875.chk"
 Charge = -1 Multiplicity = 2

                         Standard orientation:
 ---------------------------------------------------------------------
 Center     Atomic      Atomic             Coordinates (Angstroms)
 Number     Number       Type             X           Y           Z
 ---------------------------------------------------------------------
      1          6           0       -3.130770   -0.432383    1.375304
      2          6           0       -2.603019   -1.320148    0.248032
      3          6           0       -2.007773   -0.529917   -0.937818
      4          6           0       -0.831633    0.309794   -0.544000
      5          6           0        0.454246   -0.082893   -0.225294
      6          6           0        1.013691   -1.427122   -0.243829
      7          8           0        0.446659   -2.472890   -0.529776
      8          7           0        2.370412   -1.414846    0.124281
      9          6           0        3.078852   -0.281136    0.462081
     10          7           0        2.614522    0.920794    0.487237
     11          6           0        1.280128    1.046141    0.135960
     12          7           0        0.698700    2.235550    0.113016
     13         16           0       -0.894465    2.022924   -0.356759
     14          1           0       -2.328516    0.158094    1.831111
     15          1           0       -3.588182   -1.037107    2.165547
     16          1           0       -3.891448    0.268307    1.008744
     17          1           0       -1.835021   -2.004686    0.621641
     18          1           0       -3.414831   -1.943243   -0.147071
     19          1           0       -1.677330   -1.240031   -1.702667
     20          1           0       -2.781594    0.107093   -1.383310
     21          1           0        2.827538   -2.319178    0.133308
     22          1           0        4.119781   -0.457412    0.724697
 ---------------------------------------------------------------------

 SCF Done:  E(UB3LYP) =  -948.196701115     A.U. after   25 cycles

 The electronic state is 2-A.
 Alpha  occ. eigenvalues --  -88.72692 -18.94044 -14.22858 -14.16195 -14.15214
 Alpha  occ. eigenvalues --  -10.12176 -10.10868 -10.08391 -10.04665 -10.04426
 Alpha  occ. eigenvalues --  -10.04346 -10.03986 -10.02926  -7.81218  -5.77599
 Alpha  occ. eigenvalues --   -5.77116  -5.76824  -0.90102  -0.84363  -0.80209
 Alpha  occ. eigenvalues --   -0.74716  -0.68102  -0.63441  -0.60908  -0.56360
 Alpha  occ. eigenvalues --   -0.51953  -0.49709  -0.46676  -0.43331  -0.38738
 Alpha  occ. eigenvalues --   -0.38322  -0.35722  -0.33259  -0.32380  -0.31250
 Alpha  occ. eigenvalues --   -0.29273  -0.28589  -0.27422  -0.26123  -0.25454
 Alpha  occ. eigenvalues --   -0.23784  -0.22568  -0.21852  -0.21329  -0.19894
 Alpha  occ. eigenvalues --   -0.15286  -0.15099  -0.12958  -0.12014  -0.11500
 Alpha  occ. eigenvalues --   -0.09320   0.04110
 Alpha virt. eigenvalues --    0.08306   0.08499   0.10409   0.10959   0.11729
 Alpha virt. eigenvalues --    0.11925   0.12599   0.13550   0.13901   0.14547
 Alpha virt. eigenvalues --    0.15139   0.15451   0.15994   0.16304   0.16950

  Beta  occ. eigenvalues --  -88.72594 -18.93764 -14.22959 -14.16099 -14.14837
  Beta  occ. eigenvalues --  -10.11924 -10.10675 -10.08447 -10.04703 -10.04426
  Beta  occ. eigenvalues --  -10.04292 -10.03414 -10.03041  -7.81130  -5.77557
  Beta  occ. eigenvalues --   -5.77079  -5.76496  -0.89684  -0.84092  -0.79853
  Beta  occ. eigenvalues --   -0.74492  -0.67743  -0.63070  -0.60529  -0.56240
  Beta  occ. eigenvalues --   -0.51551  -0.49339  -0.46505  -0.43132  -0.38525
  Beta  occ. eigenvalues --   -0.38036  -0.35455  -0.33017  -0.32221  -0.30612
  Beta  occ. eigenvalues --   -0.29139  -0.28262  -0.27207  -0.26010  -0.24483
  Beta  occ. eigenvalues --   -0.23108  -0.22351  -0.21391  -0.20889  -0.19451
  Beta  occ. eigenvalues --   -0.14782  -0.14454  -0.12740  -0.11743  -0.09903
  Beta  occ. eigenvalues --   -0.07711
  Beta virt. eigenvalues --    0.08212   0.08399   0.09873   0.10648   0.10977
  Beta virt. eigenvalues --    0.11678   0.12519   0.13231   0.13645   0.13921
  Beta virt. eigenvalues --    0.14560   0.15233   0.15468   0.16282   0.16926

 Mulliken charges and spin densities:
               1          2
     1  C   -0.691295  -0.003498
     2  C   -0.119333   0.054529
     3  C    0.087831  -0.268940
     4  C    0.748495   0.501071
     5  C   -0.438831  -0.191386
     6  C    0.002106   0.199389
     7  O   -0.429521   0.103333
     8  N   -0.280443  -0.053136
     9  C    0.015534   0.138931
    10  N   -0.184171   0.043370
    11  C   -0.944484  -0.031363
    12  N   -0.157906   0.145729
    13  S    0.077006   0.223763
    14  H    0.181009   0.000695
    15  H    0.105878   0.000674
    16  H    0.109304   0.001723
    17  H    0.141713   0.039450
    18  H    0.070081   0.037962
    19  H    0.180957   0.009034
    20  H    0.064220   0.059685
    21  H    0.309327   0.002634
    22  H    0.152526  -0.013649
 Sum of Mulliken charges =  -1.00000   1.00000

 Dipole moment (field-independent basis, Debye):
    X=             -0.9451    Y=             -3.0547    Z=              0.5539  Tot=              3.2451
 Quadrupole moment (field-independent basis, Debye-Ang):
   XX=            -99.2845   YY=           -117.5017   ZZ=            -92.7660
   XY=            -11.0938   XZ=             -0.7754   YZ=             -4.4088

 Summary of Natural Population Analysis:

                                       Natural Population
                Natural  -----------------------------------------------
    Atom  No    Charge         Core      Valence    Rydberg      Total
 -----------------------------------------------------------------------
      C    1   -0.28865      0.99967     2.28452    0.00445     3.28865
      C    2   -0.18290      0.99964     2.17396    0.00931     3.18290
      C    3   -0.20967      0.99959     2.20097    0.00912     3.20967
      C    4    0.02844      0.99949     1.95710    0.01497     2.97156
      C    5   -0.15894      0.99936     2.14901    0.01058     3.15894
      C    6    0.36269      0.99961     1.61651    0.02120     2.63731
      O    7   -0.30951      0.99988     3.30319    0.00644     4.30951
      N    8   -0.32562      0.99968     2.81830    0.00765     3.82562
      C    9    0.17368      0.99968     1.80983    0.01681     2.82632
      N   10   -0.24565      0.99966     2.73520    0.01079     3.74565
      C   11    0.15874      0.99951     1.82106    0.02070     2.84126
      N   12   -0.27979      0.99970     2.76315    0.01694     3.77979
      S   13    0.32466      4.99938     2.64825    0.02772     7.67534
      H   14    0.10488      0.00000     0.39418    0.00094     0.39512
      H   15    0.09065      0.00000     0.40847    0.00088     0.40935
      H   16    0.09070      0.00000     0.40832    0.00098     0.40930
      H   17    0.10722      0.00000     0.39104    0.00174     0.39278
      H   18    0.08434      0.00000     0.41353    0.00213     0.41566
      H   19    0.11594      0.00000     0.38233    0.00173     0.38406
      H   20    0.09218      0.00000     0.40604    0.00178     0.40782
      H   21    0.19330      0.00000     0.30396    0.00274     0.30670
      H   22    0.07333      0.00000     0.42533    0.00135     0.42667
 =======================================================================
   * Total *    0.00000     16.99482    33.81424    0.19094    51.00000

 Normal termination of Gaussian 16 at Sun Dec 13 20:23:46 2020.
