 Gaussian 16, Revision A.03,

 -----------------------------------------------------------
 # opt freq B3LYP/6-31G(d) empiricaldispersion=gd3bj scf=xqc
 -----------------------------------------------------------

 --------------------------------
 CID_114873973_JID_10193_neutraal
 --------------------------------
 Symbolic Z-matrix:
 Charge =  0 Multiplicity = 1

 SCF Done:  E(RB3LYP) =  -917.720963943     A.U. after   15 cycles
 SCF Done:  E(RB3LYP) =  -917.728503177     A.U. after   14 cycles
 SCF Done:  E(RB3LYP) =  -917.731612373     A.U. after   14 cycles
 SCF Done:  E(RB3LYP) =  -917.733542354     A.U. after   14 cycles
 SCF Done:  E(RB3LYP) =  -917.733886742     A.U. after   14 cycles
 SCF Done:  E(RB3LYP) =  -917.734700976     A.U. after   12 cycles
 SCF Done:  E(RB3LYP) =  -917.734812246     A.U. after   11 cycles
 SCF Done:  E(RB3LYP) =  -917.734828688     A.U. after   11 cycles
 SCF Done:  E(RB3LYP) =  -917.734836824     A.U. after   10 cycles
 SCF Done:  E(RB3LYP) =  -917.734840057     A.U. after   10 cycles
 SCF Done:  E(RB3LYP) =  -917.734840827     A.U. after    8 cycles
 SCF Done:  E(RB3LYP) =  -917.734841043     A.U. after    7 cycles
 SCF Done:  E(RB3LYP) =  -917.734841075     A.U. after    7 cycles
 Optimization completed.
    -- Stationary point found.
 Normal termination of Gaussian 16 at Sat Dec 12 15:01:21 2020.

 --------------------------------------------------------------------
 #N Geom=AllCheck Guess=TCheck SCRF=Check GenChk RB3LYP/6-31G(d) Freq
 --------------------------------------------------------------------

 Structure from the checkpoint file:  "JID_10193.chk"
 --------------------------------
 CID_114873973_JID_10193_neutraal
 --------------------------------
 Charge =  0 Multiplicity = 1

 SCF Done:  E(RB3LYP) =  -917.734841075     A.U. after    1 cycles

  Exact polarizability: 262.245  15.312 178.794  15.269 -11.204 114.695
 Approx polarizability: 369.393  42.897 305.000  32.389 -25.223 171.610

                      1                      2                      3
                      A                      A                      A
 Frequencies --     20.1666                23.6759                50.4898
 Red. masses --      5.6065                 4.1490                 2.8211
 Frc consts  --      0.0013                 0.0014                 0.0042
 IR Inten    --      0.4971                 0.0727                 0.1376

                      4                      5                      6
                      A                      A                      A
 Frequencies --     59.1680                75.1682                87.1935
 Red. masses --      8.2084                 7.0480                 2.1232
 Frc consts  --      0.0169                 0.0235                 0.0095
 IR Inten    --      4.3236                 2.2797                 0.8356

                      7                      8                      9
                      A                      A                      A
 Frequencies --    118.8441               128.9354               146.6448
 Red. masses --      8.0042                 4.5123                 3.6971
 Frc consts  --      0.0666                 0.0442                 0.0468
 IR Inten    --      0.8325                 5.4142                 2.3460

                     10                     11                     12
                      A                      A                      A
 Frequencies --    164.8584               217.9056               218.2929
 Red. masses --      4.8305                 1.4765                 1.7170
 Frc consts  --      0.0774                 0.0413                 0.0482
 IR Inten    --      2.6812                 0.6426                 0.8732

                     13                     14                     15
                      A                      A                      A
 Frequencies --    238.6471               251.1077               296.6961
 Red. masses --      2.8466                 2.1934                 1.9564
 Frc consts  --      0.0955                 0.0815                 0.1015
 IR Inten    --      0.7016                 1.1782                 0.1632

                     16                     17                     18
                      A                      A                      A
 Frequencies --    327.2045               335.6825               351.2389
 Red. masses --      4.8132                 5.2280                 4.6411
 Frc consts  --      0.3036                 0.3471                 0.3373
 IR Inten    --      6.2031                 0.2266                 3.1343

                     19                     20                     21
                      A                      A                      A
 Frequencies --    355.7588               390.0501               417.8108
 Red. masses --      4.8818                 5.7223                 2.0376
 Frc consts  --      0.3640                 0.5129                 0.2096
 IR Inten    --      1.3422                 6.7308                 1.2464

                     22                     23                     24
                      A                      A                      A
 Frequencies --    439.7441               447.4921               464.5386
 Red. masses --      2.9192                 3.3747                 3.0408
 Frc consts  --      0.3326                 0.3982                 0.3866
 IR Inten    --      1.2390                 1.3363                 0.6977

                     25                     26                     27
                      A                      A                      A
 Frequencies --    479.0187               534.4302               539.0310
 Red. masses --      3.7557                 2.0255                 4.2878
 Frc consts  --      0.5077                 0.3408                 0.7340
 IR Inten    --      5.7974                10.3355                11.9894

                     28                     29                     30
                      A                      A                      A
 Frequencies --    570.6920               579.1115               598.7874
 Red. masses --      4.0306                 2.9525                 1.4753
 Frc consts  --      0.7734                 0.5834                 0.3117
 IR Inten    --      3.0004                18.4280               111.6862

                     31                     32                     33
                      A                      A                      A
 Frequencies --    641.1528               646.0844               666.3713
 Red. masses --      3.6886                 3.1067                 2.3429
 Frc consts  --      0.8934                 0.7641                 0.6130
 IR Inten    --     26.3404                39.4676                19.7464

                     34                     35                     36
                      A                      A                      A
 Frequencies --    705.4470               731.0805               745.9240
 Red. masses --      5.1909                 4.2162                 4.7213
 Frc consts  --      1.5220                 1.3277                 1.5478
 IR Inten    --     27.5986                 2.3424                11.9322

                     37                     38                     39
                      A                      A                      A
 Frequencies --    784.7056               799.2408               819.6195
 Red. masses --      1.5879                 3.6615                 1.6664
 Frc consts  --      0.5761                 1.3781                 0.6596
 IR Inten    --      1.5267                10.1438                 8.6320

                     40                     41                     42
                      A                      A                      A
 Frequencies --    850.4656               868.8933               885.8562
 Red. masses --      1.9394                 2.8694                 3.4518
 Frc consts  --      0.8265                 1.2764                 1.5959
 IR Inten    --     17.7985                20.3195                 3.7654

                     43                     44                     45
                      A                      A                      A
 Frequencies --    895.8380               913.0016               939.2928
 Red. masses --      1.7577                 1.6277                 4.7508
 Frc consts  --      0.8311                 0.7994                 2.4696
 IR Inten    --      8.8407                 6.2848                17.6975

                     46                     47                     48
                      A                      A                      A
 Frequencies --    956.7144               979.7355               983.6607
 Red. masses --      1.7190                 2.8094                 1.4055
 Frc consts  --      0.9270                 1.5889                 0.8013
 IR Inten    --      0.2373                 1.7895                 0.2781

                     49                     50                     51
                      A                      A                      A
 Frequencies --    987.3047               992.7504              1012.1861
 Red. masses --      2.1485                 1.3944                 1.7777
 Frc consts  --      1.2339                 0.8097                 1.0731
 IR Inten    --     19.9612                 7.4393                 0.7669

                     52                     53                     54
                      A                      A                      A
 Frequencies --   1047.3175              1058.6877              1139.6993
 Red. masses --      2.1408                 2.7928                 1.7016
 Frc consts  --      1.3835                 1.8443                 1.3022
 IR Inten    --     34.3700                 4.4172                10.0800

                     55                     56                     57
                      A                      A                      A
 Frequencies --   1151.9139              1154.6011              1168.9487
 Red. masses --      1.6632                 1.7929                 1.4178
 Frc consts  --      1.3003                 1.4082                 1.1414
 IR Inten    --     34.5158                 1.3476                47.9152

                     58                     59                     60
                      A                      A                      A
 Frequencies --   1185.7963              1227.9882              1253.5751
 Red. masses --      1.6671                 1.8696                 1.8274
 Frc consts  --      1.3811                 1.6611                 1.6920
 IR Inten    --     12.0668               102.0026                17.6580

                     61                     62                     63
                      A                      A                      A
 Frequencies --   1270.8833              1296.3215              1301.7649
 Red. masses --      1.9120                 1.7988                 1.6842
 Frc consts  --      1.8195                 1.7809                 1.6815
 IR Inten    --     55.1328                 7.4075                35.6192

                     64                     65                     66
                      A                      A                      A
 Frequencies --   1305.5711              1318.5376              1321.0941
 Red. masses --      1.5879                 2.6382                 1.3051
 Frc consts  --      1.5947                 2.7023                 1.3420
 IR Inten    --      0.2650                34.1531                 7.7755

                     67                     68                     69
                      A                      A                      A
 Frequencies --   1331.6428              1361.6906              1369.9044
 Red. masses --      1.6513                 1.4201                 5.1930
 Frc consts  --      1.7253                 1.5514                 5.7418
 IR Inten    --     82.9828                62.1344               179.7033

                     70                     71                     72
                      A                      A                      A
 Frequencies --   1394.2133              1397.7686              1405.4799
 Red. masses --      3.4171                 1.5296                 1.8727
 Frc consts  --      3.9135                 1.7607                 2.1796
 IR Inten    --    255.4839                15.3262                61.4622

                     73                     74                     75
                      A                      A                      A
 Frequencies --   1409.5525              1440.7583              1444.4164
 Red. masses --      1.5001                 1.2840                 1.2203
 Frc consts  --      1.7561                 1.5704                 1.5000
 IR Inten    --      1.8438                 6.0756                 1.1388

                     76                     77                     78
                      A                      A                      A
 Frequencies --   1487.0331              1487.8727              1510.9509
 Red. masses --      1.0955                 2.0520                 1.0776
 Frc consts  --      1.4273                 2.6764                 1.4494
 IR Inten    --     25.3054               216.6852                 5.5971

                     79                     80                     81
                      A                      A                      A
 Frequencies --   1515.7676              1521.8921              1526.7356
 Red. masses --      1.4035                 1.8282                 1.0446
 Frc consts  --      1.8999                 2.4949                 1.4346
 IR Inten    --     28.7035                23.1832                 7.8866

                     82                     83                     84
                      A                      A                      A
 Frequencies --   1530.2329              1535.7510              1543.0672
 Red. masses --      1.0680                 1.0613                 1.0483
 Frc consts  --      1.4735                 1.4749                 1.4706
 IR Inten    --      5.4030                 7.0801                 1.7211

                     85                     86                     87
                      A                      A                      A
 Frequencies --   1561.6564              1635.4009              1663.5900
 Red. masses --      2.8764                 6.4581                 5.8499
 Frc consts  --      4.1331                10.1765                 9.5388
 IR Inten    --     36.8653                63.6311                69.0622

                     88                     89                     90
                      A                      A                      A
 Frequencies --   1762.7563              1806.7801              1828.5129
 Red. masses --     11.4771                 8.2138                 9.3073
 Frc consts  --     21.0120                15.7981                18.3345
 IR Inten    --    184.3945               334.2663               708.2155

                     91                     92                     93
                      A                      A                      A
 Frequencies --   3014.3946              3039.3777              3045.6445
 Red. masses --      1.0674                 1.0630                 1.0565
 Frc consts  --      5.7143                 5.7857                 5.7742
 IR Inten    --     28.7410                16.0928                16.1164

                     94                     95                     96
                      A                      A                      A
 Frequencies --   3050.5244              3059.7392              3067.3090
 Red. masses --      1.0373                 1.0695                 1.0909
 Frc consts  --      5.6872                 5.8995                 6.0472
 IR Inten    --     33.2295                 1.4974                14.9010

                     97                     98                     99
                      A                      A                      A
 Frequencies --   3070.0703              3105.6640              3113.8924
 Red. masses --      1.0635                 1.1004                 1.1026
 Frc consts  --      5.9059                 6.2532                 6.2989
 IR Inten    --     23.8352                10.4041                 2.2320

                    100                    101                    102
                      A                      A                      A
 Frequencies --   3115.2353              3120.8845              3131.0417
 Red. masses --      1.1021                 1.1024                 1.1000
 Frc consts  --      6.3016                 6.3263                 6.3536
 IR Inten    --     74.5724                41.2697                35.3034

                    103                    104                    105
                      A                      A                      A
 Frequencies --   3191.8462              3194.6343              3218.6820
 Red. masses --      1.0902                 1.0953                 1.0891
 Frc consts  --      6.5439                 6.5863                 6.6475
 IR Inten    --     10.6955                 0.1837                 5.4998

                    106                    107                    108
                      A                      A                      A
 Frequencies --   3237.7647              3583.5069              3587.0812
 Red. masses --      1.0921                 1.0760                 1.0759
 Frc consts  --      6.7456                 8.1407                 8.1569
 IR Inten    --      2.3722                37.1238                26.9476

 - Thermochemistry -
 -------------------
 Temperature   298.150 Kelvin.  Pressure   1.00000 Atm.
 Atom     1 has atomic number  6 and mass  12.00000

 Molecular mass:   274.13174 amu.
 Principal axes and moments of inertia in atomic units:
                           1         2         3
     Eigenvalues --  2848.70414********************
           X            0.99973  -0.02238  -0.00663
           Y            0.02240   0.99974   0.00323
           Z            0.00656  -0.00338   0.99997
 This molecule is an asymmetric top.
 Rotational symmetry number  1.
 Warning -- assumption of classical behavior for rotation
           may cause significant error
 Rotational temperatures (Kelvin)      0.03040     0.00794     0.00698
 Rotational constants (GHZ):           0.63353     0.16551     0.14551
 Zero-point vibrational energy     827559.4 (Joules/Mol)
                                  197.79145 (Kcal/Mol)
 Warning -- explicit consideration of  30 degrees of freedom as
           vibrations may cause significant error
 Vibrational temperatures:     29.02    34.06    72.64    85.13   108.15
          (Kelvin)            125.45   170.99   185.51   210.99   237.19
                              313.52   314.07   343.36   361.29   426.88
                              470.77   482.97   505.35   511.86   561.20
                              601.14   632.69   643.84   668.37   689.20
                              768.93   775.55   821.10   833.21   861.52
                              922.48   929.57   958.76  1014.98  1051.86
                             1073.22  1129.02  1149.93  1179.25  1223.63
                             1250.14  1274.55  1288.91  1313.61  1351.43
                             1376.50  1409.62  1415.27  1420.51  1428.35
                             1456.31  1506.86  1523.22  1639.77  1657.35
                             1661.21  1681.86  1706.10  1766.80  1803.61
                             1828.52  1865.12  1872.95  1878.43  1897.08
                             1900.76  1915.94  1959.17  1970.99  2005.96
                             2011.08  2022.17  2028.03  2072.93  2078.19
                             2139.51  2140.72  2173.92  2180.85  2189.66
                             2196.63  2201.66  2209.60  2220.13  2246.88
                             2352.98  2393.54  2536.21  2599.55  2630.82
                             4337.04  4372.99  4382.00  4389.02  4402.28
                             4413.17  4417.15  4468.36  4480.20  4482.13
                             4490.26  4504.87  4592.35  4596.37  4630.97
                             4658.42  5155.87  5161.01

 Zero-point correction=                           0.315201 (Hartree/Particle)
 Thermal correction to Energy=                    0.334058
 Thermal correction to Enthalpy=                  0.335002
 Thermal correction to Gibbs Free Energy=         0.266338
 Sum of electronic and zero-point Energies=           -917.419640
 Sum of electronic and thermal Energies=              -917.400783
 Sum of electronic and thermal Enthalpies=            -917.399839
 Sum of electronic and thermal Free Energies=         -917.468503

                     E (Thermal)             CV                S
                      KCal/Mol        Cal/Mol-Kelvin    Cal/Mol-Kelvin
 Total                  209.624             71.889            144.516
 Electronic               0.000              0.000              0.000
 Translational            0.889              2.981             42.724
 Rotational               0.889              2.981             34.309
 Vibrational            207.847             65.927             67.483
 Vibration     1          0.593              1.986              6.618
 Vibration     2          0.593              1.985              6.299
 Vibration     3          0.595              1.977              4.798
 Vibration     4          0.597              1.974              4.485
 Vibration     5          0.599              1.966              4.013
 Vibration     6          0.601              1.958              3.722
 Vibration     7          0.609              1.934              3.119
 Vibration     8          0.611              1.924              2.962
 Vibration     9          0.617              1.906              2.715
 Vibration    10          0.623              1.886              2.493
 Vibration    11          0.646              1.814              1.976
 Vibration    12          0.646              1.813              1.973
 Vibration    13          0.657              1.781              1.813
 Vibration    14          0.663              1.761              1.723
 Vibration    15          0.690              1.680              1.435
 Vibration    16          0.711              1.621              1.274
 Vibration    17          0.717              1.604              1.233
 Vibration    18          0.728              1.573              1.161
 Vibration    19          0.731              1.563              1.141
 Vibration    20          0.758              1.491              1.000
 Vibration    21          0.781              1.432              0.899
 Vibration    22          0.800              1.384              0.827
 Vibration    23          0.807              1.366              0.803
 Vibration    24          0.822              1.329              0.753
 Vibration    25          0.835              1.297              0.713
 Vibration    26          0.889              1.174              0.577
 Vibration    27          0.894              1.164              0.567
 Vibration    28          0.927              1.095              0.503
 Vibration    29          0.936              1.076              0.487
 Vibration    30          0.957              1.034              0.452

                           ! Non-Optimized Parameters !
 Normal termination of Gaussian 16 at Sat Dec 12 15:21:12 2020.

 ----------------------------------------------------------------------
 # B3LYP/6-311++G(d,p) empiricaldispersion=gd3bj scf=xqc pop=npa geom=c
 heck
 ----------------------------------------------------------------------

 ----------------------------------------
 CID_114873973_JID_10193_Energie_neutraal
 ----------------------------------------
 Structure from the checkpoint file:  "JID_10193.chk"
 Charge =  0 Multiplicity = 1

 SCF Done:  E(RB3LYP) =  -917.995241971     A.U. after   16 cycles
 Normal termination of Gaussian 16 at Sat Dec 12 15:30:20 2020.

 ----------------------------------------------------------------------
 # B3LYP/6-311++G(d,p) empiricaldispersion=gd3bj scf=xqc pop=npa geom=c
 heck
 ----------------------------------------------------------------------

 --------------------------------------
 CID_114873973_JID_10193_Energie_kation
 --------------------------------------
 Structure from the checkpoint file:  "JID_10193.chk"
 Charge =  1 Multiplicity = 2

 SCF Done:  E(UB3LYP) =  -917.683436548     A.U. after   28 cycles
 Normal termination of Gaussian 16 at Sat Dec 12 15:54:13 2020.
 Gaussian 16:  ES64L-G16RevA.03 25-Dec-2016

 ----------------------------------------------------------------------
 # B3LYP/6-311++G(d,p) empiricaldispersion=gd3bj scf=xqc pop=npa geom=c
 heck
 ----------------------------------------------------------------------

 -------------------------------------
 CID_114873973_JID_10193_Energie_anion
 -------------------------------------
 Structure from the checkpoint file:  "JID_10193.chk"
 Charge = -1 Multiplicity = 2

                         Standard orientation:
 ---------------------------------------------------------------------
 Center     Atomic      Atomic             Coordinates (Angstroms)
 Number     Number       Type             X           Y           Z
 ---------------------------------------------------------------------
      1          6           0       -4.296867    1.393427    2.185103
      2          6           0       -3.378813    0.958816    1.039536
      3          6           0       -4.118263    0.368450   -0.174678
      4          6           0       -5.071091    1.377592   -0.824459
      5          6           0       -3.123956   -0.167709   -1.232249
      6          6           0       -2.315307   -1.340024   -0.697832
      7          8           0       -2.871439   -2.416143   -0.523815
      8          6           0       -0.866914   -1.187591   -0.354276
      9          6           0       -0.180823    0.026208   -0.425840
     10          6           0        1.164513    0.135681   -0.056257
     11          6           0        1.856996   -1.018604    0.363245
     12          6           0        1.169027   -2.243338    0.411842
     13          6           0       -0.169470   -2.328726    0.076559
     14          7           0        3.188198   -0.979194    0.797842
     15          6           0        4.258574   -0.279936    0.263097
     16          8           0        5.383402   -0.427913    0.701404
     17          6           0        3.919231    0.646497   -0.892517
     18          6           0        3.014336    1.790892   -0.463595
     19          8           0        3.351694    2.959925   -0.482299
     20          7           0        1.753861    1.413891   -0.041703
     21          1           0       -4.949522    2.223393    1.895636
     22          1           0       -3.711447    1.721573    3.050800
     23          1           0       -4.935459    0.563174    2.509928
     24          1           0       -2.774691    1.816600    0.706572
     25          1           0       -2.668042    0.215737    1.422597
     26          1           0       -4.702696   -0.495616    0.169756
     27          1           0       -4.525518    2.267447   -1.164886
     28          1           0       -5.573339    0.939737   -1.694237
     29          1           0       -5.845976    1.708185   -0.126273
     30          1           0       -3.692519   -0.553485   -2.085357
     31          1           0       -2.496781    0.649535   -1.602099
     32          1           0       -0.688251    0.929346   -0.745728
     33          1           0        1.711751   -3.128902    0.731503
     34          1           0       -0.704267   -3.269921    0.129934
     35          1           0        3.474882   -1.689060    1.462491
     36          1           0        4.847556    1.071348   -1.268301
     37          1           0        3.423768    0.069769   -1.684693
     38          1           0        1.139846    2.201498    0.130966
 ---------------------------------------------------------------------

 SCF Done:  E(UB3LYP) =  -918.027040498     A.U. after   24 cycles

 The electronic state is 2-A.
 Alpha  occ. eigenvalues --  -19.00015 -18.99107 -18.93464 -14.24956 -14.24520
 Alpha  occ. eigenvalues --  -10.18591 -10.17553 -10.10279 -10.09354 -10.08969
 Alpha  occ. eigenvalues --  -10.08171 -10.07137 -10.06965 -10.06660 -10.06516
 Alpha  occ. eigenvalues --  -10.05543 -10.04679 -10.04670 -10.04219 -10.03412
 Alpha  occ. eigenvalues --   -0.95483  -0.94507  -0.87729  -0.85251  -0.82268
 Alpha  occ. eigenvalues --   -0.72725  -0.71300  -0.67481  -0.64390  -0.63410
 Alpha  occ. eigenvalues --   -0.62643  -0.59318  -0.54230  -0.53189  -0.51469
 Alpha  occ. eigenvalues --   -0.49482  -0.48319  -0.46374  -0.43281  -0.42449
 Alpha  occ. eigenvalues --   -0.39443  -0.38669  -0.37821  -0.36957  -0.35808
 Alpha  occ. eigenvalues --   -0.34751  -0.33872  -0.33567  -0.33094  -0.32867
 Alpha  occ. eigenvalues --   -0.31638  -0.30651  -0.30320  -0.30066  -0.29662
 Alpha  occ. eigenvalues --   -0.29168  -0.28003  -0.26928  -0.26782  -0.25909
 Alpha  occ. eigenvalues --   -0.24769  -0.24399  -0.23625  -0.22259  -0.21696
 Alpha  occ. eigenvalues --   -0.21085  -0.20139  -0.18375  -0.17944  -0.16102
 Alpha  occ. eigenvalues --   -0.13011  -0.11011  -0.09920   0.02426
 Alpha virt. eigenvalues --    0.06611   0.07916   0.08242   0.08544   0.08849
 Alpha virt. eigenvalues --    0.09375   0.09939   0.10235   0.10773   0.11360
 Alpha virt. eigenvalues --    0.11782   0.11853   0.11952   0.12355   0.12764

  Beta  occ. eigenvalues --  -19.00027 -18.98995 -18.92922 -14.24940 -14.24573
  Beta  occ. eigenvalues --  -10.18591 -10.17455 -10.10359 -10.09359 -10.08596
  Beta  occ. eigenvalues --  -10.07868 -10.07137 -10.06934 -10.06659 -10.06512
  Beta  occ. eigenvalues --  -10.05581 -10.04708 -10.04449 -10.04122 -10.03248
  Beta  occ. eigenvalues --   -0.95471  -0.94335  -0.86753  -0.85144  -0.82183
  Beta  occ. eigenvalues --   -0.72421  -0.71247  -0.67409  -0.64277  -0.63073
  Beta  occ. eigenvalues --   -0.62316  -0.59159  -0.53977  -0.53069  -0.51219
  Beta  occ. eigenvalues --   -0.49255  -0.48170  -0.46287  -0.43102  -0.42075
  Beta  occ. eigenvalues --   -0.39341  -0.38560  -0.37669  -0.36824  -0.35657
  Beta  occ. eigenvalues --   -0.34592  -0.33777  -0.33446  -0.32934  -0.32724
  Beta  occ. eigenvalues --   -0.31525  -0.30504  -0.30177  -0.29904  -0.29585
  Beta  occ. eigenvalues --   -0.28945  -0.27870  -0.26698  -0.26183  -0.25608
  Beta  occ. eigenvalues --   -0.24323  -0.23618  -0.23431  -0.22150  -0.21588
  Beta  occ. eigenvalues --   -0.20240  -0.19796  -0.17905  -0.17149  -0.16020
  Beta  occ. eigenvalues --   -0.12051  -0.09821  -0.09345
  Beta virt. eigenvalues --    0.06588   0.07888   0.08062   0.08402   0.08681
  Beta virt. eigenvalues --    0.09109   0.09454   0.09978   0.10317   0.10979
  Beta virt. eigenvalues --    0.11608   0.11862   0.11922   0.12307   0.12405

 Mulliken charges and spin densities:
               1          2
     1  C   -0.725308  -0.001687
     2  C   -0.264102   0.024478
     3  C    0.392501  -0.067512
     4  C   -0.699531  -0.002206
     5  C   -0.151903   0.011689
     6  C   -0.078404   0.192710
     7  O   -0.390337   0.196262
     8  C    0.432598   0.064998
     9  C   -0.639729   0.177450
    10  C    0.176775  -0.036901
    11  C    0.142810   0.201927
    12  C   -0.489956  -0.002376
    13  C   -0.349940   0.126528
    14  N   -0.188510  -0.029319
    15  C    0.026997   0.055717
    16  O   -0.368671   0.038408
    17  C   -0.280580  -0.010968
    18  C    0.059841  -0.007924
    19  O   -0.349911  -0.004113
    20  N   -0.176132   0.012384
    21  H    0.122816   0.000683
    22  H    0.129077  -0.000111
    23  H    0.140892  -0.000135
    24  H    0.102148  -0.002804
    25  H    0.176029   0.004227
    26  H    0.197136  -0.008354
    27  H    0.131583   0.003764
    28  H    0.116782   0.005251
    29  H    0.116398  -0.000740
    30  H    0.161284   0.043169
    31  H    0.120571  -0.002369
    32  H    0.103633  -0.003233
    33  H    0.120130   0.001678
    34  H    0.183842  -0.007457
    35  H    0.273919   0.021207
    36  H    0.222597   0.003653
    37  H    0.188878   0.002271
    38  H    0.313780  -0.000246
 Sum of Mulliken charges =  -1.00000   1.00000

 Dipole moment (field-independent basis, Debye):
    X=             -2.6840    Y=              2.3685    Z=              0.2673  Tot=              3.5896
 Quadrupole moment (field-independent basis, Debye-Ang):
   XX=           -204.3640   YY=           -152.9473   ZZ=           -127.5372
   XY=            -25.4346   XZ=             -8.7544   YZ=             -2.5816

 Summary of Natural Population Analysis:

                                       Natural Population
                Natural  -----------------------------------------------
    Atom  No    Charge         Core      Valence    Rydberg      Total
 -----------------------------------------------------------------------
      C    1   -0.28510      0.99967     2.28143    0.00400     3.28510
      C    2   -0.19140      0.99962     2.18436    0.00741     3.19140
      C    3   -0.10405      0.99960     2.09684    0.00761     3.10405
      C    4   -0.28455      0.99966     2.28012    0.00478     3.28455
      C    5   -0.22503      0.99959     2.21658    0.00886     3.22503
      C    6    0.30581      0.99962     1.67324    0.02132     2.69419
      O    7   -0.25334      0.99988     3.24688    0.00658     4.25334
      C    8   -0.03991      0.99948     2.03071    0.00972     3.03991
      C    9   -0.04828      0.99945     2.04189    0.00694     3.04828
      C   10    0.03540      0.99945     1.95531    0.00984     2.96460
      C   11    0.12239      0.99945     1.86867    0.00949     2.87761
      C   12   -0.12604      0.99955     2.11821    0.00829     3.12604
      C   13   -0.05730      0.99954     2.04837    0.00939     3.05730
      N   14   -0.31341      0.99964     2.80375    0.01001     3.81341
      C   15    0.35591      0.99969     1.62209    0.02231     2.64409
      O   16   -0.30942      0.99987     3.30273    0.00682     4.30942
      C   17   -0.27807      0.99955     2.27214    0.00638     3.27807
      C   18    0.34402      0.99969     1.63392    0.02238     2.65598
      O   19   -0.32345      0.99987     3.31664    0.00693     4.32345
      N   20   -0.30501      0.99964     2.79504    0.01033     3.80501
      H   21    0.09116      0.00000     0.40792    0.00092     0.40884
      H   22    0.09576      0.00000     0.40337    0.00087     0.40424
      H   23    0.09503      0.00000     0.40399    0.00097     0.40497
      H   24    0.08856      0.00000     0.41023    0.00122     0.41144
      H   25    0.10836      0.00000     0.39060    0.00104     0.39164
      H   26    0.09706      0.00000     0.40085    0.00209     0.40294
      H   27    0.09253      0.00000     0.40652    0.00095     0.40747
      H   28    0.09731      0.00000     0.40184    0.00085     0.40269
      H   29    0.09364      0.00000     0.40555    0.00081     0.40636
      H   30    0.10422      0.00000     0.39368    0.00210     0.39578
      H   31    0.09203      0.00000     0.40679    0.00118     0.40797
      H   32    0.09104      0.00000     0.40730    0.00166     0.40896
      H   33    0.09296      0.00000     0.40599    0.00106     0.40704
      H   34    0.10893      0.00000     0.38981    0.00126     0.39107
      H   35    0.19637      0.00000     0.30185    0.00177     0.30363
      H   36    0.12051      0.00000     0.37829    0.00120     0.37949
      H   37    0.11977      0.00000     0.37919    0.00103     0.38023
      H   38    0.19558      0.00000     0.30264    0.00178     0.30442
 =======================================================================
   * Total *    0.00000     19.99251    52.78533    0.22216    73.00000

 Normal termination of Gaussian 16 at Sat Dec 12 16:14:28 2020.
