 Gaussian 16, Revision A.03,

 -----------------------------------------------------------
 # opt freq B3LYP/6-31G(d) empiricaldispersion=gd3bj scf=xqc
 -----------------------------------------------------------

 -------------------------------
 CID_152459017_JID_2361_neutraal
 -------------------------------
 Symbolic Z-matrix:
 Charge =  0 Multiplicity = 1

 SCF Done:  E(RB3LYP) =  -570.513580957     A.U. after   16 cycles
 SCF Done:  E(RB3LYP) =  -570.518179653     A.U. after   13 cycles
 SCF Done:  E(RB3LYP) =  -570.520628100     A.U. after   14 cycles
 SCF Done:  E(RB3LYP) =  -570.521385130     A.U. after   14 cycles
 SCF Done:  E(RB3LYP) =  -570.521475865     A.U. after   13 cycles
 SCF Done:  E(RB3LYP) =  -570.521527796     A.U. after   11 cycles
 SCF Done:  E(RB3LYP) =  -570.521541942     A.U. after   11 cycles
 SCF Done:  E(RB3LYP) =  -570.521552609     A.U. after   13 cycles
 SCF Done:  E(RB3LYP) =  -570.521556482     A.U. after   12 cycles
 SCF Done:  E(RB3LYP) =  -570.521560303     A.U. after   13 cycles
 SCF Done:  E(RB3LYP) =  -570.521852813     A.U. after   12 cycles
 SCF Done:  E(RB3LYP) =  -570.521861767     A.U. after   12 cycles
 SCF Done:  E(RB3LYP) =  -570.521862002     A.U. after    8 cycles
 SCF Done:  E(RB3LYP) =  -570.521862017     A.U. after    8 cycles
 SCF Done:  E(RB3LYP) =  -570.521862072     A.U. after    8 cycles
 SCF Done:  E(RB3LYP) =  -570.521862060     A.U. after    7 cycles
 Optimization completed.
    -- Stationary point found.
 Normal termination of Gaussian 16 at Wed Dec  9 17:56:54 2020.

 --------------------------------------------------------------------
 #N Geom=AllCheck Guess=TCheck SCRF=Check GenChk RB3LYP/6-31G(d) Freq
 --------------------------------------------------------------------

 Structure from the checkpoint file:  "JID_2361.chk"
 -------------------------------
 CID_152459017_JID_2361_neutraal
 -------------------------------
 Charge =  0 Multiplicity = 1

 SCF Done:  E(RB3LYP) =  -570.521862060     A.U. after    1 cycles

  Exact polarizability: 144.262 -16.947 107.531   2.024   0.127  82.700
 Approx polarizability: 174.026 -41.350 189.967   4.008   0.296 122.676

                      1                      2                      3
                      A                      A                      A
 Frequencies --     16.4606                35.8125                41.9020
 Red. masses --      4.6994                 5.9968                 5.6803
 Frc consts  --      0.0008                 0.0045                 0.0059
 IR Inten    --      0.0351                 0.4586                 0.5281

                      4                      5                      6
                      A                      A                      A
 Frequencies --     68.7519               102.9238               115.6844
 Red. masses --      2.6725                 2.9731                 3.4347
 Frc consts  --      0.0074                 0.0186                 0.0271
 IR Inten    --      0.1558                 1.0082                 0.6018

                      7                      8                      9
                      A                      A                      A
 Frequencies --    171.6259               208.0204               234.1100
 Red. masses --      3.3572                 4.2526                 1.0934
 Frc consts  --      0.0583                 0.1084                 0.0353
 IR Inten    --      2.6941                 4.0168                 0.0354

                     10                     11                     12
                      A                      A                      A
 Frequencies --    237.9048               260.4275               267.8579
 Red. masses --      1.8059                 1.1873                 1.6973
 Frc consts  --      0.0602                 0.0474                 0.0717
 IR Inten    --      0.0479                 0.5037                 0.1963

                     13                     14                     15
                      A                      A                      A
 Frequencies --    314.5410               322.3665               341.5612
 Red. masses --      2.6660                 3.3911                 2.3247
 Frc consts  --      0.1554                 0.2076                 0.1598
 IR Inten    --      7.2437                 2.0768                 0.6834

                     16                     17                     18
                      A                      A                      A
 Frequencies --    392.2711               436.6913               459.2645
 Red. masses --      2.3864                 2.0919                 1.9244
 Frc consts  --      0.2164                 0.2350                 0.2391
 IR Inten    --      1.7227                 0.9111                13.1737

                     19                     20                     21
                      A                      A                      A
 Frequencies --    473.7620               521.7413               567.9659
 Red. masses --      2.9011                13.2496                 3.0542
 Frc consts  --      0.3836                 2.1250                 0.5805
 IR Inten    --      8.0369                 8.1974                 1.1011

                     22                     23                     24
                      A                      A                      A
 Frequencies --    673.6993               701.3033               825.8896
 Red. masses --      1.9331                 5.4194                 2.3049
 Frc consts  --      0.5169                 1.5704                 0.9263
 IR Inten    --     90.6715                96.6687                 1.4225

                     25                     26                     27
                      A                      A                      A
 Frequencies --    841.1015               872.9193               894.9564
 Red. masses --      2.2150                11.6222                 1.3925
 Frc consts  --      0.9233                 5.2178                 0.6571
 IR Inten    --      1.3567                63.3621                 1.9060

                     28                     29                     30
                      A                      A                      A
 Frequencies --    928.3615               943.5460               946.0573
 Red. masses --      3.3421                 1.3456                 2.1797
 Frc consts  --      1.6971                 0.7058                 1.1494
 IR Inten    --     84.5360                26.2174                38.3429

                     31                     32                     33
                      A                      A                      A
 Frequencies --    979.0118               989.3436              1035.2035
 Red. masses --      1.5441                 1.7335                 1.3926
 Frc consts  --      0.8719                 0.9997                 0.8793
 IR Inten    --      0.0866                 0.1920                 9.7557

                     34                     35                     36
                      A                      A                      A
 Frequencies --   1049.6217              1113.5597              1166.2597
 Red. masses --      1.7823                 1.9500                 2.0488
 Frc consts  --      1.1569                 1.4247                 1.6419
 IR Inten    --      8.1663                 2.8743                24.1748

                     37                     38                     39
                      A                      A                      A
 Frequencies --   1195.7853              1203.4096              1206.2455
 Red. masses --      2.0788                 4.3618                 1.9125
 Frc consts  --      1.7514                 3.7217                 1.6395
 IR Inten    --     20.6353                24.1660                 2.5265

                     40                     41                     42
                      A                      A                      A
 Frequencies --   1213.2054              1249.7663              1272.9426
 Red. masses --      2.5066                 3.1698                 1.2095
 Frc consts  --      2.1737                 2.9170                 1.1547
 IR Inten    --     14.2715               111.7458                 5.1843

                     43                     44                     45
                      A                      A                      A
 Frequencies --   1299.5373              1335.7625              1371.8009
 Red. masses --      1.3362                 1.3107                 1.3434
 Frc consts  --      1.3295                 1.3779                 1.4895
 IR Inten    --      0.3007                 1.1836                 4.9904

                     46                     47                     48
                      A                      A                      A
 Frequencies --   1385.5008              1392.7251              1414.5793
 Red. masses --      1.2699                 1.3298                 1.3832
 Frc consts  --      1.4362                 1.5197                 1.6307
 IR Inten    --      3.8362                 4.7096                33.3112

                     49                     50                     51
                      A                      A                      A
 Frequencies --   1430.0678              1433.9513              1438.7992
 Red. masses --      1.2950                 1.2420                 1.2464
 Frc consts  --      1.5604                 1.5046                 1.5202
 IR Inten    --      3.6082                28.8513                12.4456

                     52                     53                     54
                      A                      A                      A
 Frequencies --   1450.0811              1510.1476              1518.6448
 Red. masses --      1.2388                 1.0816                 1.0608
 Frc consts  --      1.5347                 1.4532                 1.4414
 IR Inten    --      5.0973                 0.0346                 5.7615

                     55                     56                     57
                      A                      A                      A
 Frequencies --   1519.1431              1525.5380              1532.9857
 Red. masses --      1.0782                 1.0553                 1.0913
 Frc consts  --      1.4661                 1.4471                 1.5110
 IR Inten    --     10.7215                 1.1932                 0.8230

                     58                     59                     60
                      A                      A                      A
 Frequencies --   1533.6900              1536.3607              1538.4765
 Red. masses --      1.1012                 1.0701                 1.1037
 Frc consts  --      1.5262                 1.4882                 1.5392
 IR Inten    --      6.5903                 6.1096                 7.6543

                     61                     62                     63
                      A                      A                      A
 Frequencies --   1546.9515              2192.8520              3013.9216
 Red. masses --      1.1413                13.9876                 1.0656
 Frc consts  --      1.6092                39.6290                 5.7031
 IR Inten    --     42.9556               420.1012                27.9714

                     64                     65                     66
                      A                      A                      A
 Frequencies --   3028.2493              3037.5229              3042.7914
 Red. masses --      1.0806                 1.0364                 1.0388
 Frc consts  --      5.8384                 5.6341                 5.6666
 IR Inten    --      5.2455                31.2718                18.8413

                     67                     68                     69
                      A                      A                      A
 Frequencies --   3044.8442              3051.2256              3056.3217
 Red. masses --      1.0516                 1.0671                 1.0627
 Frc consts  --      5.7445                 5.8532                 5.8488
 IR Inten    --     16.7478                 9.4157                35.7454

                     70                     71                     72
                      A                      A                      A
 Frequencies --   3071.9423              3101.5848              3107.4686
 Red. masses --      1.0954                 1.1013                 1.1019
 Frc consts  --      6.0904                 6.2417                 6.2694
 IR Inten    --     52.6372                 7.8376                56.0948

                     73                     74                     75
                      A                      A                      A
 Frequencies --   3108.1229              3110.2869              3112.5022
 Red. masses --      1.1108                 1.1007                 1.1002
 Frc consts  --      6.3226                 6.2737                 6.2796
 IR Inten    --     36.2721                 7.7068                99.3064

                     76                     77                     78
                      A                      A                      A
 Frequencies --   3115.7705              3157.3427              3529.5076
 Red. masses --      1.1011                 1.0993                 1.0739
 Frc consts  --      6.2983                 6.4564                 7.8818
 IR Inten    --     37.2616                16.6980                 2.6237

 - Thermochemistry -
 -------------------
 Temperature   298.150 Kelvin.  Pressure   1.00000 Atm.
 Atom     1 has atomic number  6 and mass  12.00000

 Molecular mass:   172.13241 amu.
 Principal axes and moments of inertia in atomic units:
                           1         2         3
     Eigenvalues --   799.276435738.553016080.32226
           X            0.99995   0.01008  -0.00103
           Y           -0.01008   0.99994  -0.00456
           Z            0.00098   0.00457   0.99999
 This molecule is an asymmetric top.
 Rotational symmetry number  1.
 Warning -- assumption of classical behavior for rotation
           may cause significant error
 Rotational temperatures (Kelvin)      0.10837     0.01509     0.01424
 Rotational constants (GHZ):           2.25797     0.31449     0.29682
 Zero-point vibrational energy     636956.6 (Joules/Mol)
                                  152.23629 (Kcal/Mol)
 Warning -- explicit consideration of  21 degrees of freedom as
           vibrations may cause significant error
 Vibrational temperatures:     23.68    51.53    60.29    98.92   148.08
          (Kelvin)            166.44   246.93   299.29   336.83   342.29
                              374.70   385.39   452.55   463.81   491.43
                              564.39   628.30   660.78   681.64   750.67
                              817.18   969.30  1009.02  1188.27  1210.16
                             1255.94  1287.64  1335.71  1357.55  1361.17
                             1408.58  1423.44  1489.43  1510.17  1602.16
                             1677.99  1720.47  1731.44  1735.52  1745.53
                             1798.14  1831.48  1869.74  1921.86  1973.72
                             1993.43  2003.82  2035.26  2057.55  2063.14
                             2070.11  2086.34  2172.77  2184.99  2185.71
                             2194.91  2205.62  2206.64  2210.48  2213.52
                             2225.72  3155.02  4336.36  4356.98  4370.32
                             4377.90  4380.85  4390.03  4397.37  4419.84
                             4462.49  4470.95  4471.90  4475.01  4478.20
                             4482.90  4542.71  5078.17

 Zero-point correction=                           0.242604 (Hartree/Particle)
 Thermal correction to Energy=                    0.257059
 Thermal correction to Enthalpy=                  0.258003
 Thermal correction to Gibbs Free Energy=         0.199187
 Sum of electronic and zero-point Energies=           -570.279258
 Sum of electronic and thermal Energies=              -570.264803
 Sum of electronic and thermal Enthalpies=            -570.263859
 Sum of electronic and thermal Free Energies=         -570.322675

                     E (Thermal)             CV                S
                      KCal/Mol        Cal/Mol-Kelvin    Cal/Mol-Kelvin
 Total                  161.307             51.308            123.789
 Electronic               0.000              0.000              0.000
 Translational            0.889              2.981             41.337
 Rotational               0.889              2.981             31.700
 Vibrational            159.530             45.346             50.751
 Vibration     1          0.593              1.986              7.021
 Vibration     2          0.594              1.982              5.478
 Vibration     3          0.595              1.980              5.167
 Vibration     4          0.598              1.969              4.189
 Vibration     5          0.605              1.947              3.398
 Vibration     6          0.608              1.936              3.171
 Vibration     7          0.626              1.877              2.418
 Vibration     8          0.641              1.828              2.061
 Vibration     9          0.654              1.789              1.847
 Vibration    10          0.656              1.783              1.818
 Vibration    11          0.668              1.745              1.659
 Vibration    12          0.673              1.732              1.610
 Vibration    13          0.702              1.646              1.338
 Vibration    14          0.707              1.631              1.298
 Vibration    15          0.721              1.592              1.205
 Vibration    16          0.760              1.487              0.991
 Vibration    17          0.797              1.390              0.837
 Vibration    18          0.817              1.340              0.768
 Vibration    19          0.831              1.308              0.727
 Vibration    20          0.877              1.202              0.606
 Vibration    21          0.924              1.101              0.508

 Optimization completed.
    -- Stationary point found.
 Normal termination of Gaussian 16 at Wed Dec  9 18:02:24 2020.

 ----------------------------------------------------------------------
 # B3LYP/6-311++G(d,p) empiricaldispersion=gd3bj scf=xqc pop=npa geom=c
 heck
 ----------------------------------------------------------------------

 ---------------------------------------
 CID_152459017_JID_2361_Energie_neutraal
 ---------------------------------------
 Structure from the checkpoint file:  "JID_2361.chk"
 Charge =  0 Multiplicity = 1

 SCF Done:  E(RB3LYP) =  -570.689047980     A.U. after   15 cycles
 Normal termination of Gaussian 16 at Wed Dec  9 18:05:05 2020.

 ----------------------------------------------------------------------
 # B3LYP/6-311++G(d,p) empiricaldispersion=gd3bj scf=xqc pop=npa geom=c
 heck
 ----------------------------------------------------------------------

 -------------------------------------
 CID_152459017_JID_2361_Energie_kation
 -------------------------------------
 Structure from the checkpoint file:  "JID_2361.chk"
 Charge =  1 Multiplicity = 2

 SCF Done:  E(UB3LYP) =  -570.368172834     A.U. after   26 cycles
 Normal termination of Gaussian 16 at Wed Dec  9 18:11:28 2020.
 Gaussian 16:  ES64L-G16RevA.03 25-Dec-2016

 ----------------------------------------------------------------------
 # B3LYP/6-311++G(d,p) empiricaldispersion=gd3bj scf=xqc pop=npa geom=c
 heck
 ----------------------------------------------------------------------

 ------------------------------------
 CID_152459017_JID_2361_Energie_anion
 ------------------------------------
 Structure from the checkpoint file:  "JID_2361.chk"
 Charge = -1 Multiplicity = 2

                         Standard orientation:
 ---------------------------------------------------------------------
 Center     Atomic      Atomic             Coordinates (Angstroms)
 Number     Number       Type             X           Y           Z
 ---------------------------------------------------------------------
      1          6           0       -3.127281   -1.490471    0.930080
      2          6           0       -3.255198   -0.407376   -0.148934
      3          6           0       -4.642718    0.245035   -0.095924
      4          6           0       -2.165729    0.670820   -0.020616
      5          6           0       -0.708936    0.182190   -0.072417
      6          6           0       -0.390289   -0.591095   -1.359891
      7          7           0        0.160286    1.349320    0.142232
      8          6           0        1.456922    1.161287    0.657916
      9          8           0        2.323762    0.523412   -0.340573
     10          7           0        3.676061    0.553018    0.170480
     11          7           0        4.124924   -0.613323    0.112425
     12          7           0        4.673565   -1.615141    0.072508
     13          1           0       -3.170044   -1.045825    1.932839
     14          1           0       -2.185392   -2.043954    0.850005
     15          1           0       -3.944063   -2.217096    0.853014
     16          1           0       -3.153567   -0.890349   -1.130699
     17          1           0       -4.806410    0.734153    0.872824
     18          1           0       -4.755727    1.006172   -0.876820
     19          1           0       -5.435867   -0.499031   -0.232194
     20          1           0       -2.307274    1.411081   -0.822936
     21          1           0       -2.303681    1.212644    0.924277
     22          1           0       -0.527695   -0.476674    0.786135
     23          1           0       -0.581849    0.036674   -2.240081
     24          1           0        0.660028   -0.889230   -1.377747
     25          1           0       -1.010985   -1.488944   -1.450558
     26          1           0        0.150945    1.984025   -0.651843
     27          1           0        1.915958    2.120936    0.918337
     28          1           0        1.421046    0.518662    1.545228
 ---------------------------------------------------------------------

 SCF Done:  E(UB3LYP) =  -570.695055618     A.U. after   30 cycles

 The electronic state is 2-A.
 Alpha  occ. eigenvalues --  -19.00834 -14.28061 -14.22994 -14.19886 -14.19764
 Alpha  occ. eigenvalues --  -10.12292 -10.10056 -10.08077 -10.06700 -10.06553
 Alpha  occ. eigenvalues --  -10.06496 -10.05166  -0.98032  -0.90777  -0.81435
 Alpha  occ. eigenvalues --   -0.75411  -0.71608  -0.65237  -0.59415  -0.58290
 Alpha  occ. eigenvalues --   -0.54244  -0.49990  -0.46139  -0.42670  -0.39683
 Alpha  occ. eigenvalues --   -0.37923  -0.36829  -0.35006  -0.34425  -0.33485
 Alpha  occ. eigenvalues --   -0.32296  -0.31827  -0.29902  -0.29752  -0.29417
 Alpha  occ. eigenvalues --   -0.28544  -0.27682  -0.27049  -0.25685  -0.24878
 Alpha  occ. eigenvalues --   -0.23163  -0.22779  -0.22092  -0.19995  -0.14872
 Alpha  occ. eigenvalues --   -0.13299  -0.08359   0.04389
 Alpha virt. eigenvalues --    0.05625   0.07652   0.08223   0.08350   0.09797
 Alpha virt. eigenvalues --    0.10288   0.10609   0.11398   0.11609   0.12589
 Alpha virt. eigenvalues --    0.12960   0.13891   0.14458   0.14878   0.15124

  Beta  occ. eigenvalues --  -19.00539 -14.27635 -14.23012 -14.19748 -14.19141
  Beta  occ. eigenvalues --  -10.12280 -10.10053 -10.08070 -10.06684 -10.06526
  Beta  occ. eigenvalues --  -10.06485 -10.05159  -0.97202  -0.90057  -0.81289
  Beta  occ. eigenvalues --   -0.74853  -0.71550  -0.65179  -0.59375  -0.58257
  Beta  occ. eigenvalues --   -0.54085  -0.49945  -0.46099  -0.42012  -0.39520
  Beta  occ. eigenvalues --   -0.37868  -0.36657  -0.34279  -0.33895  -0.33163
  Beta  occ. eigenvalues --   -0.32122  -0.31628  -0.29740  -0.29668  -0.29083
  Beta  occ. eigenvalues --   -0.27575  -0.26802  -0.26722  -0.25618  -0.24807
  Beta  occ. eigenvalues --   -0.23128  -0.22742  -0.22047  -0.18946  -0.14364
  Beta  occ. eigenvalues --   -0.13151  -0.08065
  Beta virt. eigenvalues --    0.06296   0.07880   0.08342   0.08449   0.09930
  Beta virt. eigenvalues --    0.10277   0.10708   0.11388   0.11577   0.12059
  Beta virt. eigenvalues --    0.12690   0.12991   0.13889   0.14394   0.14850

 Mulliken charges and spin densities:
               1          2
     1  C   -0.024727  -0.683126
     2  C   -1.065445   1.578351
     3  C    0.618342  -1.271176
     4  C    0.761545  -1.115539
     5  C   -0.437169   0.129610
     6  C   -0.514557  -0.102021
     7  N   -0.066529   0.012699
     8  C   -0.143054  -0.044063
     9  O   -0.008264   0.023206
    10  N   -0.634507   0.150565
    11  N    0.382291   0.052946
    12  N   -0.303829   0.367517
    13  H    0.022078   0.123855
    14  H    0.124050   0.015024
    15  H   -0.146900   0.282675
    16  H    0.039306   0.106138
    17  H    0.004304   0.122675
    18  H   -0.206105   0.337189
    19  H   -0.376546   0.522396
    20  H    0.107382  -0.009319
    21  H    0.083674   0.096691
    22  H    0.211028  -0.049825
    23  H    0.046023   0.092043
    24  H    0.188729  -0.024960
    25  H    0.064422   0.062870
    26  H    0.185321   0.046306
    27  H    0.013675   0.138870
    28  H    0.075462   0.038401
 Sum of Mulliken charges =  -1.00000   1.00000

 Dipole moment (field-independent basis, Debye):
    X=             -4.0102    Y=              1.8357    Z=              0.1894  Tot=              4.4144
 Quadrupole moment (field-independent basis, Debye-Ang):
   XX=           -185.7272   YY=            -99.3236   ZZ=            -89.0088
   XY=              6.0512   XZ=             -0.5681   YZ=             -0.5772

 Summary of Natural Population Analysis:

                                       Natural Population
                Natural  -----------------------------------------------
    Atom  No    Charge         Core      Valence    Rydberg      Total
 -----------------------------------------------------------------------
      C    1   -0.28706      0.99965     2.28136    0.00605     3.28706
      C    2   -0.11703      0.99961     2.10859    0.00883     3.11703
      C    3   -0.28189      0.99965     2.27630    0.00594     3.28189
      C    4   -0.18828      0.99960     2.17800    0.01068     3.18828
      C    5   -0.00949      0.99960     1.99932    0.01057     3.00949
      C    6   -0.29822      0.99964     2.29334    0.00524     3.29822
      N    7   -0.33901      0.99972     2.82668    0.01261     3.83901
      C    8    0.07917      0.99963     1.90597    0.01523     2.92083
      O    9   -0.22550      0.99990     3.21614    0.00946     4.22550
      N   10   -0.10502      0.99973     2.58869    0.01660     3.60502
      N   11    0.12462      0.99972     2.35905    0.01661     3.37538
      N   12    0.04639      0.99982     2.44027    0.01352     3.45361
      H   13    0.09589      0.00000     0.40330    0.00081     0.40411
      H   14    0.09937      0.00000     0.39989    0.00073     0.40063
      H   15    0.09940      0.00000     0.39981    0.00079     0.40060
      H   16    0.09263      0.00000     0.40556    0.00181     0.40737
      H   17    0.09489      0.00000     0.40411    0.00100     0.40511
      H   18    0.09853      0.00000     0.40052    0.00094     0.40147
      H   19    0.09922      0.00000     0.39961    0.00117     0.40078
      H   20    0.09439      0.00000     0.40456    0.00105     0.40561
      H   21    0.10004      0.00000     0.39858    0.00138     0.39996
      H   22    0.09094      0.00000     0.40717    0.00189     0.40906
      H   23    0.09244      0.00000     0.40631    0.00124     0.40756
      H   24    0.11684      0.00000     0.38176    0.00140     0.38316
      H   25    0.09402      0.00000     0.40511    0.00087     0.40598
      H   26    0.17489      0.00000     0.32269    0.00242     0.32511
      H   27    0.08182      0.00000     0.41599    0.00219     0.41818
      H   28    0.07601      0.00000     0.42219    0.00180     0.42399
 =======================================================================
   * Total *   -0.00000     11.99628    34.85089    0.15283    47.00000

 Normal termination of Gaussian 16 at Wed Dec  9 18:20:00 2020.
