 Gaussian 16, Revision A.03,

 -----------------------------------------------------------
 # opt freq B3LYP/6-31G(d) empiricaldispersion=gd3bj scf=xqc
 -----------------------------------------------------------

 ------------------------------
 CID_91516316_JID_4077_neutraal
 ------------------------------
 Symbolic Z-matrix:
 Charge =  0 Multiplicity = 1

 SCF Done:  E(RB3LYP) =  -672.954734182     A.U. after   13 cycles
 SCF Done:  E(RB3LYP) =  -672.959358836     A.U. after   12 cycles
 SCF Done:  E(RB3LYP) =  -672.959791794     A.U. after   11 cycles
 SCF Done:  E(RB3LYP) =  -672.960173936     A.U. after   11 cycles
 SCF Done:  E(RB3LYP) =  -672.960452812     A.U. after   11 cycles
 SCF Done:  E(RB3LYP) =  -672.960735046     A.U. after   10 cycles
 SCF Done:  E(RB3LYP) =  -672.960859451     A.U. after   11 cycles
 SCF Done:  E(RB3LYP) =  -672.960988588     A.U. after   10 cycles
 SCF Done:  E(RB3LYP) =  -672.961027279     A.U. after   10 cycles
 SCF Done:  E(RB3LYP) =  -672.961048633     A.U. after   10 cycles
 SCF Done:  E(RB3LYP) =  -672.963493076     A.U. after    8 cycles
 SCF Done:  E(RB3LYP) =  -672.963493796     A.U. after    8 cycles
 SCF Done:  E(RB3LYP) =  -672.963494164     A.U. after    7 cycles
 SCF Done:  E(RB3LYP) =  -672.963494401     A.U. after    7 cycles
 SCF Done:  E(RB3LYP) =  -672.963494517     A.U. after    7 cycles
 Optimization completed.
    -- Stationary point found.
 Normal termination of Gaussian 16 at Thu Dec 10 09:25:09 2020.

 --------------------------------------------------------------------
 #N Geom=AllCheck Guess=TCheck SCRF=Check GenChk RB3LYP/6-31G(d) Freq
 --------------------------------------------------------------------

 Structure from the checkpoint file:  "JID_4077.chk"
 ------------------------------
 CID_91516316_JID_4077_neutraal
 ------------------------------
 Charge =  0 Multiplicity = 1

 SCF Done:  E(RB3LYP) =  -672.963494517     A.U. after    1 cycles

  Exact polarizability: 144.079  -9.483 101.627  -4.956  -1.725 106.696
 Approx polarizability: 170.306 -12.885 149.984  -9.905  -2.461 168.030

                      1                      2                      3
                      A                      A                      A
 Frequencies --     27.2895                27.7839                32.5455
 Red. masses --      4.1462                 4.9627                 4.4241
 Frc consts  --      0.0018                 0.0023                 0.0028
 IR Inten    --      0.4859                 0.4883                 0.1276

                      4                      5                      6
                      A                      A                      A
 Frequencies --     43.9372                68.3142                98.1970
 Red. masses --      4.2495                 5.6047                 3.2890
 Frc consts  --      0.0048                 0.0154                 0.0187
 IR Inten    --      0.2307                 0.5990                 1.1000

                      7                      8                      9
                      A                      A                      A
 Frequencies --    140.7682               152.3045               196.0057
 Red. masses --      3.8215                 4.9701                 3.7297
 Frc consts  --      0.0446                 0.0679                 0.0844
 IR Inten    --      2.6030                 1.5100                 0.1787

                     10                     11                     12
                      A                      A                      A
 Frequencies --    238.9811               261.8668               294.6645
 Red. masses --      2.9035                 2.0599                 1.6566
 Frc consts  --      0.0977                 0.0832                 0.0847
 IR Inten    --      1.0866                20.8670                23.1715

                     13                     14                     15
                      A                      A                      A
 Frequencies --    326.3440               335.7723               368.1589
 Red. masses --      1.8911                 2.4457                 1.7546
 Frc consts  --      0.1187                 0.1625                 0.1401
 IR Inten    --     33.9150                13.5324                44.5611

                     16                     17                     18
                      A                      A                      A
 Frequencies --    386.9854               406.4457               446.6566
 Red. masses --      1.8702                 1.9375                 2.1752
 Frc consts  --      0.1650                 0.1886                 0.2557
 IR Inten    --      0.9813                 8.9022                 4.9374

                     19                     20                     21
                      A                      A                      A
 Frequencies --    491.7045               522.0264               538.4263
 Red. masses --      1.4542                 2.6127                 3.3984
 Frc consts  --      0.2072                 0.4195                 0.5805
 IR Inten    --      5.3349                 9.2648                 5.1735

                     22                     23                     24
                      A                      A                      A
 Frequencies --    566.1649               568.8605               633.7165
 Red. masses --      2.3161                 1.4468                 2.2745
 Frc consts  --      0.4374                 0.2758                 0.5382
 IR Inten    --     49.8298               123.9557                54.7383

                     25                     26                     27
                      A                      A                      A
 Frequencies --    695.7007               748.0810               768.8959
 Red. masses --      2.0202                 1.8046                 8.1593
 Frc consts  --      0.5761                 0.5950                 2.8421
 IR Inten    --     25.4329                17.9540                45.6870

                     28                     29                     30
                      A                      A                      A
 Frequencies --    793.0096               805.7175               845.2311
 Red. masses --      1.5693                 1.4180                 2.1603
 Frc consts  --      0.5814                 0.5424                 0.9093
 IR Inten    --      1.9284                 2.9168                 5.8129

                     31                     32                     33
                      A                      A                      A
 Frequencies --    878.5989               909.2380               927.9999
 Red. masses --      2.0380                 2.2681                 2.1559
 Frc consts  --      0.9269                 1.1048                 1.0939
 IR Inten    --     11.3439                 7.5128                 1.7030

                     34                     35                     36
                      A                      A                      A
 Frequencies --    943.9250               953.3238               963.8182
 Red. masses --      2.1091                 2.0996                 1.8138
 Frc consts  --      1.1072                 1.1242                 0.9927
 IR Inten    --      3.0994                 5.9392                 7.6660

                     37                     38                     39
                      A                      A                      A
 Frequencies --    988.2108              1023.3175              1031.6593
 Red. masses --      1.6255                 1.8058                 1.7357
 Frc consts  --      0.9353                 1.1142                 1.0884
 IR Inten    --      6.3421                10.2882                17.3997

                     40                     41                     42
                      A                      A                      A
 Frequencies --   1055.9167              1061.0084              1074.9815
 Red. masses --      1.8814                 1.4711                 4.1811
 Frc consts  --      1.2359                 0.9757                 2.8467
 IR Inten    --     31.7099                 2.0361                80.3376

                     43                     44                     45
                      A                      A                      A
 Frequencies --   1088.8728              1112.6916              1123.2933
 Red. masses --      1.4009                 2.0932                 2.7536
 Frc consts  --      0.9786                 1.5269                 2.0471
 IR Inten    --      0.9228                22.6298                11.0943

                     46                     47                     48
                      A                      A                      A
 Frequencies --   1151.5867              1192.1198              1200.5825
 Red. masses --      2.3586                 1.2690                 1.3290
 Frc consts  --      1.8429                 1.0625                 1.1287
 IR Inten    --     18.3663                30.2034                40.1994

                     49                     50                     51
                      A                      A                      A
 Frequencies --   1218.3035              1223.2376              1229.2874
 Red. masses --      1.3835                 1.3518                 1.3034
 Frc consts  --      1.2099                 1.1918                 1.1604
 IR Inten    --     80.0410                48.6783                38.5137

                     52                     53                     54
                      A                      A                      A
 Frequencies --   1265.7589              1311.6150              1331.0362
 Red. masses --      1.3977                 1.3611                 1.8833
 Frc consts  --      1.3194                 1.3796                 1.9659
 IR Inten    --     24.2748                 7.4057                11.4607

                     55                     56                     57
                      A                      A                      A
 Frequencies --   1344.7239              1375.9463              1381.1327
 Red. masses --      1.2507                 1.2366                 1.4762
 Frc consts  --      1.3325                 1.3794                 1.6591
 IR Inten    --      2.4400                14.2587                 8.4020

                     58                     59                     60
                      A                      A                      A
 Frequencies --   1391.7608              1397.6441              1416.5478
 Red. masses --      1.4563                 1.3570                 1.4308
 Frc consts  --      1.6620                 1.5618                 1.6916
 IR Inten    --      8.8261                 8.7689                16.3779

                     61                     62                     63
                      A                      A                      A
 Frequencies --   1419.8942              1430.1244              1449.5938
 Red. masses --      1.4730                 1.4055                 1.3540
 Frc consts  --      1.7497                 1.6937                 1.6763
 IR Inten    --      2.2095                13.1177                47.4475

                     64                     65                     66
                      A                      A                      A
 Frequencies --   1463.3225              1491.9429              1496.4387
 Red. masses --      1.8677                 1.5425                 1.0961
 Frc consts  --      2.3564                 2.0229                 1.4462
 IR Inten    --     81.0423                55.0022                 7.7154

                     67                     68                     69
                      A                      A                      A
 Frequencies --   1507.3829              1516.5130              1525.8739
 Red. masses --      1.0981                 1.1702                 1.0807
 Frc consts  --      1.4701                 1.5856                 1.4824
 IR Inten    --     10.7278                 5.4055                 2.6790

                     70                     71                     72
                      A                      A                      A
 Frequencies --   1528.2796              1534.1599              1541.3684
 Red. masses --      1.2190                 1.2042                 1.1543
 Frc consts  --      1.6774                 1.6699                 1.6158
 IR Inten    --      4.5485                30.5815                 7.8034

                     73                     74                     75
                      A                      A                      A
 Frequencies --   1544.4729              1852.2013              2998.0152
 Red. masses --      1.1003                 7.5295                 1.0714
 Frc consts  --      1.5464                15.2193                 5.6736
 IR Inten    --      1.7880               602.5564                75.5054

                     76                     77                     78
                      A                      A                      A
 Frequencies --   3017.3003              3032.2510              3044.0061
 Red. masses --      1.0669                 1.0637                 1.0691
 Frc consts  --      5.7228                 5.7621                 5.8367
 IR Inten    --     32.1798                23.1848                 7.5351

                     79                     80                     81
                      A                      A                      A
 Frequencies --   3047.0259              3060.2407              3068.7614
 Red. masses --      1.0659                 1.0976                 1.0972
 Frc consts  --      5.8308                 6.0565                 6.0880
 IR Inten    --     58.2720                28.9919                60.0481

                     82                     83                     84
                      A                      A                      A
 Frequencies --   3075.5242              3092.6217              3094.4184
 Red. masses --      1.0716                 1.0907                 1.0928
 Frc consts  --      5.9720                 6.1460                 6.1653
 IR Inten    --     10.9180                67.6050                36.5268

                     85                     86                     87
                      A                      A                      A
 Frequencies --   3130.6185              3131.2467              3134.7786
 Red. masses --      1.0979                 1.0966                 1.0544
 Frc consts  --      6.3397                 6.3350                 6.1050
 IR Inten    --      9.3074                16.2718                14.9680

                     88                     89                     90
                      A                      A                      A
 Frequencies --   3147.2860              3211.8770              3228.2374
 Red. masses --      1.0558                 1.1176                 1.1164
 Frc consts  --      6.1620                 6.7926                 6.8549
 IR Inten    --     17.1835                 2.2974                21.0750

                     91                     92                     93
                      A                      A                      A
 Frequencies --   3642.0346              3734.7771              3740.3748
 Red. masses --      1.0766                 1.0656                 1.0647
 Frc consts  --      8.4141                 8.7575                 8.7760
 IR Inten    --     26.9034                 9.1893                80.4824

 - Thermochemistry -
 -------------------
 Temperature   298.150 Kelvin.  Pressure   1.00000 Atm.
 Atom     1 has atomic number  6 and mass  12.00000

 Molecular mass:   201.13649 amu.
 Principal axes and moments of inertia in atomic units:
                           1         2         3
     Eigenvalues --  1087.031277420.814477660.04239
           X            0.99998  -0.00479   0.00416
           Y            0.00486   0.99986  -0.01608
           Z           -0.00408   0.01610   0.99986
 This molecule is an asymmetric top.
 Rotational symmetry number  1.
 Warning -- assumption of classical behavior for rotation
           may cause significant error
 Rotational temperatures (Kelvin)      0.07968     0.01167     0.01131
 Rotational constants (GHZ):           1.66025     0.24320     0.23560
 Zero-point vibrational energy     767593.8 (Joules/Mol)
                                  183.45932 (Kcal/Mol)
 Warning -- explicit consideration of  23 degrees of freedom as
           vibrations may cause significant error
 Vibrational temperatures:     39.26    39.97    46.83    63.22    98.29
          (Kelvin)            141.28   202.53   219.13   282.01   343.84
                              376.77   423.96   469.54   483.10   529.70
                              556.79   584.78   642.64   707.45   751.08
                              774.68   814.58   818.46   911.78  1000.96
                             1076.32  1106.27  1140.96  1159.25  1216.10
                             1264.11  1308.19  1335.18  1358.10  1371.62
                             1386.72  1421.81  1472.33  1484.33  1519.23
                             1526.55  1546.66  1566.65  1600.91  1616.17
                             1656.88  1715.19  1727.37  1752.87  1759.97
                             1768.67  1821.14  1887.12  1915.06  1934.76
                             1979.68  1987.14  2002.43  2010.90  2038.10
                             2042.91  2057.63  2085.64  2105.39  2146.57
                             2153.04  2168.79  2181.92  2195.39  2198.85
                             2207.31  2217.69  2222.15  2664.90  4313.48
                             4341.22  4362.73  4379.65  4383.99  4403.00
                             4415.26  4424.99  4449.59  4452.18  4504.26
                             4505.17  4510.25  4528.24  4621.17  4644.71
                             5240.08  5373.51  5381.57

 Zero-point correction=                           0.292361 (Hartree/Particle)
 Thermal correction to Energy=                    0.307938
 Thermal correction to Enthalpy=                  0.308882
 Thermal correction to Gibbs Free Energy=         0.246989
 Sum of electronic and zero-point Energies=           -672.671133
 Sum of electronic and thermal Energies=              -672.655557
 Sum of electronic and thermal Enthalpies=            -672.654613
 Sum of electronic and thermal Free Energies=         -672.716506

                     E (Thermal)             CV                S
                      KCal/Mol        Cal/Mol-Kelvin    Cal/Mol-Kelvin
 Total                  193.234             57.699            130.264
 Electronic               0.000              0.000              0.000
 Translational            0.889              2.981             41.801
 Rotational               0.889              2.981             32.491
 Vibrational            191.456             51.738             55.972
 Vibration     1          0.593              1.984              6.017
 Vibration     2          0.593              1.984              5.982
 Vibration     3          0.594              1.983              5.668
 Vibration     4          0.595              1.980              5.073
 Vibration     5          0.598              1.969              4.201
 Vibration     6          0.604              1.950              3.490
 Vibration     7          0.615              1.913              2.793
 Vibration     8          0.619              1.900              2.643
 Vibration     9          0.636              1.845              2.170
 Vibration    10          0.657              1.781              1.810
 Vibration    11          0.669              1.743              1.649
 Vibration    12          0.689              1.684              1.447
 Vibration    13          0.710              1.623              1.278
 Vibration    14          0.717              1.604              1.232
 Vibration    15          0.741              1.538              1.087
 Vibration    16          0.755              1.498              1.012
 Vibration    17          0.771              1.456              0.939
 Vibration    18          0.806              1.368              0.806
 Vibration    19          0.847              1.268              0.679
 Vibration    20          0.877              1.201              0.605
 Vibration    21          0.893              1.165              0.569
 Vibration    22          0.922              1.104              0.512
 Vibration    23          0.925              1.099              0.506

                           ! Non-Optimized Parameters !
 Normal termination of Gaussian 16 at Thu Dec 10 09:33:47 2020.

 ----------------------------------------------------------------------
 # B3LYP/6-311++G(d,p) empiricaldispersion=gd3bj scf=xqc pop=npa geom=c
 heck
 ----------------------------------------------------------------------

 --------------------------------------
 CID_91516316_JID_4077_Energie_neutraal
 --------------------------------------
 Structure from the checkpoint file:  "JID_4077.chk"
 Charge =  0 Multiplicity = 1

 SCF Done:  E(RB3LYP) =  -673.180932744     A.U. after   13 cycles
 Normal termination of Gaussian 16 at Thu Dec 10 09:37:15 2020.

 ----------------------------------------------------------------------
 # B3LYP/6-311++G(d,p) empiricaldispersion=gd3bj scf=xqc pop=npa geom=c
 heck
 ----------------------------------------------------------------------

 ------------------------------------
 CID_91516316_JID_4077_Energie_kation
 ------------------------------------
 Structure from the checkpoint file:  "JID_4077.chk"
 Charge =  1 Multiplicity = 2

 SCF Done:  E(UB3LYP) =  -672.851427847     A.U. after   28 cycles
 Normal termination of Gaussian 16 at Thu Dec 10 09:47:54 2020.
 Gaussian 16:  ES64L-G16RevA.03 25-Dec-2016

 ----------------------------------------------------------------------
 # B3LYP/6-311++G(d,p) empiricaldispersion=gd3bj scf=xqc pop=npa geom=c
 heck
 ----------------------------------------------------------------------

 -----------------------------------
 CID_91516316_JID_4077_Energie_anion
 -----------------------------------
 Structure from the checkpoint file:  "JID_4077.chk"
 Charge = -1 Multiplicity = 2

                         Standard orientation:
 ---------------------------------------------------------------------
 Center     Atomic      Atomic             Coordinates (Angstroms)
 Number     Number       Type             X           Y           Z
 ---------------------------------------------------------------------
      1          6           0        4.032342   -0.705401    0.836513
      2          6           0        4.219647   -1.048851   -0.619911
      3          6           0        3.004621   -0.258732   -0.187396
      4          6           0        1.675271   -1.007803   -0.216546
      5          6           0        0.608437   -0.597135    0.817977
      6          6           0       -0.262273    0.622411    0.469660
      7          6           0       -1.037337    0.523297   -0.851914
      8          6           0       -1.944838   -0.708646   -0.973809
      9          7           0       -2.909770   -0.846363    0.113793
     10          6           0       -4.037127   -0.099668    0.264190
     11          8           0       -4.740343   -0.076113    1.258954
     12          8           0       -4.321648    0.620843   -0.861669
     13          6           0        3.017960    1.220720   -0.527521
     14          8           0        2.539308    2.060749    0.520002
     15          1           0        4.700596    0.036336    1.269673
     16          1           0        3.753233   -1.499888    1.523129
     17          1           0        5.004321   -0.533807   -1.167442
     18          1           0        4.069153   -2.080011   -0.927102
     19          1           0        1.260046   -0.943851   -1.231462
     20          1           0        1.903118   -2.070040   -0.060649
     21          1           0       -0.044103   -1.466325    0.983047
     22          1           0        1.101559   -0.415202    1.781776
     23          1           0       -0.982439    0.767912    1.285985
     24          1           0        0.366204    1.516134    0.450508
     25          1           0       -1.657038    1.420173   -0.967071
     26          1           0       -0.346261    0.517253   -1.705507
     27          1           0       -2.500026   -0.672858   -1.914246
     28          1           0       -1.350698   -1.628256   -0.986719
     29          1           0       -2.610881   -1.287087    0.971554
     30          1           0       -5.150425    1.083240   -0.650352
     31          1           0        4.040836    1.518059   -0.807869
     32          1           0        2.370975    1.423753   -1.387663
     33          1           0        2.961461    1.754011    1.338112
 ---------------------------------------------------------------------

 SCF Done:  E(UB3LYP) =  -673.170210765     A.U. after   33 cycles
 SCF Done:  E(UB3LYP) =  -673.170210765     a.u. after    1 cycles

 The electronic state is 2-A.
 Alpha  occ. eigenvalues --  -19.07460 -19.02841 -19.00450 -14.24676 -10.22924
 Alpha  occ. eigenvalues --  -10.12450 -10.11399 -10.09358 -10.08026 -10.07870
 Alpha  occ. eigenvalues --  -10.07269 -10.07198 -10.06636 -10.06008  -1.01811
 Alpha  occ. eigenvalues --   -0.93048  -0.92165  -0.84009  -0.77768  -0.70489
 Alpha  occ. eigenvalues --   -0.65566  -0.60955  -0.59488  -0.55719  -0.53248
 Alpha  occ. eigenvalues --   -0.51278  -0.48084  -0.45790  -0.42917  -0.41688
 Alpha  occ. eigenvalues --   -0.40785  -0.38864  -0.38251  -0.37350  -0.37117
 Alpha  occ. eigenvalues --   -0.35577  -0.35006  -0.34030  -0.31890  -0.31518
 Alpha  occ. eigenvalues --   -0.31262  -0.29276  -0.28238  -0.27506  -0.27181
 Alpha  occ. eigenvalues --   -0.25973  -0.23778  -0.23416  -0.22680  -0.21977
 Alpha  occ. eigenvalues --   -0.19930  -0.19276  -0.19091  -0.17946  -0.16885
 Alpha  occ. eigenvalues --    0.04075
 Alpha virt. eigenvalues --    0.05704   0.06586   0.06899   0.08030   0.08612
 Alpha virt. eigenvalues --    0.09031   0.09997   0.10100   0.10981   0.11182
 Alpha virt. eigenvalues --    0.11770   0.12135   0.12382   0.13217   0.13774

  Beta  occ. eigenvalues --  -19.07423 -19.02823 -19.00442 -14.24654 -10.22922
  Beta  occ. eigenvalues --  -10.12433 -10.11379 -10.09360 -10.08008 -10.07824
  Beta  occ. eigenvalues --  -10.07248 -10.07189 -10.06610 -10.06003  -1.01763
  Beta  occ. eigenvalues --   -0.93012  -0.92129  -0.83970  -0.77743  -0.70459
  Beta  occ. eigenvalues --   -0.65526  -0.60911  -0.59444  -0.55664  -0.53181
  Beta  occ. eigenvalues --   -0.51187  -0.48044  -0.45739  -0.42879  -0.41632
  Beta  occ. eigenvalues --   -0.40742  -0.38818  -0.38215  -0.37308  -0.37078
  Beta  occ. eigenvalues --   -0.35544  -0.34972  -0.34003  -0.31857  -0.31493
  Beta  occ. eigenvalues --   -0.31226  -0.29236  -0.28207  -0.27478  -0.27145
  Beta  occ. eigenvalues --   -0.25953  -0.23750  -0.23388  -0.22657  -0.21945
  Beta  occ. eigenvalues --   -0.19890  -0.19248  -0.19060  -0.17920  -0.16863
  Beta virt. eigenvalues --    0.06234   0.06781   0.07262   0.07662   0.08385
  Beta virt. eigenvalues --    0.09100   0.09316   0.10385   0.10463   0.11305
  Beta virt. eigenvalues --    0.11469   0.11929   0.12382   0.12602   0.13345

 Mulliken charges and spin densities:
               1          2
     1  C    0.889567  -1.425815
     2  C    1.201869  -1.610886
     3  C   -2.562314   3.279511
     4  C    1.500796  -1.951313
     5  C   -0.304035   0.018916
     6  C   -0.349395  -0.004426
     7  C   -0.318065   0.390747
     8  C    0.560558  -1.368815
     9  N   -0.262009   0.083128
    10  C    0.326349  -0.214473
    11  O   -0.361870   0.015390
    12  O   -0.248411   0.033350
    13  C    0.356616  -0.994215
    14  O   -0.206394   0.031690
    15  H   -0.459413   0.614285
    16  H   -0.269570   0.443530
    17  H   -0.000747   0.142438
    18  H   -0.128632   0.263462
    19  H    0.114618   0.018770
    20  H   -0.301366   0.481717
    21  H   -0.356310   0.490773
    22  H    0.025737   0.139852
    23  H    0.016245   0.174975
    24  H    0.112671   0.107196
    25  H    0.105196   0.067268
    26  H   -0.008368   0.110650
    27  H    0.058909   0.156472
    28  H   -0.211594   0.411612
    29  H    0.222472   0.096423
    30  H   -0.062615   0.358684
    31  H   -0.212298   0.358535
    32  H    0.076296   0.097795
    33  H    0.055507   0.182775
 Sum of Mulliken charges =  -1.00000   1.00000

 Dipole moment (field-independent basis, Debye):
    X=             -1.0159    Y=              1.2568    Z=             -3.0332  Tot=              3.4368
 Quadrupole moment (field-independent basis, Debye-Ang):
   XX=           -191.9446   YY=           -128.1385   ZZ=           -117.9844
   XY=              1.4576   XZ=             -2.8762   YZ=              1.9870

 Summary of Natural Population Analysis:

                                       Natural Population
                Natural  -----------------------------------------------
    Atom  No    Charge         Core      Valence    Rydberg      Total
 -----------------------------------------------------------------------
      C    1   -0.20044      0.99958     2.18993    0.01093     3.20044
      C    2   -0.18970      0.99958     2.18081    0.00931     3.18970
      C    3   -0.05933      0.99954     2.04682    0.01297     3.05933
      C    4   -0.18722      0.99958     2.17672    0.01092     3.18722
      C    5   -0.19084      0.99962     2.18130    0.00992     3.19084
      C    6   -0.20044      0.99961     2.19358    0.00725     3.20044
      C    7   -0.19569      0.99962     2.18942    0.00666     3.19569
      C    8   -0.09195      0.99961     2.08088    0.01145     3.09195
      N    9   -0.32679      0.99967     2.81666    0.01046     3.82679
      C   10    0.45590      0.99973     1.52022    0.02416     2.54410
      O   11   -0.33768      0.99987     3.33183    0.00597     4.33768
      O   12   -0.35539      0.99988     3.34934    0.00617     4.35539
      C   13   -0.00536      0.99952     1.99254    0.01330     3.00536
      O   14   -0.37095      0.99990     3.36442    0.00663     4.37095
      H   15    0.10327      0.00000     0.39470    0.00203     0.39673
      H   16    0.10776      0.00000     0.39059    0.00166     0.39224
      H   17    0.10113      0.00000     0.39782    0.00105     0.39887
      H   18    0.10341      0.00000     0.39554    0.00106     0.39659
      H   19    0.09555      0.00000     0.40302    0.00144     0.40445
      H   20    0.10274      0.00000     0.39535    0.00191     0.39726
      H   21    0.09272      0.00000     0.40573    0.00155     0.40728
      H   22    0.10011      0.00000     0.39850    0.00139     0.39989
      H   23    0.09519      0.00000     0.40355    0.00127     0.40481
      H   24    0.11407      0.00000     0.38432    0.00161     0.38593
      H   25    0.10212      0.00000     0.39672    0.00117     0.39788
      H   26    0.09569      0.00000     0.40311    0.00120     0.40431
      H   27    0.10330      0.00000     0.39537    0.00133     0.39670
      H   28    0.09901      0.00000     0.39971    0.00129     0.40099
      H   29    0.19964      0.00000     0.29796    0.00240     0.30036
      H   30    0.24421      0.00000     0.25024    0.00554     0.25579
      H   31    0.07917      0.00000     0.41938    0.00145     0.42083
      H   32    0.08731      0.00000     0.41153    0.00116     0.41269
      H   33    0.22951      0.00000     0.26680    0.00369     0.27049
 =======================================================================
   * Total *   -0.00000     13.99532    40.82437    0.18031    55.00000

 Normal termination of Gaussian 16 at Thu Dec 10 10:00:10 2020.
