 Gaussian 16, Revision A.03,

 -----------------------------------------------------------
 # opt freq B3LYP/6-31G(d) empiricaldispersion=gd3bj scf=xqc
 -----------------------------------------------------------

 -------------------------------
 CID_112557084_JID_6173_neutraal
 -------------------------------
 Symbolic Z-matrix:
 Charge =  0 Multiplicity = 1

 SCF Done:  E(RB3LYP) =  -1105.64393044     A.U. after   15 cycles
 SCF Done:  E(RB3LYP) =  -1105.65008837     A.U. after   13 cycles
 SCF Done:  E(RB3LYP) =  -1105.65007435     A.U. after   13 cycles
 SCF Done:  E(RB3LYP) =  -1105.65118160     A.U. after   12 cycles
 SCF Done:  E(RB3LYP) =  -1105.65148318     A.U. after   12 cycles
 SCF Done:  E(RB3LYP) =  -1105.65156422     A.U. after   12 cycles
 SCF Done:  E(RB3LYP) =  -1105.65159420     A.U. after   12 cycles
 SCF Done:  E(RB3LYP) =  -1105.65160404     A.U. after   10 cycles
 SCF Done:  E(RB3LYP) =  -1105.65161045     A.U. after   10 cycles
 SCF Done:  E(RB3LYP) =  -1105.65161154     A.U. after    8 cycles
 SCF Done:  E(RB3LYP) =  -1105.65161171     A.U. after    7 cycles
 Optimization completed.
    -- Stationary point found.
 Normal termination of Gaussian 16 at Thu Dec 10 21:12:34 2020.

 --------------------------------------------------------------------
 #N Geom=AllCheck Guess=TCheck SCRF=Check GenChk RB3LYP/6-31G(d) Freq
 --------------------------------------------------------------------

 Structure from the checkpoint file:  "JID_6173.chk"
 -------------------------------
 CID_112557084_JID_6173_neutraal
 -------------------------------
 Charge =  0 Multiplicity = 1

 SCF Done:  E(RB3LYP) =  -1105.65161171     A.U. after    1 cycles

  Exact polarizability: 179.550 -36.194 132.961  19.567  19.427 123.806
 Approx polarizability: 264.153 -64.343 211.078  47.842  46.755 230.270

                      1                      2                      3
                      A                      A                      A
 Frequencies --     23.4850                43.0087                56.3442
 Red. masses --      7.8005                 5.0341                 3.3039
 Frc consts  --      0.0025                 0.0055                 0.0062
 IR Inten    --      1.0599                 0.3379                 0.8129

                      4                      5                      6
                      A                      A                      A
 Frequencies --     75.7518               101.6197               145.9549
 Red. masses --      5.1009                 5.5760                 7.2436
 Frc consts  --      0.0172                 0.0339                 0.0909
 IR Inten    --      0.4898                 2.1865                 7.9735

                      7                      8                      9
                      A                      A                      A
 Frequencies --    156.5422               192.6495               237.1546
 Red. masses --      4.5364                 4.3677                 4.0596
 Frc consts  --      0.0655                 0.0955                 0.1345
 IR Inten    --      4.5819                 3.2391                 1.4636

                     10                     11                     12
                      A                      A                      A
 Frequencies --    263.7870               271.9372               323.1014
 Red. masses --      3.5132                 3.0423                 3.6899
 Frc consts  --      0.1440                 0.1326                 0.2270
 IR Inten    --      2.9872                 1.3537                19.4357

                     13                     14                     15
                      A                      A                      A
 Frequencies --    351.7525               373.5630               412.7927
 Red. masses --      3.9272                 2.4905                 6.2791
 Frc consts  --      0.2863                 0.2048                 0.6304
 IR Inten    --      4.0440                 6.0000                 5.7814

                     16                     17                     18
                      A                      A                      A
 Frequencies --    457.1989               467.3009               483.9528
 Red. masses --      2.4479                 1.7668                 2.4374
 Frc consts  --      0.3015                 0.2273                 0.3363
 IR Inten    --     25.7288               107.6301                25.8538

                     19                     20                     21
                      A                      A                      A
 Frequencies --    516.8374               553.3299               559.4415
 Red. masses --      3.8894                 2.7519                 3.9621
 Frc consts  --      0.6121                 0.4964                 0.7306
 IR Inten    --     15.1525                 8.0179                 2.0088

                     22                     23                     24
                      A                      A                      A
 Frequencies --    583.9228               625.3955               651.5804
 Red. masses --      3.8903                 4.7919                 5.1125
 Frc consts  --      0.7815                 1.1043                 1.2788
 IR Inten    --      2.7329                 0.3399                 0.5384

                     25                     26                     27
                      A                      A                      A
 Frequencies --    680.0878               712.8186               755.4277
 Red. masses --      8.2627                 1.4392                 4.6264
 Frc consts  --      2.2517                 0.4308                 1.5555
 IR Inten    --      1.6052                83.6747                 6.5883

                     28                     29                     30
                      A                      A                      A
 Frequencies --    757.2714               784.2206               818.0644
 Red. masses --      1.4529                 4.9945                 2.4221
 Frc consts  --      0.4909                 1.8097                 0.9550
 IR Inten    --      5.2205                 0.6580                23.7075

                     31                     32                     33
                      A                      A                      A
 Frequencies --    846.4178               907.3171               911.2851
 Red. masses --      3.8800                 2.2319                 1.2534
 Frc consts  --      1.6378                 1.0825                 0.6133
 IR Inten    --      2.3187                 8.4913                 0.5398

                     34                     35                     36
                      A                      A                      A
 Frequencies --    913.8578               928.6967               952.9052
 Red. masses --      1.3187                 2.3567                 2.7987
 Frc consts  --      0.6489                 1.1976                 1.4973
 IR Inten    --      1.1458                12.3240                13.6266

                     37                     38                     39
                      A                      A                      A
 Frequencies --    969.0807              1027.8125              1042.7415
 Red. masses --      5.2189                 2.4601                 2.4198
 Frc consts  --      2.8877                 1.5312                 1.5502
 IR Inten    --     55.4154                26.7541                 8.9472

                     40                     41                     42
                      A                      A                      A
 Frequencies --   1076.6029              1098.0077              1110.8307
 Red. masses --      2.6646                 2.4402                 1.2211
 Frc consts  --      1.8197                 1.7333                 0.8877
 IR Inten    --     33.4562                85.7652                 6.3373

                     43                     44                     45
                      A                      A                      A
 Frequencies --   1145.2866              1163.5544              1189.4115
 Red. masses --      1.9866                 2.6405                 2.8247
 Frc consts  --      1.5353                 2.1063                 2.3544
 IR Inten    --     18.8891                42.3210                74.5027

                     46                     47                     48
                      A                      A                      A
 Frequencies --   1217.1238              1236.8612              1243.1032
 Red. masses --      2.1724                 1.7527                 1.4801
 Frc consts  --      1.8961                 1.5797                 1.3476
 IR Inten    --     11.7713                21.6226                 7.4777

                     49                     50                     51
                      A                      A                      A
 Frequencies --   1266.3053              1287.7716              1303.9217
 Red. masses --      1.3548                 1.1602                 2.9337
 Frc consts  --      1.2799                 1.1336                 2.9388
 IR Inten    --      5.2554                14.7702                34.7699

                     52                     53                     54
                      A                      A                      A
 Frequencies --   1346.7037              1383.7047              1401.8187
 Red. masses --      1.2322                 1.5431                 1.2052
 Frc consts  --      1.3167                 1.7408                 1.3954
 IR Inten    --     42.3929                56.4001                 8.5013

                     55                     56                     57
                      A                      A                      A
 Frequencies --   1406.1227              1419.0993              1439.9219
 Red. masses --      1.4539                 1.2599                 3.5682
 Frc consts  --      1.6937                 1.4949                 4.3589
 IR Inten    --      7.0645                43.6734                15.3497

                     58                     59                     60
                      A                      A                      A
 Frequencies --   1450.4657              1458.6910              1462.7795
 Red. masses --      1.2766                 1.4133                 2.5288
 Frc consts  --      1.5824                 1.7718                 3.1880
 IR Inten    --     11.5409                67.7029                 0.4747

                     61                     62                     63
                      A                      A                      A
 Frequencies --   1498.4602              1509.7773              1530.2318
 Red. masses --      1.1523                 1.0971                 1.0933
 Frc consts  --      1.5245                 1.4733                 1.5084
 IR Inten    --     13.6139                 5.2748                 0.8958

                     64                     65                     66
                      A                      A                      A
 Frequencies --   1536.5042              1545.8864              1564.8468
 Red. masses --      4.4697                 1.0960                 6.9577
 Frc consts  --      6.2172                 1.5431                10.0383
 IR Inten    --      5.8262                 3.2186                15.0352

                     67                     68                     69
                      A                      A                      A
 Frequencies --   1654.3747              1748.7295              2986.5868
 Red. masses --      5.3416                11.4069                 1.0703
 Frc consts  --      8.6137                20.5524                 5.6249
 IR Inten    --     94.4494               444.5501                40.2220

                     70                     71                     72
                      A                      A                      A
 Frequencies --   3003.8742              3018.8469              3066.4863
 Red. masses --      1.0719                 1.0636                 1.0709
 Frc consts  --      5.6986                 5.7107                 5.9329
 IR Inten    --     29.9573                55.8012                24.9807

                     73                     74                     75
                      A                      A                      A
 Frequencies --   3097.4839              3103.4556              3106.9029
 Red. masses --      1.0923                 1.0994                 1.0936
 Frc consts  --      6.1747                 6.2385                 6.2195
 IR Inten    --     61.0868                15.6819                29.9844

                     76                     77                     78
                      A                      A                      A
 Frequencies --   3170.5571              3222.4233              3245.3971
 Red. masses --      1.0952                 1.0887                 1.0964
 Frc consts  --      6.4866                 6.6606                 6.8038
 IR Inten    --      4.4606                 0.8960                 4.7064

                     79                     80                     81
                      A                      A                      A
 Frequencies --   3249.2007              3275.8175              3714.8485
 Red. masses --      1.0897                 1.0990                 1.0649
 Frc consts  --      6.7783                 6.9485                 8.6587
 IR Inten    --      1.9638                 0.4847                21.4101

 - Thermochemistry -
 -------------------
 Temperature   298.150 Kelvin.  Pressure   1.00000 Atm.
 Atom     1 has atomic number  6 and mass  12.00000

 Molecular mass:   239.06162 amu.
 Principal axes and moments of inertia in atomic units:
                           1         2         3
     Eigenvalues --  2160.351286937.861257428.58789
           X            0.99999  -0.00299  -0.00451
           Y            0.00324   0.99848   0.05498
           Z            0.00434  -0.05499   0.99848
 This molecule is an asymmetric top.
 Rotational symmetry number  1.
 Warning -- assumption of classical behavior for rotation
           may cause significant error
 Rotational temperatures (Kelvin)      0.04009     0.01248     0.01166
 Rotational constants (GHZ):           0.83539     0.26013     0.24295
 Zero-point vibrational energy     609468.6 (Joules/Mol)
                                  145.66649 (Kcal/Mol)
 Warning -- explicit consideration of  22 degrees of freedom as
           vibrations may cause significant error
 Vibrational temperatures:     33.79    61.88    81.07   108.99   146.21
          (Kelvin)            210.00   225.23   277.18   341.21   379.53
                              391.26   464.87   506.09   537.47   593.92
                              657.81   672.34   696.30   743.61   796.12
                              804.91   840.13   899.80   937.48   978.49
                             1025.59  1086.89  1089.54  1128.32  1177.01
                             1217.81  1305.43  1311.14  1314.84  1336.19
                             1371.02  1394.29  1478.79  1500.27  1548.99
                             1579.79  1598.24  1647.81  1674.10  1711.30
                             1751.17  1779.57  1788.55  1821.93  1852.82
                             1876.05  1937.61  1990.84  2016.90  2023.10
                             2041.77  2071.73  2086.90  2098.73  2104.61
                             2155.95  2172.23  2201.66  2210.69  2224.19
                             2251.47  2380.28  2516.03  4297.03  4321.91
                             4343.45  4411.99  4456.59  4465.18  4470.14
                             4561.72  4636.35  4669.40  4674.88  4713.17
                             5344.84

 Zero-point correction=                           0.232134 (Hartree/Particle)
 Thermal correction to Energy=                    0.246783
 Thermal correction to Enthalpy=                  0.247727
 Thermal correction to Gibbs Free Energy=         0.188651
 Sum of electronic and zero-point Energies=          -1105.419477
 Sum of electronic and thermal Energies=             -1105.404829
 Sum of electronic and thermal Enthalpies=           -1105.403885
 Sum of electronic and thermal Free Energies=        -1105.462961

                     E (Thermal)             CV                S
                      KCal/Mol        Cal/Mol-Kelvin    Cal/Mol-Kelvin
 Total                  154.859             55.651            124.336
 Electronic               0.000              0.000              0.000
 Translational            0.889              2.981             42.316
 Rotational               0.889              2.981             33.076
 Vibrational            153.081             49.690             48.944
 Vibration     1          0.593              1.985              6.315
 Vibration     2          0.595              1.980              5.115
 Vibration     3          0.596              1.975              4.581
 Vibration     4          0.599              1.965              3.998
 Vibration     5          0.604              1.948              3.423
 Vibration     6          0.617              1.907              2.724
 Vibration     7          0.620              1.895              2.591
 Vibration     8          0.635              1.850              2.202
 Vibration     9          0.656              1.784              1.824
 Vibration    10          0.670              1.739              1.637
 Vibration    11          0.675              1.725              1.584
 Vibration    12          0.708              1.629              1.294
 Vibration    13          0.728              1.572              1.158
 Vibration    14          0.745              1.526              1.065
 Vibration    15          0.777              1.442              0.917
 Vibration    16          0.815              1.345              0.774
 Vibration    17          0.825              1.323              0.745
 Vibration    18          0.840              1.286              0.699
 Vibration    19          0.872              1.213              0.617
 Vibration    20          0.909              1.132              0.537
 Vibration    21          0.915              1.119              0.525
 Vibration    22          0.941              1.066              0.478

                           ! Non-Optimized Parameters !
 Normal termination of Gaussian 16 at Thu Dec 10 21:22:13 2020.

 ----------------------------------------------------------------------
 # B3LYP/6-311++G(d,p) empiricaldispersion=gd3bj scf=xqc pop=npa geom=c
 heck
 ----------------------------------------------------------------------

 ---------------------------------------
 CID_112557084_JID_6173_Energie_neutraal
 ---------------------------------------
 Structure from the checkpoint file:  "JID_6173.chk"
 Charge =  0 Multiplicity = 1

 SCF Done:  E(RB3LYP) =  -1105.88603513     A.U. after   17 cycles
 Normal termination of Gaussian 16 at Thu Dec 10 21:27:17 2020.

 ----------------------------------------------------------------------
 # B3LYP/6-311++G(d,p) empiricaldispersion=gd3bj scf=xqc pop=npa geom=c
 heck
 ----------------------------------------------------------------------

 -------------------------------------
 CID_112557084_JID_6173_Energie_kation
 -------------------------------------
 Structure from the checkpoint file:  "JID_6173.chk"
 Charge =  1 Multiplicity = 2

 SCF Done:  E(UB3LYP) =  -1105.59750371     A.U. after   26 cycles
 Normal termination of Gaussian 16 at Thu Dec 10 21:38:04 2020.
 Gaussian 16:  ES64L-G16RevA.03 25-Dec-2016

 ----------------------------------------------------------------------
 # B3LYP/6-311++G(d,p) empiricaldispersion=gd3bj scf=xqc pop=npa geom=c
 heck
 ----------------------------------------------------------------------

 ------------------------------------
 CID_112557084_JID_6173_Energie_anion
 ------------------------------------
 Structure from the checkpoint file:  "JID_6173.chk"
 Charge = -1 Multiplicity = 2

                         Standard orientation:
 ---------------------------------------------------------------------
 Center     Atomic      Atomic             Coordinates (Angstroms)
 Number     Number       Type             X           Y           Z
 ---------------------------------------------------------------------
      1          6           0       -1.617366   -1.344170   -1.331506
      2          6           0       -0.446681   -1.818099   -0.823209
      3          7           0        0.115908   -1.338250    0.337293
      4          6           0       -0.474039   -0.318343    1.122295
      5          8           0        0.070124    0.091338    2.148022
      6          6           0       -1.723353    0.186676    0.586965
      7          6           0       -2.260832   -0.312023   -0.598553
      8         16           0       -3.755502    0.494667   -0.991691
      9          6           0       -3.635692    1.491705    0.443926
     10          6           0       -2.519398    1.219883    1.174211
     11          6           0        1.386116   -1.916914    0.794535
     12          6           0        2.599021   -1.547924   -0.072150
     13          8           0        3.189030   -0.302584    0.219260
     14          6           0        2.424224    0.853124   -0.138730
     15          6           0        3.423325    1.988614   -0.280448
     16          8           0        4.402150    1.688428   -1.260764
     17          1           0       -2.027526   -1.752235   -2.246468
     18          1           0        0.107992   -2.612465   -1.309417
     19          1           0       -4.409673    2.218551    0.648767
     20          1           0       -2.247981    1.717837    2.096538
     21          1           0        1.541585   -1.568211    1.815621
     22          1           0        1.275255   -3.007276    0.803592
     23          1           0        3.382457   -2.290294    0.114034
     24          1           0        2.325947   -1.605384   -1.139713
     25          1           0        1.915140    0.679391   -1.098844
     26          1           0        1.679993    1.074525    0.634172
     27          1           0        2.907779    2.899387   -0.601780
     28          1           0        3.884316    2.186978    0.700528
     29          1           0        4.719015    0.799633   -1.027170
 ---------------------------------------------------------------------

 SCF Done:  E(UB3LYP) =  -1105.89132103     A.U. after   29 cycles

 The electronic state is 2-A.
 Alpha  occ. eigenvalues --  -88.74254 -19.03155 -19.02958 -18.95534 -14.23232
 Alpha  occ. eigenvalues --  -10.14123 -10.12304 -10.11915 -10.11284 -10.09117
 Alpha  occ. eigenvalues --  -10.07463 -10.06866 -10.06730 -10.05246 -10.04809
 Alpha  occ. eigenvalues --  -10.03922  -7.82919  -5.79227  -5.78870  -5.78497
 Alpha  occ. eigenvalues --   -0.95019  -0.92523  -0.90979  -0.82972  -0.75544
 Alpha  occ. eigenvalues --   -0.68051  -0.65786  -0.62910  -0.60916  -0.59515
 Alpha  occ. eigenvalues --   -0.54580  -0.51124  -0.50433  -0.46222  -0.43899
 Alpha  occ. eigenvalues --   -0.42248  -0.40919  -0.39730  -0.38674  -0.38325
 Alpha  occ. eigenvalues --   -0.35070  -0.34361  -0.33795  -0.32638  -0.32400
 Alpha  occ. eigenvalues --   -0.30723  -0.30053  -0.28550  -0.27415  -0.26945
 Alpha  occ. eigenvalues --   -0.25811  -0.25036  -0.24592  -0.24220  -0.23061
 Alpha  occ. eigenvalues --   -0.22609  -0.21049  -0.18697  -0.17045  -0.14459
 Alpha  occ. eigenvalues --   -0.13469  -0.13152  -0.08415   0.04252
 Alpha virt. eigenvalues --    0.07021   0.08358   0.08543   0.08985   0.09549
 Alpha virt. eigenvalues --    0.10660   0.11078   0.11271   0.11452   0.11657
 Alpha virt. eigenvalues --    0.12655   0.13356   0.13445   0.14068   0.14353

  Beta  occ. eigenvalues --  -88.74208 -19.03154 -19.02956 -18.95528 -14.23066
  Beta  occ. eigenvalues --  -10.14134 -10.12303 -10.11892 -10.11285 -10.09108
  Beta  occ. eigenvalues --  -10.07100 -10.06557 -10.06532 -10.05311 -10.04876
  Beta  occ. eigenvalues --  -10.03805  -7.82877  -5.79209  -5.78853  -5.78337
  Beta  occ. eigenvalues --   -0.95013  -0.92514  -0.90901  -0.82661  -0.75238
  Beta  occ. eigenvalues --   -0.67891  -0.65624  -0.62707  -0.60699  -0.59162
  Beta  occ. eigenvalues --   -0.54513  -0.50876  -0.50361  -0.45914  -0.43673
  Beta  occ. eigenvalues --   -0.42218  -0.40785  -0.39655  -0.38557  -0.38236
  Beta  occ. eigenvalues --   -0.34983  -0.34129  -0.33592  -0.32546  -0.32324
  Beta  occ. eigenvalues --   -0.30678  -0.29644  -0.28479  -0.27333  -0.26824
  Beta  occ. eigenvalues --   -0.25630  -0.24654  -0.24279  -0.24138  -0.22936
  Beta  occ. eigenvalues --   -0.22363  -0.20236  -0.18692  -0.16941  -0.13534
  Beta  occ. eigenvalues --   -0.13406  -0.12336  -0.07371
  Beta virt. eigenvalues --    0.07337   0.08391   0.08594   0.08993   0.09432
  Beta virt. eigenvalues --    0.09968   0.10673   0.11248   0.11440   0.11802
  Beta virt. eigenvalues --    0.11956   0.12666   0.13467   0.13759   0.14231

 Mulliken charges and spin densities:
               1          2
     1  C   -0.237206   0.019575
     2  C    0.085324  -0.031350
     3  N    0.285864   0.041737
     4  C   -1.051271   0.102741
     5  O   -0.379328  -0.000666
     6  C    0.231669  -0.002869
     7  C    1.461841   0.007489
     8  S   -0.741771   0.092463
     9  C   -0.135764   0.117900
    10  C   -0.518265  -0.041893
    11  C   -0.137957  -0.163298
    12  C    0.308123  -0.475519
    13  O   -0.160206  -0.000556
    14  C   -0.205825  -0.003666
    15  C   -0.418319  -0.057822
    16  O   -0.253794  -0.002153
    17  H    0.097931   0.053717
    18  H   -0.184698   0.286748
    19  H    0.209395  -0.009564
    20  H    0.158162   0.003284
    21  H    0.270599  -0.038879
    22  H   -0.456438   0.642052
    23  H   -0.346132   0.524161
    24  H    0.215353  -0.084542
    25  H    0.168953  -0.003232
    26  H    0.204311  -0.001351
    27  H    0.166858  -0.000369
    28  H    0.135329   0.008319
    29  H    0.227261   0.017540
 Sum of Mulliken charges =  -1.00000   1.00000

 Dipole moment (field-independent basis, Debye):
    X=              0.0577    Y=              2.9332    Z=             -1.2859  Tot=              3.2032
 Quadrupole moment (field-independent basis, Debye-Ang):
   XX=           -153.8608   YY=           -134.3439   ZZ=           -124.1810
   XY=             -0.0523   XZ=              1.7339   YZ=              4.8138

 Summary of Natural Population Analysis:

                                       Natural Population
                Natural  -----------------------------------------------
    Atom  No    Charge         Core      Valence    Rydberg      Total
 -----------------------------------------------------------------------
      C    1   -0.16746      0.99951     2.15731    0.01064     3.16746
      C    2    0.09361      0.99956     1.89449    0.01234     2.90639
      N    3   -0.21449      0.99963     2.70409    0.01077     3.71449
      C    4    0.32345      0.99956     1.65327    0.02373     2.67655
      O    5   -0.34921      0.99988     3.34411    0.00522     4.34921
      C    6   -0.08448      0.99940     2.07357    0.01151     3.08448
      C    7   -0.02859      0.99942     2.01540    0.01377     3.02859
      S    8    0.19302      4.99945     2.78661    0.02092     7.80698
      C    9   -0.16200      0.99954     2.15187    0.01059     3.16200
      C   10   -0.12592      0.99951     2.11693    0.00948     3.12592
      C   11   -0.10564      0.99960     2.09431    0.01173     3.10564
      C   12   -0.01050      0.99958     1.99650    0.01443     3.01050
      O   13   -0.31166      0.99988     3.30147    0.01031     4.31166
      C   14   -0.03135      0.99959     2.02223    0.00953     3.03135
      C   15   -0.01743      0.99961     2.00673    0.01109     3.01743
      O   16   -0.37304      0.99990     3.36684    0.00630     4.37304
      H   17    0.10223      0.00000     0.39682    0.00095     0.39777
      H   18    0.09137      0.00000     0.40741    0.00122     0.40863
      H   19    0.09826      0.00000     0.40088    0.00086     0.40174
      H   20    0.10929      0.00000     0.38968    0.00104     0.39071
      H   21    0.11947      0.00000     0.37918    0.00136     0.38053
      H   22    0.10259      0.00000     0.39406    0.00334     0.39741
      H   23    0.09095      0.00000     0.40740    0.00165     0.40905
      H   24    0.07912      0.00000     0.41948    0.00140     0.42088
      H   25    0.08329      0.00000     0.41525    0.00147     0.41671
      H   26    0.10278      0.00000     0.39596    0.00127     0.39722
      H   27    0.08564      0.00000     0.41324    0.00111     0.41436
      H   28    0.07552      0.00000     0.42308    0.00140     0.42448
      H   29    0.23121      0.00000     0.26513    0.00367     0.26879
 =======================================================================
   * Total *    0.00000     19.99363    42.79330    0.21307    63.00000

 Normal termination of Gaussian 16 at Thu Dec 10 21:50:01 2020.
