 Gaussian 16, Revision A.03,

 -----------------------------------------------------------
 # opt freq B3LYP/6-31G(d) empiricaldispersion=gd3bj scf=xqc
 -----------------------------------------------------------

 -------------------------------
 CID_151400306_JID_1568_neutraal
 -------------------------------
 Symbolic Z-matrix:
 Charge =  0 Multiplicity = 1

 SCF Done:  E(RB3LYP) =  -599.373599909     A.U. after   18 cycles
 SCF Done:  E(RB3LYP) =  -599.379870811     A.U. after   17 cycles
 SCF Done:  E(RB3LYP) =  -599.381437001     A.U. after   14 cycles
 SCF Done:  E(RB3LYP) =  -599.382404327     A.U. after   14 cycles
 SCF Done:  E(RB3LYP) =  -599.384491641     A.U. after   16 cycles
 SCF Done:  E(RB3LYP) =  -599.386118334     A.U. after   14 cycles
 SCF Done:  E(RB3LYP) =  -599.388711317     A.U. after   17 cycles
 SCF Done:  E(RB3LYP) =  -599.389927795     A.U. after   16 cycles
 SCF Done:  E(RB3LYP) =  -599.390666642     A.U. after   14 cycles
 SCF Done:  E(RB3LYP) =  -599.391046461     A.U. after   16 cycles
 SCF Done:  E(RB3LYP) =  -599.392897864     A.U. after   12 cycles
 SCF Done:  E(RB3LYP) =  -599.392927522     A.U. after   12 cycles
 SCF Done:  E(RB3LYP) =  -599.392939154     A.U. after   11 cycles
 SCF Done:  E(RB3LYP) =  -599.392942941     A.U. after   10 cycles
 SCF Done:  E(RB3LYP) =  -599.392943584     A.U. after    9 cycles
 SCF Done:  E(RB3LYP) =  -599.392943802     A.U. after    8 cycles
 Optimization completed.
    -- Stationary point found.
 Normal termination of Gaussian 16 at Tue Dec  8 20:28:17 2020.

 --------------------------------------------------------------------
 #N Geom=AllCheck Guess=TCheck SCRF=Check GenChk RB3LYP/6-31G(d) Freq
 --------------------------------------------------------------------

 Structure from the checkpoint file:  "JID_1568.chk"
 -------------------------------
 CID_151400306_JID_1568_neutraal
 -------------------------------
 Charge =  0 Multiplicity = 1

 SCF Done:  E(RB3LYP) =  -599.392943802     A.U. after    1 cycles

  Exact polarizability: 141.364  -8.767  65.967   5.026  -2.899  42.111
 Approx polarizability: 228.031 -28.868 110.899  19.796 -12.587  68.556

                      1                      2                      3
                      A                      A                      A
 Frequencies --     35.6665                51.9535                92.9540
 Red. masses --     10.5603                 8.1107                 8.2375
 Frc consts  --      0.0079                 0.0129                 0.0419
 IR Inten    --      0.3739                 0.2949                 3.2730

                      4                      5                      6
                      A                      A                      A
 Frequencies --    147.0268               186.2607               195.6750
 Red. masses --      5.2829                 5.7105                11.1042
 Frc consts  --      0.0673                 0.1167                 0.2505
 IR Inten    --      6.9813                 2.8192                 0.2248

                      7                      8                      9
                      A                      A                      A
 Frequencies --    351.9171               385.0540               418.7720
 Red. masses --      6.1728                 3.2141                 6.6726
 Frc consts  --      0.4504                 0.2808                 0.6895
 IR Inten    --      2.4596                 5.3950                 1.7200

                     10                     11                     12
                      A                      A                      A
 Frequencies --    481.6249               527.3118               563.7523
 Red. masses --      8.5238                 6.3491                 5.4739
 Frc consts  --      1.1649                 1.0401                 1.0250
 IR Inten    --     33.4196                43.8873                13.6639

                     13                     14                     15
                      A                      A                      A
 Frequencies --    572.4647               641.1833               695.8407
 Red. masses --      4.8684                 1.3890                 4.0392
 Frc consts  --      0.9400                 0.3365                 1.1523
 IR Inten    --     13.3815                78.4852                66.9403

                     16                     17                     18
                      A                      A                      A
 Frequencies --    762.9379               788.7442               813.7451
 Red. masses --      3.7193                 7.0066                 6.9641
 Frc consts  --      1.2755                 2.5682                 2.7170
 IR Inten    --     66.0889                 1.3917                11.7128

                     19                     20                     21
                      A                      A                      A
 Frequencies --    828.4229               945.8131               961.1220
 Red. masses --      2.0114                 8.7342                 3.2835
 Frc consts  --      0.8133                 4.6035                 1.7871
 IR Inten    --      9.7321                22.5855                61.6110

                     22                     23                     24
                      A                      A                      A
 Frequencies --   1007.1805              1089.2248              1149.4292
 Red. masses --      5.5260                 2.2101                 3.5131
 Frc consts  --      3.3028                 1.5449                 2.7347
 IR Inten    --     29.4895                88.6613               148.9598

                     25                     26                     27
                      A                      A                      A
 Frequencies --   1159.6826              1221.8535              1229.2181
 Red. masses --      3.9585                 3.1649                 2.0391
 Frc consts  --      3.1366                 2.7838                 1.8153
 IR Inten    --     19.4830               336.2257                20.9309

                     28                     29                     30
                      A                      A                      A
 Frequencies --   1257.4820              1289.7582              1406.7643
 Red. masses --      1.6489                 1.3920                 1.6559
 Frc consts  --      1.5362                 1.3643                 1.9307
 IR Inten    --     67.3665                12.1543                39.1954

                     31                     32                     33
                      A                      A                      A
 Frequencies --   1446.7704              1523.3878              1688.1007
 Red. masses --      2.5624                 1.1203                 8.2375
 Frc consts  --      3.1600                 1.5318                13.8306
 IR Inten    --    176.5255                 5.6841               105.7788

                     34                     35                     36
                      A                      A                      A
 Frequencies --   1823.4054              2223.6713              3066.3148
 Red. masses --     10.1346                13.9693                 1.0679
 Frc consts  --     19.8529                40.6974                 5.9158
 IR Inten    --    264.9961               653.0743                42.4788

                     37                     38                     39
                      A                      A                      A
 Frequencies --   3182.5012              3309.6132              3691.4557
 Red. masses --      1.1027                 1.0986                 1.0640
 Frc consts  --      6.5803                 7.0902                 8.5428
 IR Inten    --      7.0261                 3.0863                86.9544

 - Thermochemistry -
 -------------------
 Temperature   298.150 Kelvin.  Pressure   1.00000 Atm.
 Atom     1 has atomic number  6 and mass  12.00000

 Molecular mass:   156.02834 amu.
 Principal axes and moments of inertia in atomic units:
                           1         2         3
     Eigenvalues --   554.012473234.571783617.71359
           X            0.99999   0.00404   0.00348
           Y           -0.00407   0.99994   0.00989
           Z           -0.00344  -0.00991   0.99994
 This molecule is an asymmetric top.
 Rotational symmetry number  1.
 Warning -- assumption of classical behavior for rotation
           may cause significant error
 Rotational temperatures (Kelvin)      0.15634     0.02678     0.02394
 Rotational constants (GHZ):           3.25758     0.55795     0.49886
 Zero-point vibrational energy     258477.5 (Joules/Mol)
                                   61.77760 (Kcal/Mol)
 Warning -- explicit consideration of  13 degrees of freedom as
           vibrations may cause significant error
 Vibrational temperatures:     51.32    74.75   133.74   211.54   267.99
          (Kelvin)            281.53   506.33   554.01   602.52   692.95
                              758.68   811.11   823.65   922.52  1001.16
                             1097.70  1134.83  1170.80  1191.92  1360.81
                             1382.84  1449.11  1567.15  1653.77  1668.52
                             1757.97  1768.57  1809.24  1855.67  2024.02
                             2081.58  2191.82  2428.80  2623.47  3199.37
                             4411.74  4578.91  4761.80  5311.18

 Zero-point correction=                           0.098449 (Hartree/Particle)
 Thermal correction to Energy=                    0.108135
 Thermal correction to Enthalpy=                  0.109079
 Thermal correction to Gibbs Free Energy=         0.061634
 Sum of electronic and zero-point Energies=           -599.294495
 Sum of electronic and thermal Energies=              -599.284809
 Sum of electronic and thermal Enthalpies=            -599.283864
 Sum of electronic and thermal Free Energies=         -599.331310

                     E (Thermal)             CV                S
                      KCal/Mol        Cal/Mol-Kelvin    Cal/Mol-Kelvin
 Total                   67.856             34.093             99.858
 Electronic               0.000              0.000              0.000
 Translational            0.889              2.981             41.044
 Rotational               0.889              2.981             30.251
 Vibrational             66.078             28.131             28.563
 Vibration     1          0.594              1.982              5.486
 Vibration     2          0.596              1.977              4.742
 Vibration     3          0.602              1.954              3.597
 Vibration     4          0.617              1.906              2.710
 Vibration     5          0.632              1.859              2.265
 Vibration     6          0.636              1.846              2.173
 Vibration     7          0.728              1.571              1.158
 Vibration     8          0.754              1.502              1.019
 Vibration     9          0.782              1.429              0.896
 Vibration    10          0.838              1.291              0.706
 Vibration    11          0.882              1.190              0.593
 Vibration    12          0.920              1.110              0.516
 Vibration    13          0.929              1.091              0.500

 Optimization completed.
    -- Stationary point found.
 Normal termination of Gaussian 16 at Tue Dec  8 20:30:37 2020.

 ----------------------------------------------------------------------
 # B3LYP/6-311++G(d,p) empiricaldispersion=gd3bj scf=xqc pop=npa geom=c
 heck
 ----------------------------------------------------------------------

 ---------------------------------------
 CID_151400306_JID_1568_Energie_neutraal
 ---------------------------------------
 Structure from the checkpoint file:  "JID_1568.chk"
 Charge =  0 Multiplicity = 1

 SCF Done:  E(RB3LYP) =  -599.574099537     A.U. after   16 cycles
 Normal termination of Gaussian 16 at Tue Dec  8 20:31:30 2020.

 ----------------------------------------------------------------------
 # B3LYP/6-311++G(d,p) empiricaldispersion=gd3bj scf=xqc pop=npa geom=c
 heck
 ----------------------------------------------------------------------

 -------------------------------------
 CID_151400306_JID_1568_Energie_kation
 -------------------------------------
 Structure from the checkpoint file:  "JID_1568.chk"
 Charge =  1 Multiplicity = 2

 SCF Done:  E(UB3LYP) =  -599.253859077     A.U. after   24 cycles
 Normal termination of Gaussian 16 at Tue Dec  8 20:33:44 2020.
 Gaussian 16:  ES64L-G16RevA.03 25-Dec-2016

 ----------------------------------------------------------------------
 # B3LYP/6-311++G(d,p) empiricaldispersion=gd3bj scf=xqc pop=npa geom=c
 heck
 ----------------------------------------------------------------------

 ------------------------------------
 CID_151400306_JID_1568_Energie_anion
 ------------------------------------
 Structure from the checkpoint file:  "JID_1568.chk"
 Charge = -1 Multiplicity = 2

                         Standard orientation:
 ---------------------------------------------------------------------
 Center     Atomic      Atomic             Coordinates (Angstroms)
 Number     Number       Type             X           Y           Z
 ---------------------------------------------------------------------
      1          6           0        0.567902    1.519600    0.411485
      2          7           0        1.163741    0.176585    0.521020
      3          6           0        0.018192   -0.673278    0.475973
      4          6           0       -1.061056    0.045537    0.124444
      5          8           0       -0.771517    1.367591   -0.097513
      6          6           0       -2.433188   -0.459409   -0.048988
      7          8           0       -2.756731   -1.606060    0.184965
      8          8           0       -3.279951    0.485548   -0.506837
      9          7           0        2.017357   -0.111786   -0.666619
     10          7           0        3.174830   -0.391709   -0.285412
     11          7           0        4.261475   -0.670922   -0.089606
     12          1           0        1.146981    2.159901   -0.252134
     13          1           0        0.495760    1.943716    1.419742
     14          1           0        0.093942   -1.733252    0.659936
     15          1           0       -4.143993    0.043130   -0.605626
 ---------------------------------------------------------------------

 SCF Done:  E(UB3LYP) =  -599.596951610     A.U. after   24 cycles

 The electronic state is 2-A.
 Alpha  occ. eigenvalues --  -19.03049 -19.01002 -18.95478 -14.29416 -14.21294
 Alpha  occ. eigenvalues --  -14.21041 -14.20740 -10.14366 -10.12131 -10.07400
 Alpha  occ. eigenvalues --  -10.04232  -0.97530  -0.96900  -0.94222  -0.87238
 Alpha  occ. eigenvalues --   -0.84090  -0.74137  -0.63339  -0.53175  -0.51821
 Alpha  occ. eigenvalues --   -0.43703  -0.42805  -0.37956  -0.35230  -0.34683
 Alpha  occ. eigenvalues --   -0.34046  -0.33333  -0.33084  -0.31003  -0.29198
 Alpha  occ. eigenvalues --   -0.27771  -0.26212  -0.24283  -0.22003  -0.20516
 Alpha  occ. eigenvalues --   -0.18847  -0.14304  -0.14059  -0.10457  -0.07326
 Alpha  occ. eigenvalues --    0.04273
 Alpha virt. eigenvalues --    0.09047   0.09228   0.10301   0.12259   0.12894
 Alpha virt. eigenvalues --    0.15295   0.16201   0.16410   0.17069   0.17658
 Alpha virt. eigenvalues --    0.18609   0.19328   0.19968   0.20090   0.21337

  Beta  occ. eigenvalues --  -19.02969 -19.00935 -18.95211 -14.29068 -14.21233
  Beta  occ. eigenvalues --  -14.20844 -14.20164 -10.14121 -10.12133 -10.07252
  Beta  occ. eigenvalues --  -10.04016  -0.96845  -0.96534  -0.94027  -0.86823
  Beta  occ. eigenvalues --   -0.83606  -0.73650  -0.62923  -0.52673  -0.51343
  Beta  occ. eigenvalues --   -0.43411  -0.42339  -0.37659  -0.34512  -0.34058
  Beta  occ. eigenvalues --   -0.33311  -0.32912  -0.32501  -0.29921  -0.28116
  Beta  occ. eigenvalues --   -0.27496  -0.25931  -0.24108  -0.21428  -0.19252
  Beta  occ. eigenvalues --   -0.17698  -0.13870  -0.13615  -0.10171  -0.06327
  Beta virt. eigenvalues --    0.09135   0.10161   0.10451   0.11988   0.12264
  Beta virt. eigenvalues --    0.13331   0.15304   0.16416   0.16576   0.17197
  Beta virt. eigenvalues --    0.17869   0.18653   0.19416   0.19992   0.20212

 Mulliken charges and spin densities:
               1          2
     1  C   -0.313127  -0.004829
     2  N   -0.009902   0.027816
     3  C   -0.324188   0.152136
     4  C    0.270596   0.082422
     5  O   -0.160270   0.008421
     6  C   -0.212568   0.182268
     7  O   -0.426836   0.091868
     8  O   -0.211362   0.012925
     9  N   -0.557608   0.065847
    10  N    0.480816   0.057090
    11  N   -0.237178   0.300494
    12  H    0.112805   0.031807
    13  H    0.175854   0.000791
    14  H    0.156563  -0.011752
    15  H    0.256405   0.002694
 Sum of Mulliken charges =  -1.00000   1.00000

 Dipole moment (field-independent basis, Debye):
    X=             -2.8892    Y=              2.7342    Z=              0.3303  Tot=              3.9915
 Quadrupole moment (field-independent basis, Debye-Ang):
   XX=           -108.3786   YY=            -73.3250   ZZ=            -69.3718
   XY=              1.3699   XZ=              2.3798   YZ=              2.3191

 Summary of Natural Population Analysis:

                                       Natural Population
                Natural  -----------------------------------------------
    Atom  No    Charge         Core      Valence    Rydberg      Total
 -----------------------------------------------------------------------
      C    1    0.08132      0.99963     1.90597    0.01308     2.91868
      N    2   -0.18473      0.99971     2.66712    0.01790     3.68473
      C    3    0.01833      0.99948     1.97036    0.01183     2.98167
      C    4    0.10597      0.99935     1.88094    0.01374     2.89403
      O    5   -0.27944      0.99988     3.26926    0.01030     4.27944
      C    6    0.40633      0.99967     1.57019    0.02381     2.59367
      O    7   -0.30360      0.99987     3.29614    0.00759     4.30360
      O    8   -0.34183      0.99988     3.33536    0.00660     4.34183
      N    9   -0.15158      0.99973     2.63581    0.01603     3.65158
      N   10    0.13471      0.99971     2.34879    0.01679     3.36529
      N   11    0.01702      0.99982     2.46961    0.01354     3.48298
      H   12    0.08990      0.00000     0.40870    0.00140     0.41010
      H   13    0.07643      0.00000     0.42219    0.00137     0.42357
      H   14    0.10190      0.00000     0.39712    0.00098     0.39810
      H   15    0.22927      0.00000     0.26758    0.00315     0.27073
 =======================================================================
   * Total *    0.00000     10.99673    28.84515    0.15812    40.00000

 Normal termination of Gaussian 16 at Tue Dec  8 20:36:11 2020.
