 Gaussian 16, Revision A.03,

 -----------------------------------------------------------
 # opt freq B3LYP/6-31G(d) empiricaldispersion=gd3bj scf=xqc
 -----------------------------------------------------------

 -------------------------------
 CID_124118113_JID_8190_neutraal
 -------------------------------
 Symbolic Z-matrix:
 Charge =  0 Multiplicity = 1

 SCF Done:  E(RB3LYP) =  -1634.67102057     A.U. after   14 cycles
 SCF Done:  E(RB3LYP) =  -1634.67797409     A.U. after   12 cycles
 SCF Done:  E(RB3LYP) =  -1634.67941897     A.U. after   12 cycles
 SCF Done:  E(RB3LYP) =  -1634.68049291     A.U. after   12 cycles
 SCF Done:  E(RB3LYP) =  -1634.68175000     A.U. after   12 cycles
 SCF Done:  E(RB3LYP) =  -1634.68374236     A.U. after   14 cycles
 SCF Done:  E(RB3LYP) =  -1634.68417717     A.U. after   12 cycles
 SCF Done:  E(RB3LYP) =  -1634.68469382     A.U. after   11 cycles
 SCF Done:  E(RB3LYP) =  -1634.68480251     A.U. after   11 cycles
 SCF Done:  E(RB3LYP) =  -1634.68482365     A.U. after   11 cycles
 SCF Done:  E(RB3LYP) =  -1634.68483498     A.U. after   11 cycles
 SCF Done:  E(RB3LYP) =  -1634.68484710     A.U. after   10 cycles
 SCF Done:  E(RB3LYP) =  -1634.68484874     A.U. after    9 cycles
 SCF Done:  E(RB3LYP) =  -1634.68484900     A.U. after    8 cycles
 SCF Done:  E(RB3LYP) =  -1634.68484926     A.U. after    8 cycles
 Optimization completed.
    -- Stationary point found.
 Normal termination of Gaussian 16 at Fri Dec 11 19:28:00 2020.

 --------------------------------------------------------------------
 #N Geom=AllCheck Guess=TCheck SCRF=Check GenChk RB3LYP/6-31G(d) Freq
 --------------------------------------------------------------------

 Structure from the checkpoint file:  "JID_8190.chk"
 -------------------------------
 CID_124118113_JID_8190_neutraal
 -------------------------------
 Charge =  0 Multiplicity = 1

 SCF Done:  E(RB3LYP) =  -1634.68484926     A.U. after    1 cycles

  Exact polarizability: 221.695 -31.544 176.418  -0.002  -0.001  91.650
 Approx polarizability: 324.890 -47.358 297.598  -0.003  -0.002 167.056

                      1                      2                      3
                      A                      A                      A
 Frequencies --     43.5939                56.8635                95.5989
 Red. masses --      7.6026                 6.7890                 9.2021
 Frc consts  --      0.0085                 0.0129                 0.0495
 IR Inten    --      7.2225                 0.0438                 1.6789

                      4                      5                      6
                      A                      A                      A
 Frequencies --    103.7798               110.9193               133.3499
 Red. masses --      3.1510                 3.9203                 6.2502
 Frc consts  --      0.0200                 0.0284                 0.0655
 IR Inten    --      0.1404                 0.0361                 6.5931

                      7                      8                      9
                      A                      A                      A
 Frequencies --    160.4241               166.8381               195.8976
 Red. masses --      5.5572                 2.6414                 6.0937
 Frc consts  --      0.0843                 0.0433                 0.1378
 IR Inten    --     12.7126                 0.8717                 0.0748

                     10                     11                     12
                      A                      A                      A
 Frequencies --    199.9220               223.4883               257.4163
 Red. masses --     11.3349                 3.8120                 5.6149
 Frc consts  --      0.2669                 0.1122                 0.2192
 IR Inten    --      0.0003                 0.1088                 0.3770

                     13                     14                     15
                      A                      A                      A
 Frequencies --    258.4362               265.1194               289.9476
 Red. masses --      2.6933                 5.9316                 5.6557
 Frc consts  --      0.1060                 0.2456                 0.2801
 IR Inten    --      2.2112                 0.2769                 4.8192

                     16                     17                     18
                      A                      A                      A
 Frequencies --    319.7028               338.5583               389.5506
 Red. masses --      3.7772                 4.6091                 5.7663
 Frc consts  --      0.2275                 0.3113                 0.5156
 IR Inten    --      2.4931                30.4196                 5.3604

                     19                     20                     21
                      A                      A                      A
 Frequencies --    400.9467               421.8934               430.6650
 Red. masses --      2.5543                 1.6930                 4.6552
 Frc consts  --      0.2419                 0.1775                 0.5087
 IR Inten    --      2.6321                81.7910                 0.0083

                     22                     23                     24
                      A                      A                      A
 Frequencies --    438.2504               460.7120               474.1459
 Red. masses --      1.9321                 3.0943                 2.9401
 Frc consts  --      0.2186                 0.3870                 0.3894
 IR Inten    --      2.5059               115.6617                14.1761

                     25                     26                     27
                      A                      A                      A
 Frequencies --    489.8529               495.5179               529.6188
 Red. masses --      4.3779                 7.2120                 5.3098
 Frc consts  --      0.6189                 1.0433                 0.8775
 IR Inten    --      0.9722                 9.1672                67.0166

                     28                     29                     30
                      A                      A                      A
 Frequencies --    566.8991               581.6151               615.1753
 Red. masses --      3.5678                13.2524                 7.1446
 Frc consts  --      0.6756                 2.6413                 1.5930
 IR Inten    --      4.7480                 0.1687               235.4214

                     31                     32                     33
                      A                      A                      A
 Frequencies --    669.9845               675.2503               724.7098
 Red. masses --      4.4204                 2.4456                 6.1930
 Frc consts  --      1.1691                 0.6570                 1.9164
 IR Inten    --      0.1194                12.4712                 3.6335

                     34                     35                     36
                      A                      A                      A
 Frequencies --    727.8695               750.3769               766.8306
 Red. masses --      4.3890                 2.4996                 2.9363
 Frc consts  --      1.3700                 0.8292                 1.0173
 IR Inten    --      3.3181                 2.0837                 0.1151

                     37                     38                     39
                      A                      A                      A
 Frequencies --    807.8550               811.1829               932.0650
 Red. masses --     11.5502                11.7337                 1.3596
 Frc consts  --      4.4413                 4.5491                 0.6959
 IR Inten    --    115.2741               268.0098                 0.7321

                     40                     41                     42
                      A                      A                      A
 Frequencies --    942.4831               950.4179               991.7985
 Red. masses --      1.3817                 5.3719                 1.3699
 Frc consts  --      0.7231                 2.8590                 0.7939
 IR Inten    --     18.3980                11.0564                53.1997

                     43                     44                     45
                      A                      A                      A
 Frequencies --    991.9373              1046.8810              1047.6548
 Red. masses --      1.3708                 1.0879                 1.0830
 Frc consts  --      0.7947                 0.7025                 0.7004
 IR Inten    --     28.5310                60.8455                37.6434

                     46                     47                     48
                      A                      A                      A
 Frequencies --   1065.5615              1091.1317              1107.7443
 Red. masses --      1.7387                 1.6726                 3.3631
 Frc consts  --      1.1631                 1.1733                 2.4315
 IR Inten    --     14.9239                 4.1282                25.5036

                     49                     50                     51
                      A                      A                      A
 Frequencies --   1157.2349              1169.0105              1212.5768
 Red. masses --     13.0349                 6.6414                 1.2657
 Frc consts  --     10.2849                 5.3474                 1.0965
 IR Inten    --     95.7142               218.1300               237.1530

                     52                     53                     54
                      A                      A                      A
 Frequencies --   1214.0129              1240.7303              1241.6876
 Red. masses --      1.2864                 1.9309                 4.0744
 Frc consts  --      1.1171                 1.7513                 3.7011
 IR Inten    --     47.5267                 2.4000                 0.0702

                     55                     56                     57
                      A                      A                      A
 Frequencies --   1310.6102              1312.4291              1360.1915
 Red. masses --      4.9288                 1.3528                 5.8459
 Frc consts  --      4.9882                 1.3729                 6.3723
 IR Inten    --     35.3374                 5.1318                83.5932

                     58                     59                     60
                      A                      A                      A
 Frequencies --   1367.3526              1372.8713              1374.2148
 Red. masses --      1.2652                 1.4997                 6.0958
 Frc consts  --      1.3937                 1.6654                 6.7825
 IR Inten    --     11.6033                11.4220               239.0690

                     61                     62                     63
                      A                      A                      A
 Frequencies --   1395.4748              1478.9947              1484.2742
 Red. masses --      6.4538                 1.2604                 1.2780
 Frc consts  --      7.4047                 1.6244                 1.6588
 IR Inten    --     67.3030                 1.0077                 1.5937

                     64                     65                     66
                      A                      A                      A
 Frequencies --   1529.5808              1574.2220              1648.3597
 Red. masses --      2.6339                 7.7710                 6.2312
 Frc consts  --      3.6308                11.3464                 9.9752
 IR Inten    --     27.7036                 0.7082                 1.3905

                     67                     68                     69
                      A                      A                      A
 Frequencies --   1698.1301              1700.0302              3161.0834
 Red. masses --      4.1118                 4.2030                 1.0842
 Frc consts  --      6.9859                 7.1568                 6.3833
 IR Inten    --      0.7797                 6.7038                 6.3795

                     70                     71                     72
                      A                      A                      A
 Frequencies --   3161.2233              3181.9485              3181.9658
 Red. masses --      1.0843                 1.0654                 1.0654
 Frc consts  --      6.3845                 6.3556                 6.3557
 IR Inten    --      1.9841                 1.5923                14.7595

                     73                     74                     75
                      A                      A                      A
 Frequencies --   3224.7862              3226.2796              3275.1745
 Red. masses --      1.0901                 1.0908                 1.1162
 Frc consts  --      6.6791                 6.6894                 7.0547
 IR Inten    --      7.5202                 0.0491                 7.7254

                     76                     77                     78
                      A                      A                      A
 Frequencies --   3275.2181              3573.9085              3574.1907
 Red. masses --      1.1162                 1.0653                 1.0653
 Frc consts  --      7.0547                 8.0168                 8.0179
 IR Inten    --      0.8902               199.5708                23.8741

 - Thermochemistry -
 -------------------
 Temperature   298.150 Kelvin.  Pressure   1.00000 Atm.
 Atom     1 has atomic number  6 and mass  12.00000

 Molecular mass:   289.99188 amu.
 Principal axes and moments of inertia in atomic units:
                           1         2         3
     Eigenvalues --  2599.194968440.39683**********
           X            0.99957  -0.02945  -0.00000
           Y            0.02945   0.99957   0.00000
           Z           -0.00000  -0.00000   1.00000
 This molecule is an asymmetric top.
 Rotational symmetry number  1.
 Warning -- assumption of classical behavior for rotation
           may cause significant error
 Rotational temperatures (Kelvin)      0.03332     0.01026     0.00855
 Rotational constants (GHZ):           0.69435     0.21382     0.17822
 Zero-point vibrational energy     516153.9 (Joules/Mol)
                                  123.36375 (Kcal/Mol)
 Warning -- explicit consideration of  30 degrees of freedom as
           vibrations may cause significant error
 Vibrational temperatures:     62.72    81.81   137.55   149.32   159.59
          (Kelvin)            191.86   230.81   240.04   281.85   287.64
                              321.55   370.36   371.83   381.45   417.17
                              459.98   487.11   560.48   576.87   607.01
                              619.63   630.54   662.86   682.19   704.79
                              712.94   762.00   815.64   836.81   885.10
                              963.96   971.53  1042.70  1047.24  1079.63
                             1103.30  1162.32  1167.11  1341.03  1356.02
                             1367.44  1426.98  1427.18  1506.23  1507.34
                             1533.11  1569.90  1593.80  1665.00  1681.95
                             1744.63  1746.69  1785.13  1786.51  1885.68
                             1888.29  1957.01  1967.32  1975.26  1977.19
                             2007.78  2127.94  2135.54  2200.73  2264.95
                             2371.62  2443.23  2445.96  4548.09  4548.30
                             4578.11  4578.14  4639.75  4641.90  4712.25
                             4712.31  5142.06  5142.46

 Zero-point correction=                           0.196593 (Hartree/Particle)
 Thermal correction to Energy=                    0.213926
 Thermal correction to Enthalpy=                  0.214870
 Thermal correction to Gibbs Free Energy=         0.151927
 Sum of electronic and zero-point Energies=          -1634.488257
 Sum of electronic and thermal Energies=             -1634.470923
 Sum of electronic and thermal Enthalpies=           -1634.469979
 Sum of electronic and thermal Free Energies=        -1634.532923

                     E (Thermal)             CV                S
                      KCal/Mol        Cal/Mol-Kelvin    Cal/Mol-Kelvin
 Total                  134.241             65.966            132.477
 Electronic               0.000              0.000              0.000
 Translational            0.889              2.981             42.892
 Rotational               0.889              2.981             33.762
 Vibrational            132.463             60.004             55.823
 Vibration     1          0.595              1.980              5.089
 Vibration     2          0.596              1.975              4.563
 Vibration     3          0.603              1.952              3.542
 Vibration     4          0.605              1.946              3.382
 Vibration     5          0.607              1.940              3.253
 Vibration     6          0.613              1.920              2.897
 Vibration     7          0.622              1.891              2.545
 Vibration     8          0.624              1.883              2.471
 Vibration     9          0.636              1.846              2.171
 Vibration    10          0.638              1.840              2.134
 Vibration    11          0.649              1.805              1.931
 Vibration    12          0.667              1.750              1.679
 Vibration    13          0.667              1.748              1.672
 Vibration    14          0.671              1.737              1.628
 Vibration    15          0.686              1.692              1.474
 Vibration    16          0.706              1.636              1.312
 Vibration    17          0.719              1.598              1.219
 Vibration    18          0.757              1.493              1.002
 Vibration    19          0.767              1.468              0.959
 Vibration    20          0.784              1.423              0.886
 Vibration    21          0.792              1.403              0.856
 Vibration    22          0.798              1.387              0.832
 Vibration    23          0.819              1.337              0.764
 Vibration    24          0.831              1.307              0.726
 Vibration    25          0.846              1.273              0.684
 Vibration    26          0.851              1.260              0.669
 Vibration    27          0.885              1.184              0.588
 Vibration    28          0.923              1.103              0.510
 Vibration    29          0.938              1.071              0.482
 Vibration    30          0.975              1.000              0.424

 Optimization completed.
    -- Stationary point found.
 Normal termination of Gaussian 16 at Fri Dec 11 19:38:43 2020.

 ----------------------------------------------------------------------
 # B3LYP/6-311++G(d,p) empiricaldispersion=gd3bj scf=xqc pop=npa geom=c
 heck
 ----------------------------------------------------------------------

 ---------------------------------------
 CID_124118113_JID_8190_Energie_neutraal
 ---------------------------------------
 Structure from the checkpoint file:  "JID_8190.chk"
 Charge =  0 Multiplicity = 1

 SCF Done:  E(RB3LYP) =  -1634.98453317     A.U. after   16 cycles
 Normal termination of Gaussian 16 at Fri Dec 11 19:44:01 2020.

 ----------------------------------------------------------------------
 # B3LYP/6-311++G(d,p) empiricaldispersion=gd3bj scf=xqc pop=npa geom=c
 heck
 ----------------------------------------------------------------------

 -------------------------------------
 CID_124118113_JID_8190_Energie_kation
 -------------------------------------
 Structure from the checkpoint file:  "JID_8190.chk"
 Charge =  1 Multiplicity = 2

 SCF Done:  E(UB3LYP) =  -1634.64487443     A.U. after   25 cycles
 Normal termination of Gaussian 16 at Fri Dec 11 19:55:55 2020.
 Gaussian 16:  ES64L-G16RevA.03 25-Dec-2016

 ----------------------------------------------------------------------
 # B3LYP/6-311++G(d,p) empiricaldispersion=gd3bj scf=xqc pop=npa geom=c
 heck
 ----------------------------------------------------------------------

 ------------------------------------
 CID_124118113_JID_8190_Energie_anion
 ------------------------------------
 Structure from the checkpoint file:  "JID_8190.chk"
 Charge = -1 Multiplicity = 2

                         Standard orientation:
 ---------------------------------------------------------------------
 Center     Atomic      Atomic             Coordinates (Angstroms)
 Number     Number       Type             X           Y           Z
 ---------------------------------------------------------------------
      1          6           0        2.871136   -2.562618    0.750714
      2          6           0        1.762593   -2.319320    0.036120
      3          6           0        0.926672   -1.099478    0.037546
      4          6           0       -0.461257   -1.297146   -0.007358
      5          6           0       -1.363677   -0.239476    0.009409
      6          6           0       -0.926703    1.099484    0.037498
      7          6           0        0.461226    1.297145   -0.007428
      8          6           0        1.363643    0.239474    0.009385
      9         16           0        3.097370    0.728347   -0.049409
     10          8           0        3.168566    2.089149   -0.552679
     11          8           0        3.735317    0.356003    1.211502
     12          8           0        3.679556   -0.206747   -1.249045
     13          6           0       -1.762597    2.319355    0.035985
     14          6           0       -2.870938    2.562858    0.750816
     15         16           0       -3.097388   -0.728384   -0.049404
     16          8           0       -3.168511   -2.089206   -0.552629
     17          8           0       -3.735379   -0.356037    1.211485
     18          8           0       -3.679586    0.206656   -1.249082
     19          1           0        3.306087   -1.833722    1.425727
     20          1           0        3.349915   -3.535493    0.688309
     21          1           0        1.352444   -3.125247   -0.571356
     22          1           0       -0.850647   -2.307506   -0.064970
     23          1           0        0.850617    2.307501   -0.065097
     24          1           0        3.706076   -1.132921   -0.923429
     25          1           0       -1.352558    3.125137   -0.571758
     26          1           0       -3.349696    3.535739    0.688330
     27          1           0       -3.305758    1.834113    1.426072
     28          1           0       -3.706500    1.132771   -0.923350
 ---------------------------------------------------------------------

 SCF Done:  E(UB3LYP) =  -1635.04242808     A.U. after   22 cycles

 The electronic state is 2-A.
 Alpha  occ. eigenvalues --  -88.97340 -88.97339 -19.07008 -19.07007 -19.01998
 Alpha  occ. eigenvalues --  -19.01997 -19.01904 -19.01903 -10.09307 -10.09306
 Alpha  occ. eigenvalues --  -10.08008 -10.08006 -10.07967 -10.07967 -10.07776
 Alpha  occ. eigenvalues --  -10.07775 -10.05687 -10.05686  -8.03369  -8.03368
 Alpha  occ. eigenvalues --   -5.99780  -5.99780  -5.99583  -5.99583  -5.99388
 Alpha  occ. eigenvalues --   -5.99388  -1.04618  -1.04615  -0.93906  -0.93904
 Alpha  occ. eigenvalues --   -0.91585  -0.91584  -0.77344  -0.70940  -0.67799
 Alpha  occ. eigenvalues --   -0.67087  -0.62548  -0.59814  -0.55425  -0.53755
 Alpha  occ. eigenvalues --   -0.50799  -0.48964  -0.47690  -0.45790  -0.41703
 Alpha  occ. eigenvalues --   -0.41061  -0.40032  -0.39904  -0.37640  -0.36984
 Alpha  occ. eigenvalues --   -0.36009  -0.35779  -0.33835  -0.33821  -0.33235
 Alpha  occ. eigenvalues --   -0.31509  -0.31381  -0.29380  -0.28753  -0.27302
 Alpha  occ. eigenvalues --   -0.26360  -0.25740  -0.25467  -0.24722  -0.24535
 Alpha  occ. eigenvalues --   -0.23136  -0.22633  -0.22151  -0.21018  -0.20950
 Alpha  occ. eigenvalues --   -0.20678  -0.20606  -0.17915  -0.16499  -0.13360
 Alpha  occ. eigenvalues --   -0.00355
 Alpha virt. eigenvalues --    0.07107   0.07725   0.07753   0.08188   0.10021
 Alpha virt. eigenvalues --    0.10563   0.10771   0.11271   0.11739   0.11886
 Alpha virt. eigenvalues --    0.13049   0.13761   0.14121   0.15081   0.15251

  Beta  occ. eigenvalues --  -88.97339 -88.97338 -19.06991 -19.06989 -19.01973
  Beta  occ. eigenvalues --  -19.01973 -19.01863 -19.01862 -10.09072 -10.09070
  Beta  occ. eigenvalues --  -10.08101 -10.08100 -10.07983 -10.07982 -10.07479
  Beta  occ. eigenvalues --  -10.07478 -10.05456 -10.05455  -8.03367  -8.03367
  Beta  occ. eigenvalues --   -5.99769  -5.99769  -5.99580  -5.99580  -5.99394
  Beta  occ. eigenvalues --   -5.99394  -1.04559  -1.04557  -0.93851  -0.93850
  Beta  occ. eigenvalues --   -0.91518  -0.91517  -0.76923  -0.70428  -0.67425
  Beta  occ. eigenvalues --   -0.66754  -0.62170  -0.59546  -0.55296  -0.53228
  Beta  occ. eigenvalues --   -0.50731  -0.48767  -0.47408  -0.45643  -0.41531
  Beta  occ. eigenvalues --   -0.40923  -0.39897  -0.39792  -0.37582  -0.36855
  Beta  occ. eigenvalues --   -0.35824  -0.35570  -0.33745  -0.33687  -0.33110
  Beta  occ. eigenvalues --   -0.31293  -0.31156  -0.29260  -0.28048  -0.27194
  Beta  occ. eigenvalues --   -0.26220  -0.25541  -0.25316  -0.24532  -0.24399
  Beta  occ. eigenvalues --   -0.22878  -0.22461  -0.22005  -0.20752  -0.20574
  Beta  occ. eigenvalues --   -0.20470  -0.19865  -0.17081  -0.15540  -0.11871
  Beta virt. eigenvalues --    0.04887   0.07392   0.07778   0.07871   0.09082
  Beta virt. eigenvalues --    0.10137   0.10550   0.10865   0.11340   0.11895
  Beta virt. eigenvalues --    0.12407   0.13042   0.13801   0.14297   0.15186

 Mulliken charges and spin densities:
               1          2
     1  C   -0.918789   0.211954
     2  C    0.062281  -0.040269
     3  C    1.097480   0.199335
     4  C   -0.581686  -0.065618
     5  C   -1.219563   0.155211
     6  C    1.097620   0.199378
     7  C   -0.582020  -0.065648
     8  C   -1.220020   0.155228
     9  S    0.626861   0.028644
    10  O   -0.198736   0.002813
    11  O   -0.106510   0.004064
    12  O   -0.228934  -0.009905
    13  C    0.062239  -0.040262
    14  C   -0.918704   0.211868
    15  S    0.627021   0.028640
    16  O   -0.198774   0.002812
    17  O   -0.106504   0.004064
    18  O   -0.228889  -0.009906
    19  H    0.216463  -0.011016
    20  H    0.089548  -0.002027
    21  H    0.181493   0.010277
    22  H    0.189507   0.005090
    23  H    0.189528   0.005091
    24  H    0.290826   0.011460
    25  H    0.181502   0.010288
    26  H    0.089545  -0.002015
    27  H    0.216430  -0.011014
    28  H    0.290787   0.011465
 Sum of Mulliken charges =  -1.00000   1.00000

 Dipole moment (field-independent basis, Debye):
    X=             -0.0014    Y=              0.0004    Z=             -1.0982  Tot=              1.0982
 Quadrupole moment (field-independent basis, Debye-Ang):
   XX=           -184.0111   YY=           -136.5431   ZZ=           -136.4413
   XY=            -18.1876   XZ=              0.0006   YZ=              0.0000

 Summary of Natural Population Analysis:

                                       Natural Population
                Natural  -----------------------------------------------
    Atom  No    Charge         Core      Valence    Rydberg      Total
 -----------------------------------------------------------------------
      C    1   -0.16187      0.99958     2.15376    0.00853     3.16187
      C    2   -0.10735      0.99956     2.09722    0.01057     3.10735
      C    3    0.00802      0.99945     1.98112    0.01141     2.99198
      C    4   -0.09376      0.99941     2.08508    0.00927     3.09376
      C    5   -0.08321      0.99931     2.06904    0.01485     3.08321
      C    6    0.01029      0.99945     1.97953    0.01074     2.98971
      C    7   -0.09992      0.99949     2.09087    0.00956     3.09992
      C    8   -0.07988      0.99931     2.06621    0.01435     3.07988
      S    9    1.13551      4.99929     1.76008    0.10512     6.86449
      O   10   -0.45494      0.99990     3.44918    0.00586     4.45494
      O   11   -0.45606      0.99990     3.44985    0.00631     4.45606
      O   12   -0.44259      0.99991     3.43560    0.00709     4.44259
      C   13   -0.10718      0.99956     2.09706    0.01056     3.10718
      C   14   -0.16190      0.99958     2.15378    0.00854     3.16190
      S   15    1.13552      4.99929     1.76001    0.10519     6.86448
      O   16   -0.45497      0.99990     3.44919    0.00587     4.45497
      O   17   -0.45607      0.99990     3.44986    0.00631     4.45607
      O   18   -0.44259      0.99991     3.43562    0.00706     4.44259
      H   19    0.10571      0.00000     0.39296    0.00134     0.39429
      H   20    0.08745      0.00000     0.41135    0.00119     0.41255
      H   21    0.09583      0.00000     0.40271    0.00146     0.40417
      H   22    0.11342      0.00000     0.38525    0.00133     0.38658
      H   23    0.11365      0.00000     0.38504    0.00131     0.38635
      H   24    0.25399      0.00000     0.24260    0.00341     0.24601
      H   25    0.09585      0.00000     0.40269    0.00146     0.40415
      H   26    0.08744      0.00000     0.41136    0.00120     0.41256
      H   27    0.10567      0.00000     0.39297    0.00136     0.39433
      H   28    0.25394      0.00000     0.24260    0.00346     0.24606
 =======================================================================
   * Total *    0.00000     25.99269    48.63260    0.37471    75.00000

 Normal termination of Gaussian 16 at Fri Dec 11 20:06:23 2020.
