 Gaussian 16, Revision A.03,

 -----------------------------------------------------------
 # opt freq B3LYP/6-31G(d) empiricaldispersion=gd3bj scf=xqc
 -----------------------------------------------------------

 -------------------------------
 CID_105311166_JID_6123_neutraal
 -------------------------------
 Symbolic Z-matrix:
 Charge =  0 Multiplicity = 1

 SCF Done:  E(RB3LYP) =  -689.493751340     A.U. after   14 cycles
 SCF Done:  E(RB3LYP) =  -689.503714258     A.U. after   11 cycles
 SCF Done:  E(RB3LYP) =  -689.505042097     A.U. after   12 cycles
 SCF Done:  E(RB3LYP) =  -689.503924592     A.U. after   12 cycles
 SCF Done:  E(RB3LYP) =  -689.506732217     A.U. after   12 cycles
 SCF Done:  E(RB3LYP) =  -689.507247234     A.U. after   11 cycles
 SCF Done:  E(RB3LYP) =  -689.507646152     A.U. after   11 cycles
 SCF Done:  E(RB3LYP) =  -689.507875198     A.U. after   11 cycles
 SCF Done:  E(RB3LYP) =  -689.508079795     A.U. after   11 cycles
 SCF Done:  E(RB3LYP) =  -689.508275827     A.U. after   11 cycles
 SCF Done:  E(RB3LYP) =  -689.513446536     A.U. after    6 cycles
 SCF Done:  E(RB3LYP) =  -689.513446697     A.U. after    7 cycles
 SCF Done:  E(RB3LYP) =  -689.513446934     A.U. after    7 cycles
 SCF Done:  E(RB3LYP) =  -689.513447175     A.U. after    7 cycles
 SCF Done:  E(RB3LYP) =  -689.513447536     A.U. after    7 cycles
 SCF Done:  E(RB3LYP) =  -689.513447682     A.U. after    7 cycles
 Optimization completed.
    -- Stationary point found.
 Normal termination of Gaussian 16 at Thu Dec 10 21:39:01 2020.

 --------------------------------------------------------------------
 #N Geom=AllCheck Guess=TCheck SCRF=Check GenChk RB3LYP/6-31G(d) Freq
 --------------------------------------------------------------------

 Structure from the checkpoint file:  "JID_6123.chk"
 -------------------------------
 CID_105311166_JID_6123_neutraal
 -------------------------------
 Charge =  0 Multiplicity = 1

 SCF Done:  E(RB3LYP) =  -689.513447682     A.U. after    1 cycles

  Exact polarizability: 169.511  -5.926 162.203  -4.966  -2.321 109.629
 Approx polarizability: 224.138  -9.886 233.361 -14.621  -3.581 175.849

                      1                      2                      3
                      A                      A                      A
 Frequencies --     27.7700                48.2743                53.4956
 Red. masses --      3.7472                 1.5209                 2.1912
 Frc consts  --      0.0017                 0.0021                 0.0037
 IR Inten    --      0.4282                 0.1540                 0.1515

                      4                      5                      6
                      A                      A                      A
 Frequencies --     67.8782                98.4611               108.5215
 Red. masses --      2.9852                 2.1068                 1.1190
 Frc consts  --      0.0081                 0.0120                 0.0078
 IR Inten    --      0.4090                 0.0620                 0.3046

                      7                      8                      9
                      A                      A                      A
 Frequencies --    111.7428               119.1026               147.4851
 Red. masses --      1.1985                 3.0016                 3.5776
 Frc consts  --      0.0088                 0.0251                 0.0458
 IR Inten    --      0.2856                 0.4848                 0.2888

                     10                     11                     12
                      A                      A                      A
 Frequencies --    154.6148               176.9047               202.1912
 Red. masses --      2.4947                 2.6278                 2.6553
 Frc consts  --      0.0351                 0.0485                 0.0640
 IR Inten    --      0.1120                 8.0853                 5.0855

                     13                     14                     15
                      A                      A                      A
 Frequencies --    231.9512               260.8293               277.6775
 Red. masses --      3.4289                 2.5792                 2.7048
 Frc consts  --      0.1087                 0.1034                 0.1229
 IR Inten    --      5.4601                 1.2194                 1.2046

                     16                     17                     18
                      A                      A                      A
 Frequencies --    282.7154               305.0319               323.9608
 Red. masses --      2.7263                 2.4907                 3.4989
 Frc consts  --      0.1284                 0.1365                 0.2164
 IR Inten    --      1.5641                 0.1617                 1.3450

                     19                     20                     21
                      A                      A                      A
 Frequencies --    326.1082               360.5552               377.9067
 Red. masses --      1.7668                 4.2011                 1.7970
 Frc consts  --      0.1107                 0.3218                 0.1512
 IR Inten    --     17.2298                 2.1986                17.5925

                     22                     23                     24
                      A                      A                      A
 Frequencies --    384.1424               506.5261               540.1364
 Red. masses --      1.8380                 2.7311                 2.7917
 Frc consts  --      0.1598                 0.4128                 0.4799
 IR Inten    --      2.4307                 3.7454                 5.4704

                     25                     26                     27
                      A                      A                      A
 Frequencies --    595.2190               636.8258               644.6754
 Red. masses --      4.1150                 5.1138                 3.4566
 Frc consts  --      0.8590                 1.2219                 0.8464
 IR Inten    --      1.7050                 1.5311                 2.1562

                     28                     29                     30
                      A                      A                      A
 Frequencies --    659.0769               702.4667               722.1909
 Red. masses --      2.5703                 4.3611                 4.0266
 Frc consts  --      0.6578                 1.2679                 1.2373
 IR Inten    --      8.9351                 3.9867                 3.0792

                     31                     32                     33
                      A                      A                      A
 Frequencies --    757.8049               797.4120               800.9090
 Red. masses --      3.2105                 1.2963                 1.8640
 Frc consts  --      1.0863                 0.4856                 0.7045
 IR Inten    --     71.5503                17.8415                37.2898

                     34                     35                     36
                      A                      A                      A
 Frequencies --    825.4837               847.6330               859.2756
 Red. masses --      1.2572                 2.0161                 2.8310
 Frc consts  --      0.5047                 0.8535                 1.2316
 IR Inten    --      7.5189                 5.4038                 4.1318

                     37                     38                     39
                      A                      A                      A
 Frequencies --    877.6975               934.7452               965.9714
 Red. masses --      2.2239                 2.1769                 2.3540
 Frc consts  --      1.0094                 1.1206                 1.2941
 IR Inten    --     13.8505                 0.3551                12.6432

                     40                     41                     42
                      A                      A                      A
 Frequencies --    971.4856              1008.4201              1025.8267
 Red. masses --      1.5133                 2.0698                 1.6053
 Frc consts  --      0.8415                 1.2401                 0.9953
 IR Inten    --     98.3040                29.7777                 2.3946

                     43                     44                     45
                      A                      A                      A
 Frequencies --   1065.4626              1066.5846              1074.2661
 Red. masses --      1.7856                 1.3844                 1.5098
 Frc consts  --      1.1943                 0.9279                 1.0265
 IR Inten    --      6.9240                 8.4587                 0.5878

                     46                     47                     48
                      A                      A                      A
 Frequencies --   1075.4302              1078.3292              1094.2645
 Red. masses --      1.8239                 1.6300                 1.4024
 Frc consts  --      1.2428                 1.1167                 0.9894
 IR Inten    --     13.4114                 2.4480                 1.6843

                     49                     50                     51
                      A                      A                      A
 Frequencies --   1101.2546              1123.1100              1157.2447
 Red. masses --      1.9164                 2.1715                 1.2932
 Frc consts  --      1.3693                 1.6138                 1.0204
 IR Inten    --      1.1783                 2.1993                 0.1247

                     52                     53                     54
                      A                      A                      A
 Frequencies --   1158.3576              1164.7582              1176.6209
 Red. masses --      1.0938                 2.2425                 2.5616
 Frc consts  --      0.8647                 1.7924                 2.0895
 IR Inten    --      0.2969                31.4227                10.0158

                     55                     56                     57
                      A                      A                      A
 Frequencies --   1189.3827              1215.6523              1241.5871
 Red. masses --      2.4019                 1.4008                 1.3677
 Frc consts  --      2.0020                 1.2196                 1.2422
 IR Inten    --      6.0699                 0.6993                 4.8804

                     58                     59                     60
                      A                      A                      A
 Frequencies --   1261.1586              1263.5511              1301.9785
 Red. masses --      3.0083                 1.7788                 1.1574
 Frc consts  --      2.8191                 1.6732                 1.1560
 IR Inten    --      6.2031                 0.1840                 6.4867

                     61                     62                     63
                      A                      A                      A
 Frequencies --   1309.2180              1342.0426              1351.2648
 Red. masses --      1.2892                 1.8286                 2.2277
 Frc consts  --      1.3020                 1.9404                 2.3966
 IR Inten    --      5.5626                11.9150                 3.4287

                     64                     65                     66
                      A                      A                      A
 Frequencies --   1363.4723              1401.2441              1418.8422
 Red. masses --      1.5869                 1.4638                 1.3592
 Frc consts  --      1.7382                 1.6934                 1.6122
 IR Inten    --      6.1868                 6.5181                 3.4208

                     67                     68                     69
                      A                      A                      A
 Frequencies --   1421.0956              1437.2998              1440.7809
 Red. masses --      3.3459                 1.3811                 1.4866
 Frc consts  --      3.9812                 1.6810                 1.8182
 IR Inten    --     55.0576                 5.6571                 4.3398

                     70                     71                     72
                      A                      A                      A
 Frequencies --   1446.3756              1471.9295              1499.5501
 Red. masses --      1.2748                 1.3346                 1.1024
 Frc consts  --      1.5713                 1.7036                 1.4605
 IR Inten    --      0.8992                 2.4422                 0.6218

                     73                     74                     75
                      A                      A                      A
 Frequencies --   1500.9940              1507.8302              1510.6843
 Red. masses --      1.5187                 1.0523                 1.0781
 Frc consts  --      2.0160                 1.4096                 1.4496
 IR Inten    --     33.1579                 3.5288                 3.1639

                     76                     77                     78
                      A                      A                      A
 Frequencies --   1517.4825              1518.1537              1521.1613
 Red. masses --      1.3481                 1.2976                 1.2363
 Frc consts  --      1.8290                 1.7621                 1.6855
 IR Inten    --      8.3893                20.6734                10.4040

                     79                     80                     81
                      A                      A                      A
 Frequencies --   1525.6084              1526.7827              1536.0904
 Red. masses --      1.1924                 1.2470                 1.2557
 Frc consts  --      1.6352                 1.7126                 1.7458
 IR Inten    --      4.6063                 8.2000                 1.9368

                     82                     83                     84
                      A                      A                      A
 Frequencies --   1536.4209              1545.2057              1546.9736
 Red. masses --      1.4331                 1.5401                 1.3232
 Frc consts  --      1.9932                 2.1665                 1.8657
 IR Inten    --      7.9995                24.6163                 2.6031

                     85                     86                     87
                      A                      A                      A
 Frequencies --   1631.0457              1720.1142              3013.6614
 Red. masses --      6.0216                 1.0625                 1.0761
 Frc consts  --      9.4383                 1.8523                 5.7580
 IR Inten    --     13.6363                17.1359                20.2579

                     88                     89                     90
                      A                      A                      A
 Frequencies --   3027.6336              3036.7188              3042.8806
 Red. masses --      1.0793                 1.0414                 1.0391
 Frc consts  --      5.8289                 5.6580                 5.6685
 IR Inten    --     51.3904                26.5820                36.9571

                     91                     92                     93
                      A                      A                      A
 Frequencies --   3049.5994              3060.8956              3075.6803
 Red. masses --      1.0369                 1.0622                 1.0899
 Frc consts  --      5.6819                 5.8634                 6.0744
 IR Inten    --     63.4162                21.5409                18.8448

                     94                     95                     96
                      A                      A                      A
 Frequencies --   3081.3242              3089.5799              3102.6414
 Red. masses --      1.1010                 1.1004                 1.1055
 Frc consts  --      6.1593                 6.1887                 6.2700
 IR Inten    --     16.7472                22.0372                25.6431

                     97                     98                     99
                      A                      A                      A
 Frequencies --   3105.0282              3133.9342              3142.2852
 Red. masses --      1.0990                 1.0867                 1.0993
 Frc consts  --      6.2428                 6.2886                 6.3954
 IR Inten    --     30.4265                20.1133                14.3011

                    100                    101                    102
                      A                      A                      A
 Frequencies --   3149.7202              3154.8714              3155.5618
 Red. masses --      1.0533                 1.0953                 1.0617
 Frc consts  --      6.1564                 6.4229                 6.2288
 IR Inten    --     21.1615                 5.7254                13.3311

                    103                    104                    105
                      A                      A                      A
 Frequencies --   3183.7263              3225.8813              3239.0060
 Red. masses --      1.0990                 1.1167                 1.1133
 Frc consts  --      6.5631                 6.8466                 6.8817
 IR Inten    --      2.6798                 0.4923                24.4897

                    106                    107                    108
                      A                      A                      A
 Frequencies --   3407.4987              3519.3898              3531.6873
 Red. masses --      1.0518                 1.0860                 1.0776
 Frc consts  --      7.1952                 7.9255                 7.9189
 IR Inten    --     14.1260                 1.7063                 0.7220

 - Thermochemistry -
 -------------------
 Temperature   298.150 Kelvin.  Pressure   1.00000 Atm.
 Atom     1 has atomic number  6 and mass  12.00000

 Molecular mass:   222.18445 amu.
 Principal axes and moments of inertia in atomic units:
                           1         2         3
     Eigenvalues --  2179.969065330.020046894.47675
           X            0.99999  -0.00342   0.00074
           Y            0.00342   0.99998  -0.00554
           Z           -0.00072   0.00554   0.99998
 This molecule is an asymmetric top.
 Rotational symmetry number  1.
 Warning -- assumption of classical behavior for rotation
           may cause significant error
 Rotational temperatures (Kelvin)      0.03973     0.01625     0.01256
 Rotational constants (GHZ):           0.82787     0.33860     0.26177
 Zero-point vibrational energy     891295.5 (Joules/Mol)
                                  213.02473 (Kcal/Mol)
 Warning -- explicit consideration of  25 degrees of freedom as
           vibrations may cause significant error
 Vibrational temperatures:     39.95    69.46    76.97    97.66   141.66
          (Kelvin)            156.14   160.77   171.36   212.20   222.46
                              254.53   290.91   333.73   375.28   399.52
                              406.76   438.87   466.11   469.20   518.76
                              543.72   552.70   728.78   777.14   856.39
                              916.25   927.54   948.26  1010.69  1039.07
                             1090.31  1147.30  1152.33  1187.69  1219.55
                             1236.31  1262.81  1344.89  1389.82  1397.75
                             1450.89  1475.94  1532.96  1534.58  1545.63
                             1547.30  1551.48  1574.40  1584.46  1615.90
                             1665.02  1666.62  1675.83  1692.90  1711.26
                             1749.05  1786.37  1814.53  1817.97  1873.26
                             1883.67  1930.90  1944.17  1961.73  2016.08
                             2041.40  2044.64  2067.95  2072.96  2081.01
                             2117.78  2157.52  2159.60  2169.43  2173.54
                             2183.32  2184.28  2188.61  2195.01  2196.70
                             2210.09  2210.57  2223.21  2225.75  2346.71
                             2474.86  4335.99  4356.09  4369.16  4378.03
                             4387.69  4403.95  4425.22  4433.34  4445.22
                             4464.01  4467.44  4509.03  4521.05  4531.74
                             4539.16  4540.15  4580.67  4641.32  4660.21
                             4902.63  5063.62  5081.31

 Zero-point correction=                           0.339477 (Hartree/Particle)
 Thermal correction to Energy=                    0.357465
 Thermal correction to Enthalpy=                  0.358409
 Thermal correction to Gibbs Free Energy=         0.292945
 Sum of electronic and zero-point Energies=           -689.173971
 Sum of electronic and thermal Energies=              -689.155983
 Sum of electronic and thermal Enthalpies=            -689.155039
 Sum of electronic and thermal Free Energies=         -689.220502

                     E (Thermal)             CV                S
                      KCal/Mol        Cal/Mol-Kelvin    Cal/Mol-Kelvin
 Total                  224.312             66.243            137.779
 Electronic               0.000              0.000              0.000
 Translational            0.889              2.981             42.098
 Rotational               0.889              2.981             32.749
 Vibrational            222.535             60.281             62.933
 Vibration     1          0.593              1.984              5.983
 Vibration     2          0.595              1.978              4.887
 Vibration     3          0.596              1.976              4.684
 Vibration     4          0.598              1.970              4.214
 Vibration     5          0.604              1.950              3.485
 Vibration     6          0.606              1.942              3.295
 Vibration     7          0.607              1.940              3.238
 Vibration     8          0.609              1.933              3.115
 Vibration     9          0.617              1.905              2.704
 Vibration    10          0.620              1.898              2.615
 Vibration    11          0.628              1.871              2.361
 Vibration    12          0.639              1.837              2.113
 Vibration    13          0.653              1.792              1.864
 Vibration    14          0.669              1.744              1.656
 Vibration    15          0.679              1.715              1.548
 Vibration    16          0.682              1.706              1.517
 Vibration    17          0.696              1.664              1.389
 Vibration    18          0.709              1.628              1.290
 Vibration    19          0.710              1.623              1.279
 Vibration    20          0.735              1.554              1.120
 Vibration    21          0.748              1.517              1.048
 Vibration    22          0.753              1.504              1.023
 Vibration    23          0.862              1.236              0.642
 Vibration    24          0.895              1.161              0.565
 Vibration    25          0.953              1.042              0.458

                           ! Non-Optimized Parameters !
 Normal termination of Gaussian 16 at Thu Dec 10 21:53:04 2020.

 ----------------------------------------------------------------------
 # B3LYP/6-311++G(d,p) empiricaldispersion=gd3bj scf=xqc pop=npa geom=c
 heck
 ----------------------------------------------------------------------

 ---------------------------------------
 CID_105311166_JID_6123_Energie_neutraal
 ---------------------------------------
 Structure from the checkpoint file:  "JID_6123.chk"
 Charge =  0 Multiplicity = 1

 SCF Done:  E(RB3LYP) =  -689.709081132     A.U. after   14 cycles
 Normal termination of Gaussian 16 at Thu Dec 10 21:59:17 2020.

 ----------------------------------------------------------------------
 # B3LYP/6-311++G(d,p) empiricaldispersion=gd3bj scf=xqc pop=npa geom=c
 heck
 ----------------------------------------------------------------------

 -------------------------------------
 CID_105311166_JID_6123_Energie_kation
 -------------------------------------
 Structure from the checkpoint file:  "JID_6123.chk"
 Charge =  1 Multiplicity = 2

 SCF Done:  E(UB3LYP) =  -689.421946269     A.U. after   29 cycles
 Normal termination of Gaussian 16 at Thu Dec 10 22:18:03 2020.
 Gaussian 16:  ES64L-G16RevA.03 25-Dec-2016

 ----------------------------------------------------------------------
 # B3LYP/6-311++G(d,p) empiricaldispersion=gd3bj scf=xqc pop=npa geom=c
 heck
 ----------------------------------------------------------------------

 ------------------------------------
 CID_105311166_JID_6123_Energie_anion
 ------------------------------------
 Structure from the checkpoint file:  "JID_6123.chk"
 Charge = -1 Multiplicity = 2

                         Standard orientation:
 ---------------------------------------------------------------------
 Center     Atomic      Atomic             Coordinates (Angstroms)
 Number     Number       Type             X           Y           Z
 ---------------------------------------------------------------------
      1          6           0        1.295800   -2.207717    0.551464
      2          6           0        1.761978   -0.810664    0.302862
      3          6           0        1.135000    0.414276    0.492749
      4          6           0        2.091022    1.379125    0.071604
      5          7           0        3.219775    0.799919   -0.338792
      6          7           0        3.002803   -0.532586   -0.193674
      7          6           0        4.047901   -1.470819   -0.537752
      8          6           0        1.950611    2.869364    0.059307
      9          6           0       -0.248321    0.679999    1.002992
     10          6           0       -1.284288    0.950221   -0.112729
     11          6           0       -1.454206   -0.234652   -1.094399
     12          6           0       -2.178815   -1.505829   -0.657806
     13          6           0       -2.544664   -1.908255    0.755636
     14          6           0       -3.628242   -1.544996   -0.230741
     15          7           0       -2.505059    1.475831    0.512726
     16          7           0       -3.556153    1.853998   -0.376430
     17          1           0        1.338214   -2.818955   -0.359260
     18          1           0        1.903191   -2.714909    1.312467
     19          1           0        0.258496   -2.202949    0.892703
     20          1           0        4.885458   -0.889574   -0.922793
     21          1           0        4.374658   -2.040523    0.339914
     22          1           0        3.708984   -2.173479   -1.307525
     23          1           0        1.662051    3.252693    1.045777
     24          1           0        2.900178    3.329176   -0.226627
     25          1           0        1.182101    3.200203   -0.650640
     26          1           0       -0.579710   -0.157072    1.625563
     27          1           0       -0.245981    1.564403    1.650846
     28          1           0       -0.883138    1.776982   -0.716429
     29          1           0       -1.950454    0.131730   -2.004842
     30          1           0       -0.441727   -0.505346   -1.415752
     31          1           0       -1.893530   -2.353156   -1.280039
     32          1           0       -2.426442   -2.952488    1.033132
     33          1           0       -2.357397   -1.224444    1.575840
     34          1           0       -4.152517   -0.605506   -0.082798
     35          1           0       -4.256342   -2.341170   -0.621156
     36          1           0       -2.897969    0.797871    1.158874
     37          1           0       -3.367625    2.809945   -0.672392
     38          1           0       -3.552724    1.276119   -1.220808
 ---------------------------------------------------------------------

 SCF Done:  E(UB3LYP) =  -689.698638585     A.U. after   30 cycles

 The electronic state is 2-A.
 Alpha  occ. eigenvalues --  -14.28134 -14.23254 -14.23235 -14.22103 -10.10939
 Alpha  occ. eigenvalues --  -10.10808 -10.10752 -10.09160 -10.08601 -10.08125
 Alpha  occ. eigenvalues --  -10.07981 -10.07676 -10.07599 -10.07568 -10.07277
 Alpha  occ. eigenvalues --  -10.06485  -0.94329  -0.87496  -0.76754  -0.75029
 Alpha  occ. eigenvalues --   -0.72743  -0.69863  -0.64736  -0.63908  -0.62476
 Alpha  occ. eigenvalues --   -0.59573  -0.56278  -0.52140  -0.51194  -0.47649
 Alpha  occ. eigenvalues --   -0.46514  -0.44756  -0.42175  -0.40094  -0.39674
 Alpha  occ. eigenvalues --   -0.38722  -0.38417  -0.37522  -0.35424  -0.35074
 Alpha  occ. eigenvalues --   -0.33335  -0.32808  -0.32187  -0.31889  -0.31274
 Alpha  occ. eigenvalues --   -0.30381  -0.29866  -0.29188  -0.28052  -0.27956
 Alpha  occ. eigenvalues --   -0.27453  -0.26589  -0.25980  -0.23472  -0.20467
 Alpha  occ. eigenvalues --   -0.19094  -0.18918  -0.17309  -0.14735  -0.13945
 Alpha  occ. eigenvalues --   -0.13127   0.04055
 Alpha virt. eigenvalues --    0.05911   0.06652   0.07439   0.08109   0.08533
 Alpha virt. eigenvalues --    0.09107   0.09348   0.09795   0.10502   0.10732
 Alpha virt. eigenvalues --    0.11064   0.11378   0.11749   0.12159   0.12802

  Beta  occ. eigenvalues --  -14.28133 -14.23239 -14.23224 -14.22096 -10.10894
  Beta  occ. eigenvalues --  -10.10802 -10.10750 -10.09159 -10.08586 -10.08112
  Beta  occ. eigenvalues --  -10.07978 -10.07664 -10.07588 -10.07523 -10.07259
  Beta  occ. eigenvalues --  -10.06484  -0.94321  -0.87476  -0.76726  -0.75014
  Beta  occ. eigenvalues --   -0.72723  -0.69834  -0.64701  -0.63873  -0.62439
  Beta  occ. eigenvalues --   -0.59526  -0.56236  -0.52111  -0.51151  -0.47623
  Beta  occ. eigenvalues --   -0.46491  -0.44723  -0.42142  -0.40051  -0.39630
  Beta  occ. eigenvalues --   -0.38699  -0.38379  -0.37498  -0.35387  -0.35051
  Beta  occ. eigenvalues --   -0.33308  -0.32789  -0.32158  -0.31846  -0.31236
  Beta  occ. eigenvalues --   -0.30357  -0.29841  -0.29155  -0.28027  -0.27938
  Beta  occ. eigenvalues --   -0.27429  -0.26566  -0.25959  -0.23443  -0.20441
  Beta  occ. eigenvalues --   -0.19070  -0.18892  -0.17286  -0.14723  -0.13929
  Beta  occ. eigenvalues --   -0.13116
  Beta virt. eigenvalues --    0.06166   0.06880   0.07253   0.07719   0.08410
  Beta virt. eigenvalues --    0.08928   0.09568   0.09801   0.10067   0.10722
  Beta virt. eigenvalues --    0.10970   0.11236   0.11686   0.12018   0.12322

 Mulliken charges and spin densities:
               1          2
     1  C   -0.144543  -0.446996
     2  C   -0.994872   0.462678
     3  C    1.483433  -0.354894
     4  C    0.282848  -0.278958
     5  N   -0.357970   0.304540
     6  N    0.164709   0.022643
     7  C    0.754879  -1.038763
     8  C   -0.350322  -0.375130
     9  C   -1.094261   0.290873
    10  C   -0.269997  -0.411424
    11  C    0.935673  -1.241485
    12  C   -0.707849   0.859187
    13  C    0.097269  -0.444949
    14  C    0.440537  -1.051318
    15  N    0.006566   0.035692
    16  N   -0.496302   0.014436
    17  H   -0.213147   0.400251
    18  H   -0.319131   0.497626
    19  H    0.081983   0.065067
    20  H   -0.046626   0.206164
    21  H   -0.302280   0.462670
    22  H   -0.399452   0.572532
    23  H    0.101408   0.038448
    24  H    0.126222   0.035531
    25  H   -0.139083   0.269841
    26  H    0.006015   0.131307
    27  H    0.172966   0.038365
    28  H    0.639558  -0.389674
    29  H   -0.523262   0.681850
    30  H    0.331577  -0.130811
    31  H   -0.621988   0.878465
    32  H   -0.169846   0.350704
    33  H    0.100567   0.005773
    34  H    0.148897  -0.022754
    35  H   -0.146206   0.301500
    36  H    0.208279   0.009967
    37  H    0.069405   0.181771
    38  H    0.144347   0.069276
 Sum of Mulliken charges =  -1.00000   1.00000

 Dipole moment (field-independent basis, Debye):
    X=             -1.5771    Y=              5.2513    Z=              2.7220  Tot=              6.1215
 Quadrupole moment (field-independent basis, Debye-Ang):
   XX=           -176.0570   YY=           -160.9942   ZZ=           -133.5787
   XY=              8.5661   XZ=             -2.0191   YZ=             -4.5154

 Summary of Natural Population Analysis:

                                       Natural Population
                Natural  -----------------------------------------------
    Atom  No    Charge         Core      Valence    Rydberg      Total
 -----------------------------------------------------------------------
      C    1   -0.30455      0.99963     2.29921    0.00571     3.30455
      C    2    0.09574      0.99947     1.89309    0.01170     2.90426
      C    3   -0.07377      0.99941     2.06376    0.01059     3.07377
      C    4    0.07586      0.99954     1.91141    0.01320     2.92414
      N    5   -0.16362      0.99970     2.65289    0.01103     3.66362
      N    6   -0.11011      0.99962     2.59780    0.01270     3.61011
      C    7   -0.17508      0.99964     2.16754    0.00790     3.17508
      C    8   -0.29745      0.99963     2.29349    0.00433     3.29745
      C    9   -0.20036      0.99957     2.19195    0.00884     3.20036
      C   10   -0.00809      0.99958     1.99463    0.01388     3.00809
      C   11   -0.20671      0.99958     2.19545    0.01168     3.20671
      C   12   -0.11678      0.99960     2.10361    0.01357     3.11678
      C   13   -0.20275      0.99961     2.19343    0.00971     3.20275
      C   14   -0.20323      0.99961     2.19416    0.00946     3.20323
      N   15   -0.25692      0.99973     2.74287    0.01432     3.75692
      N   16   -0.32853      0.99978     2.81680    0.01195     3.82853
      H   17    0.11204      0.00000     0.38562    0.00233     0.38796
      H   18    0.10785      0.00000     0.39061    0.00154     0.39215
      H   19    0.11155      0.00000     0.38714    0.00131     0.38845
      H   20    0.10816      0.00000     0.39033    0.00151     0.39184
      H   21    0.09835      0.00000     0.40000    0.00165     0.40165
      H   22    0.10129      0.00000     0.39685    0.00186     0.39871
      H   23    0.10085      0.00000     0.39801    0.00114     0.39915
      H   24    0.10742      0.00000     0.39158    0.00100     0.39258
      H   25    0.10234      0.00000     0.39640    0.00127     0.39766
      H   26    0.10148      0.00000     0.39708    0.00143     0.39852
      H   27    0.10748      0.00000     0.39110    0.00143     0.39252
      H   28    0.09132      0.00000     0.40593    0.00275     0.40868
      H   29    0.09830      0.00000     0.40013    0.00157     0.40170
      H   30    0.11249      0.00000     0.38569    0.00182     0.38751
      H   31    0.10760      0.00000     0.39000    0.00240     0.39240
      H   32    0.10528      0.00000     0.39371    0.00101     0.39472
      H   33    0.09465      0.00000     0.40406    0.00128     0.40535
      H   34    0.10247      0.00000     0.39596    0.00157     0.39753
      H   35    0.10204      0.00000     0.39702    0.00094     0.39796
      H   36    0.16717      0.00000     0.32945    0.00338     0.33283
      H   37    0.17101      0.00000     0.32730    0.00169     0.32899
      H   38    0.16519      0.00000     0.33281    0.00200     0.33481
 =======================================================================
   * Total *    0.00000     15.99369    44.79888    0.20743    61.00000

 Normal termination of Gaussian 16 at Thu Dec 10 22:35:09 2020.
