 Gaussian 16, Revision A.03,

 -----------------------------------------------------------
 # opt freq B3LYP/6-31G(d) empiricaldispersion=gd3bj scf=xqc
 -----------------------------------------------------------

 -------------------------------
 CID_143506100_JID_3168_neutraal
 -------------------------------
 Symbolic Z-matrix:
 Charge =  0 Multiplicity = 1

 SCF Done:  E(RB3LYP) =  -652.336915436     A.U. after   14 cycles
 SCF Done:  E(RB3LYP) =  -652.341832050     A.U. after   13 cycles
 SCF Done:  E(RB3LYP) =  -652.342268014     A.U. after   12 cycles
 SCF Done:  E(RB3LYP) =  -652.342782633     A.U. after   13 cycles
 SCF Done:  E(RB3LYP) =  -652.343586856     A.U. after   13 cycles
 SCF Done:  E(RB3LYP) =  -652.343500426     A.U. after   13 cycles
 SCF Done:  E(RB3LYP) =  -652.345222545     A.U. after   14 cycles
 SCF Done:  E(RB3LYP) =  -652.345759341     A.U. after   13 cycles
 SCF Done:  E(RB3LYP) =  -652.346016414     A.U. after   12 cycles
 SCF Done:  E(RB3LYP) =  -652.346053987     A.U. after   12 cycles
 SCF Done:  E(RB3LYP) =  -652.346105901     A.U. after   10 cycles
 SCF Done:  E(RB3LYP) =  -652.346108947     A.U. after    9 cycles
 SCF Done:  E(RB3LYP) =  -652.346109712     A.U. after    9 cycles
 SCF Done:  E(RB3LYP) =  -652.346110017     A.U. after    8 cycles
 SCF Done:  E(RB3LYP) =  -652.346110086     A.U. after    8 cycles
 Optimization completed.
    -- Stationary point found.

 1\1\GINC-NODE123\FOpt\RB3LYP\6-31G(d)\C9H14O4\VSC10255\09-Dec-2020\0\\
 # opt freq B3LYP/6-31G(d) empiricaldispersion=gd3bj scf=xqc\\CID_14350
 6100_JID_3168_neutraal\\0,1\C,1.3264673148,-0.2804641395,-0.0802398831
 \C,0.2724005732,0.022220097,-1.1167141463\O,-0.9142175676,-0.067833775
 6,-0.8812792939\C,0.7231768639,0.5431450335,-2.5160758916\C,-0.2250912
 42,-0.0212932412,-3.600720633\C,0.0195084028,0.6155465588,-4.972918785
 3\C,-0.1024318199,2.142791106,-4.9144377082\C,0.8214572787,2.733925972
 6,-3.8414138421\C,0.5656025291,2.1001693098,-2.4707103231\O,1.31635773

 Normal termination of Gaussian 16 at Wed Dec  9 22:31:50 2020.

 --------------------------------------------------------------------
 #N Geom=AllCheck Guess=TCheck SCRF=Check GenChk RB3LYP/6-31G(d) Freq
 --------------------------------------------------------------------

 Structure from the checkpoint file:  "JID_3168.chk"
 -------------------------------
 CID_143506100_JID_3168_neutraal
 -------------------------------
 Charge =  0 Multiplicity = 1

 SCF Done:  E(RB3LYP) =  -652.346110086     A.U. after    1 cycles

  Exact polarizability: 105.904  -1.543  99.457   1.470  -1.815  93.471
 Approx polarizability: 132.133  -1.081 161.840   2.068  -1.264 146.035

                      1                      2                      3
                      A                      A                      A
 Frequencies --     47.1802                57.0448               121.5409
 Red. masses --      5.9601                 5.8114                 3.7567
 Frc consts  --      0.0078                 0.0111                 0.0327
 IR Inten    --      4.8882                 2.3604                 1.4390

                      4                      5                      6
                      A                      A                      A
 Frequencies --    156.2220               170.7060               180.5914
 Red. masses --      4.8003                 5.0360                 2.5631
 Frc consts  --      0.0690                 0.0865                 0.0492
 IR Inten    --      0.2024                 1.1622                 0.1779

                      7                      8                      9
                      A                      A                      A
 Frequencies --    189.6761               257.0443               287.4171
 Red. masses --      1.1117                 5.6959                 2.1884
 Frc consts  --      0.0236                 0.2217                 0.1065
 IR Inten    --      0.0269                 4.9255                 1.9279

                     10                     11                     12
                      A                      A                      A
 Frequencies --    302.6897               344.3580               355.6785
 Red. masses --      5.2012                 3.9404                 2.6122
 Frc consts  --      0.2808                 0.2753                 0.1947
 IR Inten    --      0.5155                 1.7574                 1.8368

                     13                     14                     15
                      A                      A                      A
 Frequencies --    388.9856               410.6139               447.2692
 Red. masses --      3.6785                 3.1763                 3.5137
 Frc consts  --      0.3279                 0.3155                 0.4142
 IR Inten    --      3.2728                 0.6820                 1.7227

                     16                     17                     18
                      A                      A                      A
 Frequencies --    498.4190               513.0194               540.4682
 Red. masses --      3.2336                 1.2904                 1.8208
 Frc consts  --      0.4733                 0.2001                 0.3134
 IR Inten    --      9.0994               134.8491                36.3496

                     19                     20                     21
                      A                      A                      A
 Frequencies --    565.3087               607.2465               615.7787
 Red. masses --      2.5882                 2.8189                 1.6830
 Frc consts  --      0.4873                 0.6124                 0.3760
 IR Inten    --      1.7282                14.4743                97.0704

                     22                     23                     24
                      A                      A                      A
 Frequencies --    635.7359               701.5377               748.6809
 Red. masses --      2.6671                 3.1342                 3.6527
 Frc consts  --      0.6351                 0.9088                 1.2063
 IR Inten    --     16.4116                24.3124                14.4988

                     25                     26                     27
                      A                      A                      A
 Frequencies --    822.9824               848.0827               874.6155
 Red. masses --      1.7257                 2.4229                 2.3994
 Frc consts  --      0.6886                 1.0267                 1.0814
 IR Inten    --      3.5623                 2.7508                 8.8401

                     28                     29                     30
                      A                      A                      A
 Frequencies --    933.1087               941.9023               956.8974
 Red. masses --      1.8054                 2.1883                 1.8883
 Frc consts  --      0.9262                 1.1438                 1.0187
 IR Inten    --      1.0764                 9.6226                17.2187

                     31                     32                     33
                      A                      A                      A
 Frequencies --    986.3067              1028.2970              1051.8666
 Red. masses --      2.4792                 2.1737                 2.0513
 Frc consts  --      1.4210                 1.3542                 1.3372
 IR Inten    --      8.1910                10.8375                 8.7543

                     34                     35                     36
                      A                      A                      A
 Frequencies --   1083.6707              1091.5965              1103.9231
 Red. masses --      2.0846                 2.2241                 2.0990
 Frc consts  --      1.4423                 1.5615                 1.5071
 IR Inten    --     29.0338                11.8175                42.4605

                     37                     38                     39
                      A                      A                      A
 Frequencies --   1110.1976              1156.5866              1179.5140
 Red. masses --      3.7208                 2.4490                 1.8934
 Frc consts  --      2.7020                 1.9302                 1.5521
 IR Inten    --     71.6555                19.1953               101.3532

                     40                     41                     42
                      A                      A                      A
 Frequencies --   1189.7165              1226.1566              1243.6250
 Red. masses --      1.9460                 2.9851                 1.5676
 Frc consts  --      1.6228                 2.6443                 1.4284
 IR Inten    --     74.3724               170.9938                17.1046

                     43                     44                     45
                      A                      A                      A
 Frequencies --   1285.4249              1297.7821              1309.7873
 Red. masses --      1.3896                 1.3796                 1.3110
 Frc consts  --      1.3528                 1.3690                 1.3251
 IR Inten    --      4.1426                 9.4596                 1.5592

                     46                     47                     48
                      A                      A                      A
 Frequencies --   1350.6356              1377.5589              1388.5093
 Red. masses --      1.3150                 1.4186                 1.4337
 Frc consts  --      1.4134                 1.5861                 1.6286
 IR Inten    --      6.8442                 3.6574                 4.3670

                     49                     50                     51
                      A                      A                      A
 Frequencies --   1399.4957              1403.7444              1407.5156
 Red. masses --      1.4374                 1.3859                 1.4902
 Frc consts  --      1.6587                 1.6090                 1.7394
 IR Inten    --     14.5433                17.1581                 2.9338

                     52                     53                     54
                      A                      A                      A
 Frequencies --   1409.1769              1470.8335              1499.0276
 Red. masses --      1.5349                 1.1835                 1.0588
 Frc consts  --      1.7959                 1.5085                 1.4018
 IR Inten    --     34.1936                65.6141                11.9413

                     55                     56                     57
                      A                      A                      A
 Frequencies --   1507.0441              1514.5080              1522.1609
 Red. masses --      1.0505                 1.0886                 1.0868
 Frc consts  --      1.4057                 1.4712                 1.4836
 IR Inten    --     10.5126                 6.6273                 4.2274

                     58                     59                     60
                      A                      A                      A
 Frequencies --   1523.5120              1536.7929              1813.1326
 Red. masses --      1.0847                 1.0990                10.7394
 Frc consts  --      1.4833                 1.5293                20.8013
 IR Inten    --     10.8967                 3.6057               165.1818

                     61                     62                     63
                      A                      A                      A
 Frequencies --   1839.8252              3033.4915              3040.5666
 Red. masses --      9.9305                 1.0684                 1.0641
 Frc consts  --     19.8049                 5.7924                 5.7959
 IR Inten    --    185.1375                17.6206                18.6010

                     64                     65                     66
                      A                      A                      A
 Frequencies --   3043.4039              3061.6149              3078.1407
 Red. masses --      1.0624                 1.0363                 1.0842
 Frc consts  --      5.7977                 5.7233                 6.0525
 IR Inten    --     24.5772                 1.9454                18.0471

                     67                     68                     69
                      A                      A                      A
 Frequencies --   3081.3885              3084.4629              3092.7657
 Red. masses --      1.0874                 1.0942                 1.0795
 Frc consts  --      6.0834                 6.1335                 6.0838
 IR Inten    --     15.7556                34.9742                35.3075

                     70                     71                     72
                      A                      A                      A
 Frequencies --   3098.9330              3129.8190              3134.1571
 Red. masses --      1.0964                 1.0990                 1.1052
 Frc consts  --      6.2035                 6.3430                 6.3966
 IR Inten    --     49.8294                 2.5011                13.5214

                     73                     74                     75
                      A                      A                      A
 Frequencies --   3173.8744              3671.1414              3732.6258
 Red. masses --      1.1036                 1.0643                 1.0645
 Frc consts  --      6.5499                 8.4508                 8.7384
 IR Inten    --      9.2831                69.7141                41.1052

 - Thermochemistry -
 -------------------
 Temperature   298.150 Kelvin.  Pressure   1.00000 Atm.
 Atom     1 has atomic number  6 and mass  12.00000

 Molecular mass:   186.08921 amu.
 Principal axes and moments of inertia in atomic units:
                           1         2         3
     Eigenvalues --  1785.401682462.790052539.31623
           X            0.99938  -0.02801   0.02156
           Y            0.03235   0.97064  -0.23836
           Z           -0.01425   0.23891   0.97094
 This molecule is an asymmetric top.
 Rotational symmetry number  1.
 Warning -- assumption of classical behavior for rotation
           may cause significant error
 Rotational temperatures (Kelvin)      0.04851     0.03517     0.03411
 Rotational constants (GHZ):           1.01083     0.73280     0.71072
 Zero-point vibrational energy     599838.2 (Joules/Mol)
                                  143.36476 (Kcal/Mol)
 Warning -- explicit consideration of  21 degrees of freedom as
           vibrations may cause significant error
 Vibrational temperatures:     67.88    82.07   174.87   224.77   245.61
          (Kelvin)            259.83   272.90   369.83   413.53   435.50
                              495.45   511.74   559.66   590.78   643.52
                              717.11   738.12   777.61   813.35   873.69
                              885.97   914.68  1009.36  1077.18  1184.09
                             1220.20  1258.38  1342.54  1355.19  1376.76
                             1419.08  1479.49  1513.40  1559.16  1570.56
                             1588.30  1597.33  1664.07  1697.06  1711.74
                             1764.17  1789.30  1849.44  1867.22  1884.49
                             1943.26  1982.00  1997.76  2013.56  2019.68
                             2025.10  2027.49  2116.20  2156.77  2168.30
                             2179.04  2190.05  2191.99  2211.10  2608.69
                             2647.10  4364.52  4374.70  4378.78  4404.98
                             4428.76  4433.43  4437.85  4449.80  4458.67
                             4503.11  4509.35  4566.50  5281.95  5370.42

 Zero-point correction=                           0.228466 (Hartree/Particle)
 Thermal correction to Energy=                    0.241218
 Thermal correction to Enthalpy=                  0.242162
 Thermal correction to Gibbs Free Energy=         0.189802
 Sum of electronic and zero-point Energies=           -652.117644
 Sum of electronic and thermal Energies=              -652.104892
 Sum of electronic and thermal Enthalpies=            -652.103948
 Sum of electronic and thermal Free Energies=         -652.156308

                     E (Thermal)             CV                S
                      KCal/Mol        Cal/Mol-Kelvin    Cal/Mol-Kelvin
 Total                  151.367             49.239            110.201
 Electronic               0.000              0.000              0.000
 Translational            0.889              2.981             41.569
 Rotational               0.889              2.981             30.791
 Vibrational            149.589             43.277             37.841
 Vibration     1          0.595              1.979              4.932
 Vibration     2          0.596              1.975              4.557
 Vibration     3          0.609              1.931              3.076
 Vibration     4          0.620              1.896              2.595
 Vibration     5          0.626              1.879              2.428
 Vibration     6          0.630              1.866              2.322
 Vibration     7          0.633              1.854              2.231
 Vibration     8          0.667              1.751              1.682
 Vibration     9          0.685              1.697              1.489
 Vibration    10          0.694              1.669              1.402
 Vibration    11          0.723              1.587              1.192
 Vibration    12          0.731              1.564              1.141
 Vibration    13          0.757              1.494              1.004
 Vibration    14          0.775              1.447              0.924
 Vibration    15          0.806              1.367              0.804
 Vibration    16          0.854              1.254              0.662
 Vibration    17          0.868              1.221              0.626
 Vibration    18          0.896              1.161              0.564
 Vibration    19          0.921              1.106              0.513
 Vibration    20          0.966              1.016              0.437
 Vibration    21          0.975              0.999              0.423

 Optimization completed.
    -- Stationary point found.

 1\1\GINC-NODE123\Freq\RB3LYP\6-31G(d)\C9H14O4\VSC10255\09-Dec-2020\0\\
 #N Geom=AllCheck Guess=TCheck SCRF=Check GenChk RB3LYP/6-31G(d) Freq\\
 CID_143506100_JID_3168_neutraal\\0,1\C,1.3264673148,-0.2804641395,-0.0
 802398831\C,0.2724005732,0.022220097,-1.1167141463\O,-0.9142175676,-0.
 0678337756,-0.8812792939\C,0.7231768639,0.5431450335,-2.5160758916\C,-
 0.225091242,-0.0212932412,-3.600720633\C,0.0195084028,0.6155465588,-4.
 9729187853\C,-0.1024318199,2.142791106,-4.9144377082\C,0.8214572787,2.
 7339259726,-3.8414138421\C,0.5656025291,2.1001693098,-2.4707103231\O,1

 Normal termination of Gaussian 16 at Wed Dec  9 22:40:15 2020.

 ----------------------------------------------------------------------
 # B3LYP/6-311++G(d,p) empiricaldispersion=gd3bj scf=xqc pop=npa geom=c
 heck
 ----------------------------------------------------------------------

 ---------------------------------------
 CID_143506100_JID_3168_Energie_neutraal
 ---------------------------------------
 Structure from the checkpoint file:  "JID_3168.chk"
 Charge =  0 Multiplicity = 1

 SCF Done:  E(RB3LYP) =  -652.550919282     A.U. after   15 cycles
 Normal termination of Gaussian 16 at Wed Dec  9 22:44:00 2020.

 ----------------------------------------------------------------------
 # B3LYP/6-311++G(d,p) empiricaldispersion=gd3bj scf=xqc pop=npa geom=c
 heck
 ----------------------------------------------------------------------

 -------------------------------------
 CID_143506100_JID_3168_Energie_kation
 -------------------------------------
 Structure from the checkpoint file:  "JID_3168.chk"
 Charge =  1 Multiplicity = 2

 SCF Done:  E(UB3LYP) =  -652.215644589     A.U. after   23 cycles
 Normal termination of Gaussian 16 at Wed Dec  9 22:51:55 2020.
 Gaussian 16:  ES64L-G16RevA.03 25-Dec-2016

 ------------------------------------
 CID_143506100_JID_3168_Energie_anion
 ------------------------------------
 Structure from the checkpoint file:  "JID_3168.chk"
 Charge = -1 Multiplicity = 2

                         Standard orientation:
 ---------------------------------------------------------------------
 Center     Atomic      Atomic             Coordinates (Angstroms)
 Number     Number       Type             X           Y           Z
 ---------------------------------------------------------------------
      1          6           0       -2.821440   -0.244675   -0.062332
      2          6           0       -1.546617   -0.990619    0.246451
      3          8           0       -1.525233   -2.188576    0.436305
      4          6           0       -0.198583   -0.206031    0.245430
      5          6           0        0.729696   -0.784565    1.339895
      6          6           0        2.148924   -0.212346    1.258168
      7          6           0        2.768002   -0.438167   -0.126214
      8          6           0        1.866647    0.118533   -1.236185
      9          6           0        0.452556   -0.464266   -1.154765
     10          8           0       -0.371237   -0.065374   -2.239426
     11          6           0       -0.448435    1.263684    0.555465
     12          8           0       -0.539185    1.734988    1.666193
     13          8           0       -0.604440    2.054195   -0.549762
     14          1           0       -3.663369   -0.938487   -0.043184
     15          1           0       -2.728794    0.207744   -1.055357
     16          1           0       -2.987582    0.560885    0.662099
     17          1           0        0.745521   -1.869900    1.205624
     18          1           0        0.289262   -0.582888    2.320037
     19          1           0        2.770758   -0.677325    2.032128
     20          1           0        2.125350    0.862224    1.484243
     21          1           0        2.909511   -1.516126   -0.286956
     22          1           0        3.761838    0.021129   -0.183028
     23          1           0        2.271279   -0.116054   -2.227129
     24          1           0        1.813886    1.213548   -1.163022
     25          1           0        0.516244   -1.554348   -1.238977
     26          1           0       -0.437596    0.902601   -2.195379
     27          1           0       -0.770043    2.955837   -0.213058
 ---------------------------------------------------------------------

 SCF Done:  E(UB3LYP) =  -652.540868580     A.U. after   33 cycles
 SCF Done:  E(UB3LYP) =  -652.541627805     a.u. after    8 cycles

 The electronic state is 2-A.
 Alpha  occ. eigenvalues --  -19.06211 -19.01590 -19.00804 -19.00724 -10.19627
 Alpha  occ. eigenvalues --  -10.15468 -10.12653 -10.09723 -10.07021 -10.06778
 Alpha  occ. eigenvalues --  -10.06615 -10.06606 -10.06461  -1.00303  -0.94446
 Alpha  occ. eigenvalues --   -0.92406  -0.91158  -0.73968  -0.67710  -0.64043
 Alpha  occ. eigenvalues --   -0.63035  -0.55833  -0.52006  -0.51239  -0.46317
 Alpha  occ. eigenvalues --   -0.43802  -0.41692  -0.38679  -0.38089  -0.37471
 Alpha  occ. eigenvalues --   -0.35023  -0.34527  -0.34286  -0.32579  -0.32428
 Alpha  occ. eigenvalues --   -0.31662  -0.31087  -0.29883  -0.28536  -0.28186
 Alpha  occ. eigenvalues --   -0.26001  -0.25644  -0.23694  -0.23108  -0.22938
 Alpha  occ. eigenvalues --   -0.22124  -0.21295  -0.18269  -0.17102  -0.14666
 Alpha  occ. eigenvalues --    0.04734
 Alpha virt. eigenvalues --    0.06645   0.07146   0.08094   0.08697   0.09352
 Alpha virt. eigenvalues --    0.09837   0.10642   0.11109   0.11597   0.12227
 Alpha virt. eigenvalues --    0.12647   0.12929   0.13717   0.14128   0.15023

  Beta  occ. eigenvalues --  -19.06122 -19.01579 -19.00731 -19.00648 -10.19540
  Beta  occ. eigenvalues --  -10.15338 -10.12629 -10.09730 -10.07008 -10.06776
  Beta  occ. eigenvalues --  -10.06601 -10.06587 -10.06448  -1.00135  -0.94283
  Beta  occ. eigenvalues --   -0.92367  -0.91014  -0.73917  -0.67606  -0.63996
  Beta  occ. eigenvalues --   -0.62963  -0.55688  -0.51943  -0.51082  -0.46216
  Beta  occ. eigenvalues --   -0.43660  -0.41552  -0.38574  -0.37978  -0.37364
  Beta  occ. eigenvalues --   -0.34977  -0.34333  -0.34185  -0.32421  -0.32359
  Beta  occ. eigenvalues --   -0.31529  -0.31028  -0.29838  -0.28483  -0.28142
  Beta  occ. eigenvalues --   -0.25710  -0.25567  -0.23615  -0.23073  -0.22892
  Beta  occ. eigenvalues --   -0.21877  -0.21256  -0.18157  -0.17031  -0.14606
  Beta virt. eigenvalues --    0.07025   0.08073   0.08178   0.08643   0.08954
  Beta virt. eigenvalues --    0.10082   0.10354   0.10964   0.11358   0.12003
  Beta virt. eigenvalues --    0.12235   0.12899   0.13366   0.13834   0.14417

 Mulliken charges and spin densities:
               1          2
     1  C    0.244639  -0.774923
     2  C   -0.667464   0.685732
     3  O   -0.261840   0.019681
     4  C    0.647129   0.404826
     5  C   -0.450704  -0.016088
     6  C   -0.474410   0.160426
     7  C    0.394701  -0.874488
     8  C   -0.093612   0.032048
     9  C    0.288404  -0.959476
    10  O   -0.117447  -0.014077
    11  C    0.694538  -1.215741
    12  O   -0.310567   0.087038
    13  O   -0.354744   0.185849
    14  H   -0.031818   0.207421
    15  H    0.085115   0.088376
    16  H   -0.185822   0.390576
    17  H    0.116399   0.067166
    18  H    0.242015  -0.019559
    19  H   -0.212034   0.388562
    20  H    0.120785   0.038092
    21  H    0.193108  -0.083362
    22  H   -0.425504   0.596266
    23  H   -0.021406   0.191537
    24  H    0.038849   0.141380
    25  H    0.192513   0.043137
    26  H    0.122117   0.133070
    27  H   -0.772939   1.096529
 Sum of Mulliken charges =  -1.00000   1.00000

 Dipole moment (field-independent basis, Debye):
    X=              1.6481    Y=             -4.9982    Z=             -0.2086  Tot=              5.2670
 Quadrupole moment (field-independent basis, Debye-Ang):
   XX=           -121.8676   YY=           -130.1401   ZZ=           -108.0606
   XY=              3.4729   XZ=             -0.3128   YZ=              1.3438

 Summary of Natural Population Analysis:

                                       Natural Population
                Natural  -----------------------------------------------
    Atom  No    Charge         Core      Valence    Rydberg      Total
 -----------------------------------------------------------------------
      C    1   -0.34000      0.99961     2.33478    0.00561     3.34000
      C    2    0.32897      0.99964     1.64817    0.02322     2.67103
      O    3   -0.28605      0.99987     3.28003    0.00615     4.28605
      C    4   -0.13027      0.99944     2.11566    0.01517     3.13027
      C    5   -0.18812      0.99961     2.17907    0.00945     3.18812
      C    6   -0.19186      0.99962     2.18394    0.00829     3.19186
      C    7   -0.18978      0.99963     2.18162    0.00854     3.18978
      C    8   -0.20305      0.99960     2.19419    0.00926     3.20305
      C    9    0.07498      0.99951     1.91065    0.01487     2.92502
      O   10   -0.37757      0.99989     3.37162    0.00606     4.37757
      C   11    0.42447      0.99963     1.54894    0.02696     2.57553
      O   12   -0.29964      0.99987     3.29353    0.00624     4.29964
      O   13   -0.36473      0.99987     3.35605    0.00881     4.36473
      H   14    0.10719      0.00000     0.39189    0.00092     0.39281
      H   15    0.12078      0.00000     0.37796    0.00127     0.37922
      H   16    0.11696      0.00000     0.38134    0.00170     0.38304
      H   17    0.10726      0.00000     0.39149    0.00125     0.39274
      H   18    0.11081      0.00000     0.38827    0.00092     0.38919
      H   19    0.09968      0.00000     0.39937    0.00095     0.40032
      H   20    0.09955      0.00000     0.39923    0.00122     0.40045
      H   21    0.09091      0.00000     0.40792    0.00118     0.40909
      H   22    0.10041      0.00000     0.39844    0.00114     0.39959
      H   23    0.10229      0.00000     0.39677    0.00094     0.39771
      H   24    0.10133      0.00000     0.39699    0.00168     0.39867
      H   25    0.09129      0.00000     0.40683    0.00188     0.40871
      H   26    0.23990      0.00000     0.25644    0.00366     0.26010
      H   27    0.25431      0.00000     0.19726    0.04842     0.24569
 =======================================================================
   * Total *    0.00000     12.99579    36.78842    0.21579    50.00000

 Normal termination of Gaussian 16 at Thu Dec 10 00:06:01 2020.
