 Gaussian 16, Revision A.03,

 -----------------------------------------------------------
 # opt freq B3LYP/6-31G(d) empiricaldispersion=gd3bj scf=xqc
 -----------------------------------------------------------

 ------------------------------
 CID_83686619_JID_5963_neutraal
 ------------------------------
 Symbolic Z-matrix:
 Charge =  0 Multiplicity = 1

 SCF Done:  E(RB3LYP) =  -634.432045352     A.U. after   15 cycles
 SCF Done:  E(RB3LYP) =  -634.436617346     A.U. after   12 cycles
 SCF Done:  E(RB3LYP) =  -634.436213547     A.U. after   12 cycles
 SCF Done:  E(RB3LYP) =  -634.436935868     A.U. after   13 cycles
 SCF Done:  E(RB3LYP) =  -634.437265611     A.U. after   11 cycles
 SCF Done:  E(RB3LYP) =  -634.437281451     A.U. after   11 cycles
 SCF Done:  E(RB3LYP) =  -634.437290034     A.U. after   11 cycles
 SCF Done:  E(RB3LYP) =  -634.437297411     A.U. after   11 cycles
 SCF Done:  E(RB3LYP) =  -634.437300664     A.U. after   11 cycles
 SCF Done:  E(RB3LYP) =  -634.437304073     A.U. after   10 cycles
 SCF Done:  E(RB3LYP) =  -634.443484427     A.U. after   11 cycles
 SCF Done:  E(RB3LYP) =  -634.443500226     A.U. after   11 cycles
 SCF Done:  E(RB3LYP) =  -634.443519934     A.U. after   10 cycles
 SCF Done:  E(RB3LYP) =  -634.443520952     A.U. after    8 cycles
 SCF Done:  E(RB3LYP) =  -634.443521038     A.U. after    7 cycles
 Optimization completed.
    -- Stationary point found.
 Normal termination of Gaussian 16 at Thu Dec 10 17:54:38 2020.

 --------------------------------------------------------------------
 #N Geom=AllCheck Guess=TCheck SCRF=Check GenChk RB3LYP/6-31G(d) Freq
 --------------------------------------------------------------------

 Structure from the checkpoint file:  "JID_5963.chk"
 ------------------------------
 CID_83686619_JID_5963_neutraal
 ------------------------------
 Charge =  0 Multiplicity = 1

 SCF Done:  E(RB3LYP) =  -634.443521038     A.U. after    1 cycles

  Exact polarizability: 210.931  -2.974 136.238  -9.212  -9.030  88.663
 Approx polarizability: 318.282   0.862 240.792 -20.607 -23.542 128.046

                      1                      2                      3
                      A                      A                      A
 Frequencies --     30.4469                54.6801                66.0787
 Red. masses --      3.9181                 5.0998                 4.7927
 Frc consts  --      0.0021                 0.0090                 0.0123
 IR Inten    --      1.1624                 4.0873                 0.3242

                      4                      5                      6
                      A                      A                      A
 Frequencies --    132.8414               164.0553               176.9447
 Red. masses --      2.8206                 1.1392                 4.1675
 Frc consts  --      0.0293                 0.0181                 0.0769
 IR Inten    --      0.4669                 0.1087                 1.3858

                      7                      8                      9
                      A                      A                      A
 Frequencies --    227.9467               231.0647               243.6321
 Red. masses --      2.9232                 1.3681                 1.9124
 Frc consts  --      0.0895                 0.0430                 0.0669
 IR Inten    --      0.0292                 0.1342                 0.6242

                     10                     11                     12
                      A                      A                      A
 Frequencies --    258.8489               301.9061               320.1215
 Red. masses --      2.1056                 1.3698                 3.2882
 Frc consts  --      0.0831                 0.0736                 0.1985
 IR Inten    --      2.0099                 0.4184                 1.1125

                     13                     14                     15
                      A                      A                      A
 Frequencies --    348.6227               361.9821               427.7738
 Red. masses --      3.2736                 3.0275                 3.0022
 Frc consts  --      0.2344                 0.2337                 0.3237
 IR Inten    --      3.5932                 0.3260                 8.4257

                     16                     17                     18
                      A                      A                      A
 Frequencies --    456.9263               476.1612               498.2807
 Red. masses --      3.7949                 3.3178                 3.6324
 Frc consts  --      0.4668                 0.4432                 0.5314
 IR Inten    --      3.3340                 0.6853                 0.9521

                     19                     20                     21
                      A                      A                      A
 Frequencies --    572.0300               580.4492               609.6174
 Red. masses --      3.6051                 3.8708                 3.7427
 Frc consts  --      0.6950                 0.7684                 0.8195
 IR Inten    --      0.0073                 6.5822                 0.3294

                     22                     23                     24
                      A                      A                      A
 Frequencies --    623.3068               649.3468               672.4268
 Red. masses --      6.0893                 3.5310                 1.3969
 Frc consts  --      1.3939                 0.8772                 0.3721
 IR Inten    --      0.3236                 6.3261                16.3385

                     25                     26                     27
                      A                      A                      A
 Frequencies --    703.7815               735.8245               742.1300
 Red. masses --      2.1653                 1.9981                 1.8474
 Frc consts  --      0.6319                 0.6374                 0.5995
 IR Inten    --      3.9672                 2.1385                27.5085

                     28                     29                     30
                      A                      A                      A
 Frequencies --    752.5200               784.7891               823.5552
 Red. masses --      2.8706                 1.6661                 3.0547
 Frc consts  --      0.9578                 0.6046                 1.2207
 IR Inten    --      4.0779                44.9795                 3.4167

                     31                     32                     33
                      A                      A                      A
 Frequencies --    834.6469               914.9098               920.7955
 Red. masses --      1.4796                 2.9132                 1.2893
 Frc consts  --      0.6073                 1.4367                 0.6441
 IR Inten    --      3.0080                 1.5763                 0.4902

                     34                     35                     36
                      A                      A                      A
 Frequencies --    923.9524               964.3898               966.1875
 Red. masses --      4.5583                 1.2393                 1.6469
 Frc consts  --      2.2927                 0.6791                 0.9058
 IR Inten    --      0.3319                 0.1044                 2.5777

                     37                     38                     39
                      A                      A                      A
 Frequencies --    973.9769               993.3809              1040.5210
 Red. masses --      1.6534                 2.9984                 2.0986
 Frc consts  --      0.9241                 1.7433                 1.3387
 IR Inten    --     18.1621                 2.3982                 0.6014

                     40                     41                     42
                      A                      A                      A
 Frequencies --   1043.5451              1061.5837              1133.7242
 Red. masses --      1.5670                 1.6500                 1.4555
 Frc consts  --      1.0054                 1.0955                 1.1022
 IR Inten    --      0.1068                 7.8476                 6.7965

                     43                     44                     45
                      A                      A                      A
 Frequencies --   1157.7466              1159.9200              1178.2898
 Red. masses --      1.6401                 2.0505                 1.2088
 Frc consts  --      1.2953                 1.6254                 0.9888
 IR Inten    --     11.1003                54.2434                 6.7258

                     46                     47                     48
                      A                      A                      A
 Frequencies --   1197.5144              1232.2397              1242.2192
 Red. masses --      1.9707                 1.7495                 2.2033
 Frc consts  --      1.6651                 1.5651                 2.0032
 IR Inten    --      2.1553                 5.4622                18.6249

                     49                     50                     51
                      A                      A                      A
 Frequencies --   1274.4605              1285.8622              1324.8619
 Red. masses --      3.1454                 2.0322                 4.8665
 Frc consts  --      3.0101                 1.9797                 5.0328
 IR Inten    --     34.4007                 7.0995                73.4459

                     52                     53                     54
                      A                      A                      A
 Frequencies --   1393.0507              1396.8359              1409.5724
 Red. masses --      2.9341                 2.1223                 1.3053
 Frc consts  --      3.3548                 2.4398                 1.5281
 IR Inten    --      3.7048                15.3412                34.9134

                     55                     56                     57
                      A                      A                      A
 Frequencies --   1424.2241              1427.8819              1447.7157
 Red. masses --      1.8807                 1.9785                 1.2469
 Frc consts  --      2.2476                 2.3767                 1.5397
 IR Inten    --     11.9939                 8.8897                 6.1408

                     58                     59                     60
                      A                      A                      A
 Frequencies --   1496.0719              1507.1312              1508.0043
 Red. masses --      1.0522                 1.0759                 2.6673
 Frc consts  --      1.3876                 1.4398                 3.5738
 IR Inten    --      7.9961                 2.2410                 7.5303

                     61                     62                     63
                      A                      A                      A
 Frequencies --   1513.9965              1517.1644              1533.7705
 Red. masses --      1.1094                 1.0675                 1.0963
 Frc consts  --      1.4983                 1.4477                 1.5196
 IR Inten    --      1.2068                 3.3905                 6.7432

                     64                     65                     66
                      A                      A                      A
 Frequencies --   1539.5104              1546.7151              1566.4637
 Red. masses --      1.3578                 2.0220                 4.5032
 Frc consts  --      1.8960                 2.8500                 6.5104
 IR Inten    --      3.4101                15.0461                 5.8643

                     67                     68                     69
                      A                      A                      A
 Frequencies --   1594.2035              1696.1135              1802.9804
 Red. masses --      4.7631                 5.8218                11.0639
 Frc consts  --      7.1323                 9.8678                21.1905
 IR Inten    --      3.3490                 4.0118               165.0751

                     70                     71                     72
                      A                      A                      A
 Frequencies --   3055.2246              3057.9068              3063.8586
 Red. masses --      1.0372                 1.0381                 1.0366
 Frc consts  --      5.7043                 5.7190                 5.7331
 IR Inten    --      3.9075                15.0506                31.6453

                     73                     74                     75
                      A                      A                      A
 Frequencies --   3121.6177              3125.1061              3130.0735
 Red. masses --      1.1029                 1.0947                 1.1029
 Frc consts  --      6.3318                 6.2992                 6.3663
 IR Inten    --      6.4995                 9.8388                51.1258

                     76                     77                     78
                      A                      A                      A
 Frequencies --   3135.8346              3157.7758              3167.3127
 Red. masses --      1.1018                 1.1005                 1.1044
 Frc consts  --      6.3837                 6.4655                 6.5278
 IR Inten    --     24.9630                16.3879                11.9315

                     79                     80                     81
                      A                      A                      A
 Frequencies --   3203.4056              3216.7001              3224.9103
 Red. masses --      1.0862                 1.0909                 1.0929
 Frc consts  --      6.5674                 6.6504                 6.6969
 IR Inten    --      0.5197                10.2021                11.8340

                     82                     83                     84
                      A                      A                      A
 Frequencies --   3240.4396              3271.1604              3278.8976
 Red. masses --      1.0978                 1.0946                 1.0960
 Frc consts  --      6.7915                 6.9008                 6.9425
 IR Inten    --      9.2068                 2.2654                 0.5773

 - Thermochemistry -
 -------------------
 Temperature   298.150 Kelvin.  Pressure   1.00000 Atm.
 Atom     1 has atomic number  6 and mass  12.00000

 Molecular mass:   201.11536 amu.
 Principal axes and moments of inertia in atomic units:
                           1         2         3
     Eigenvalues --  1344.327275057.436965394.98073
           X            0.99988  -0.01547  -0.00134
           Y            0.01543   0.99959  -0.02411
           Z            0.00171   0.02409   0.99971
 This molecule is an asymmetric top.
 Rotational symmetry number  1.
 Warning -- assumption of classical behavior for rotation
           may cause significant error
 Rotational temperatures (Kelvin)      0.06443     0.01713     0.01605
 Rotational constants (GHZ):           1.34249     0.35685     0.33452
 Zero-point vibrational energy     661681.1 (Joules/Mol)
                                  158.14559 (Kcal/Mol)
 Warning -- explicit consideration of  21 degrees of freedom as
           vibrations may cause significant error
 Vibrational temperatures:     43.81    78.67    95.07   191.13   236.04
          (Kelvin)            254.58   327.96   332.45   350.53   372.43
                              434.38   460.58   501.59   520.81   615.47
                              657.42   685.09   716.91   823.02   835.14
                              877.10   896.80   934.27   967.47  1012.58
                             1058.69  1067.76  1082.71  1129.14  1184.91
                             1200.87  1316.35  1324.82  1329.36  1387.54
                             1390.13  1401.34  1429.25  1497.08  1501.43
                             1527.38  1631.18  1665.74  1668.87  1695.30
                             1722.96  1772.92  1787.28  1833.66  1850.07
                             1906.18  2004.29  2009.74  2028.06  2049.14
                             2054.40  2082.94  2152.51  2168.43  2169.68
                             2178.30  2182.86  2206.75  2215.01  2225.38
                             2253.79  2293.70  2440.33  2594.09  4395.79
                             4399.65  4408.21  4491.31  4496.33  4503.48
                             4511.77  4543.34  4557.06  4608.99  4628.11
                             4639.93  4662.27  4706.47  4717.60

 Zero-point correction=                           0.252021 (Hartree/Particle)
 Thermal correction to Energy=                    0.265968
 Thermal correction to Enthalpy=                  0.266912
 Thermal correction to Gibbs Free Energy=         0.211162
 Sum of electronic and zero-point Energies=           -634.191500
 Sum of electronic and thermal Energies=              -634.177553
 Sum of electronic and thermal Enthalpies=            -634.176609
 Sum of electronic and thermal Free Energies=         -634.232359

                     E (Thermal)             CV                S
                      KCal/Mol        Cal/Mol-Kelvin    Cal/Mol-Kelvin
 Total                  166.897             54.676            117.335
 Electronic               0.000              0.000              0.000
 Translational            0.889              2.981             41.801
 Rotational               0.889              2.981             31.973
 Vibrational            165.120             48.714             43.561
 Vibration     1          0.594              1.984              5.800
 Vibration     2          0.596              1.976              4.641
 Vibration     3          0.597              1.970              4.267
 Vibration     4          0.613              1.921              2.904
 Vibration     5          0.623              1.887              2.503
 Vibration     6          0.628              1.871              2.360
 Vibration     7          0.651              1.798              1.895
 Vibration     8          0.653              1.794              1.871
 Vibration     9          0.659              1.773              1.776
 Vibration    10          0.668              1.748              1.670
 Vibration    11          0.694              1.670              1.406
 Vibration    12          0.706              1.635              1.309
 Vibration    13          0.726              1.578              1.172
 Vibration    14          0.736              1.551              1.114
 Vibration    15          0.789              1.410              0.866
 Vibration    16          0.815              1.346              0.775
 Vibration    17          0.833              1.303              0.720
 Vibration    18          0.854              1.254              0.662
 Vibration    19          0.928              1.092              0.500
 Vibration    20          0.937              1.074              0.485
 Vibration    21          0.969              1.011              0.433

 Optimization completed.
    -- Stationary point found.
 Normal termination of Gaussian 16 at Thu Dec 10 18:03:58 2020.

 ----------------------------------------------------------------------
 # B3LYP/6-311++G(d,p) empiricaldispersion=gd3bj scf=xqc pop=npa geom=c
 heck
 ----------------------------------------------------------------------

 --------------------------------------
 CID_83686619_JID_5963_Energie_neutraal
 --------------------------------------
 Structure from the checkpoint file:  "JID_5963.chk"
 Charge =  0 Multiplicity = 1

 SCF Done:  E(RB3LYP) =  -634.613153537     A.U. after   15 cycles
 Normal termination of Gaussian 16 at Thu Dec 10 18:08:22 2020.

 ----------------------------------------------------------------------
 # B3LYP/6-311++G(d,p) empiricaldispersion=gd3bj scf=xqc pop=npa geom=c
 heck
 ----------------------------------------------------------------------

 ------------------------------------
 CID_83686619_JID_5963_Energie_kation
 ------------------------------------
 Structure from the checkpoint file:  "JID_5963.chk"
 Charge =  1 Multiplicity = 2

 SCF Done:  E(UB3LYP) =  -634.348019874     A.U. after   24 cycles
 Normal termination of Gaussian 16 at Thu Dec 10 18:18:18 2020.
 Gaussian 16:  ES64L-G16RevA.03 25-Dec-2016

 ----------------------------------------------------------------------
 # B3LYP/6-311++G(d,p) empiricaldispersion=gd3bj scf=xqc pop=npa geom=c
 heck
 ----------------------------------------------------------------------

 -----------------------------------
 CID_83686619_JID_5963_Energie_anion
 -----------------------------------
 Structure from the checkpoint file:  "JID_5963.chk"
 Charge = -1 Multiplicity = 2

                         Standard orientation:
 ---------------------------------------------------------------------
 Center     Atomic      Atomic             Coordinates (Angstroms)
 Number     Number       Type             X           Y           Z
 ---------------------------------------------------------------------
      1          6           0        2.476469    0.305926    2.041227
      2          6           0        2.577204    0.642286    0.563547
      3          8           0        3.068993    1.690249    0.188187
      4          6           0        2.000630   -0.382323   -0.440956
      5          6           0        2.418316    0.003275   -1.870000
      6          6           0        2.514736   -1.796552   -0.116297
      7          6           0        0.491642   -0.295310   -0.289560
      8          6           0       -0.236669    0.883694   -0.423372
      9          7           0       -1.562810    0.597991   -0.212017
     10          6           0       -2.653107    1.437159   -0.240317
     11          6           0       -3.900151    0.942572    0.001829
     12          6           0       -4.082908   -0.443541    0.284751
     13          6           0       -2.998630   -1.283605    0.314932
     14          6           0       -1.698294   -0.783864    0.068010
     15          6           0       -0.417480   -1.333581    0.024105
     16          1           0        2.597476    1.219211    2.627006
     17          1           0        3.278551   -0.390847    2.315092
     18          1           0        1.523369   -0.175390    2.278969
     19          1           0        3.506666   -0.047545   -1.980560
     20          1           0        1.957206   -0.682598   -2.587713
     21          1           0        2.108039    1.022088   -2.109325
     22          1           0        2.212044   -2.129829    0.880352
     23          1           0        2.120135   -2.513002   -0.844236
     24          1           0        3.608176   -1.828286   -0.173263
     25          1           0        0.090248    1.889387   -0.641849
     26          1           0       -2.443251    2.476748   -0.462281
     27          1           0       -4.747671    1.618164   -0.024916
     28          1           0       -5.080227   -0.826043    0.474802
     29          1           0       -3.109651   -2.342065    0.527803
     30          1           0       -0.183938   -2.374755    0.191348
 ---------------------------------------------------------------------

 SCF Done:  E(UB3LYP) =  -634.603783210     A.U. after   33 cycles
 SCF Done:  E(UB3LYP) =  -634.603783210     a.u. after    1 cycles

 The electronic state is 2-A.
 Alpha  occ. eigenvalues --  -18.98606 -14.25322 -10.13186 -10.08094 -10.07943
 Alpha  occ. eigenvalues --  -10.07837 -10.06688 -10.05939 -10.05608 -10.05180
 Alpha  occ. eigenvalues --  -10.05011 -10.04536 -10.04406 -10.04143 -10.03066
 Alpha  occ. eigenvalues --   -0.92201  -0.87868  -0.72644  -0.69563  -0.67524
 Alpha  occ. eigenvalues --   -0.62603  -0.61067  -0.58539  -0.57258  -0.52702
 Alpha  occ. eigenvalues --   -0.50122  -0.47319  -0.45449  -0.40272  -0.39429
 Alpha  occ. eigenvalues --   -0.36883  -0.35899  -0.35356  -0.33654  -0.33122
 Alpha  occ. eigenvalues --   -0.32414  -0.31917  -0.31496  -0.30129  -0.29518
 Alpha  occ. eigenvalues --   -0.28735  -0.27725  -0.27242  -0.25294  -0.25051
 Alpha  occ. eigenvalues --   -0.24348  -0.23589  -0.22637  -0.22480  -0.20268
 Alpha  occ. eigenvalues --   -0.18004  -0.13513  -0.10720  -0.07096   0.05111
 Alpha virt. eigenvalues --    0.07187   0.07629   0.08548   0.08860   0.09061
 Alpha virt. eigenvalues --    0.09462   0.09660   0.10819   0.11447   0.11565
 Alpha virt. eigenvalues --    0.12266   0.12596   0.12881   0.14090   0.14215

  Beta  occ. eigenvalues --  -18.98456 -14.25219 -10.13046 -10.08135 -10.07957
  Beta  occ. eigenvalues --  -10.07573 -10.06720 -10.05943 -10.05573 -10.05144
  Beta  occ. eigenvalues --  -10.05028 -10.04514 -10.04295 -10.03923 -10.03004
  Beta  occ. eigenvalues --   -0.91917  -0.87665  -0.72496  -0.69356  -0.67264
  Beta  occ. eigenvalues --   -0.62501  -0.60934  -0.58378  -0.57153  -0.52503
  Beta  occ. eigenvalues --   -0.49854  -0.47165  -0.45265  -0.40110  -0.39279
  Beta  occ. eigenvalues --   -0.36736  -0.35739  -0.35264  -0.33489  -0.32944
  Beta  occ. eigenvalues --   -0.32133  -0.31780  -0.31152  -0.30052  -0.29467
  Beta  occ. eigenvalues --   -0.28669  -0.27667  -0.27190  -0.25158  -0.24867
  Beta  occ. eigenvalues --   -0.24087  -0.23465  -0.22440  -0.22283  -0.19611
  Beta  occ. eigenvalues --   -0.17135  -0.13318  -0.10347  -0.06466
  Beta virt. eigenvalues --    0.07282   0.07759   0.08693   0.08737   0.09376
  Beta virt. eigenvalues --    0.09710   0.09833   0.10443   0.11008   0.11661
  Beta virt. eigenvalues --    0.11695   0.12385   0.12651   0.12997   0.14186

 Mulliken charges and spin densities:
               1          2
     1  C   -0.343605  -0.297558
     2  C   -0.193638   0.182942
     3  O   -0.263571   0.052696
     4  C   -0.770938   1.129096
     5  C   -0.226697  -0.337397
     6  C    0.632654  -1.179818
     7  C    0.926810  -0.866265
     8  C    0.341561  -0.313309
     9  N    0.291526   0.057393
    10  C   -0.334139   0.633890
    11  C    0.210049  -0.559039
    12  C   -0.078977  -0.312720
    13  C   -1.228790   0.941354
    14  C    0.015184  -0.024283
    15  C    0.125791  -0.402155
    16  H    0.105247   0.046852
    17  H    0.118957   0.041820
    18  H    0.094543   0.090813
    19  H    0.050955   0.087354
    20  H    0.045783   0.090550
    21  H    0.022868   0.137706
    22  H   -0.065562   0.196027
    23  H   -0.076007   0.216595
    24  H   -0.184766   0.344612
    25  H    0.146638   0.040228
    26  H   -0.073462   0.169984
    27  H   -0.056880   0.196340
    28  H   -0.036973   0.156880
    29  H   -0.141669   0.258570
    30  H   -0.052890   0.220842
 Sum of Mulliken charges =  -1.00000   1.00000

 Dipole moment (field-independent basis, Debye):
    X=              0.4903    Y=              0.2991    Z=              0.8899  Tot=              1.0591
 Quadrupole moment (field-independent basis, Debye-Ang):
   XX=           -153.0561   YY=           -118.9006   ZZ=           -111.7667
   XY=             -3.5271   XZ=              3.5601   YZ=             -0.6804

 Summary of Natural Population Analysis:

                                       Natural Population
                Natural  -----------------------------------------------
    Atom  No    Charge         Core      Valence    Rydberg      Total
 -----------------------------------------------------------------------
      C    1   -0.33773      0.99961     2.33272    0.00539     3.33773
      C    2    0.32264      0.99964     1.65433    0.02340     2.67736
      O    3   -0.28702      0.99987     3.28002    0.00713     4.28702
      C    4   -0.08655      0.99949     2.07498    0.01208     3.08655
      C    5   -0.27625      0.99964     2.26974    0.00687     3.27625
      C    6   -0.28457      0.99965     2.27686    0.00807     3.28457
      C    7   -0.03082      0.99951     2.01875    0.01256     3.03082
      C    8   -0.04118      0.99950     2.03070    0.01097     3.04118
      N    9   -0.16524      0.99962     2.65719    0.00843     3.66524
      C   10    0.05864      0.99955     1.93058    0.01122     2.94136
      C   11   -0.14103      0.99958     2.13119    0.01026     3.14103
      C   12   -0.09805      0.99957     2.08713    0.01135     3.09805
      C   13   -0.07281      0.99953     2.06398    0.00930     3.07281
      C   14    0.06824      0.99954     1.92105    0.01116     2.93176
      C   15   -0.14919      0.99946     2.14074    0.00898     3.14919
      H   16    0.10598      0.00000     0.39242    0.00160     0.39402
      H   17    0.10630      0.00000     0.39255    0.00115     0.39370
      H   18    0.11326      0.00000     0.38573    0.00101     0.38674
      H   19    0.09723      0.00000     0.40178    0.00099     0.40277
      H   20    0.09787      0.00000     0.40122    0.00091     0.40213
      H   21    0.10668      0.00000     0.39225    0.00106     0.39332
      H   22    0.10190      0.00000     0.39693    0.00117     0.39810
      H   23    0.10337      0.00000     0.39547    0.00116     0.39663
      H   24    0.09912      0.00000     0.39995    0.00092     0.40088
      H   25    0.10242      0.00000     0.39654    0.00104     0.39758
      H   26    0.09201      0.00000     0.40707    0.00092     0.40799
      H   27    0.09874      0.00000     0.40050    0.00076     0.40126
      H   28    0.09411      0.00000     0.40511    0.00078     0.40589
      H   29    0.09750      0.00000     0.40161    0.00089     0.40250
      H   30    0.10441      0.00000     0.39465    0.00093     0.39559
 =======================================================================
   * Total *    0.00000     14.99376    38.83375    0.17249    54.00000

 Normal termination of Gaussian 16 at Thu Dec 10 18:31:41 2020.
