 Gaussian 16, Revision A.03,

 -----------------------------------------------------------
 # opt freq B3LYP/6-31G(d) empiricaldispersion=gd3bj scf=xqc
 -----------------------------------------------------------

 ------------------------------
 CID_77110288_JID_2842_neutraal
 ------------------------------
 Symbolic Z-matrix:
 Charge =  0 Multiplicity = 1

 SCF Done:  E(RB3LYP) =  -845.469650141     A.U. after   13 cycles
 SCF Done:  E(RB3LYP) =  -845.474068360     A.U. after   11 cycles
 SCF Done:  E(RB3LYP) =  -845.471117982     A.U. after   14 cycles
 SCF Done:  E(RB3LYP) =  -845.474335442     A.U. after   11 cycles
 SCF Done:  E(RB3LYP) =  -845.474683233     A.U. after   11 cycles
 SCF Done:  E(RB3LYP) =  -845.475011450     A.U. after   11 cycles
 SCF Done:  E(RB3LYP) =  -845.475096689     A.U. after   10 cycles
 SCF Done:  E(RB3LYP) =  -845.475171101     A.U. after   10 cycles
 SCF Done:  E(RB3LYP) =  -845.475195321     A.U. after   10 cycles
 SCF Done:  E(RB3LYP) =  -845.475205032     A.U. after    9 cycles
 SCF Done:  E(RB3LYP) =  -845.475749902     A.U. after    7 cycles
 SCF Done:  E(RB3LYP) =  -845.475750406     A.U. after    8 cycles
 SCF Done:  E(RB3LYP) =  -845.475750540     A.U. after    7 cycles
 SCF Done:  E(RB3LYP) =  -845.475750588     A.U. after    8 cycles
 SCF Done:  E(RB3LYP) =  -845.475750593     A.U. after    5 cycles
 Optimization completed.
    -- Stationary point found.
 Normal termination of Gaussian 16 at Wed Dec  9 18:34:00 2020.

 --------------------------------------------------------------------
 #N Geom=AllCheck Guess=TCheck SCRF=Check GenChk RB3LYP/6-31G(d) Freq
 --------------------------------------------------------------------

 Structure from the checkpoint file:  "JID_2842.chk"
 ------------------------------
 CID_77110288_JID_2842_neutraal
 ------------------------------
 Charge =  0 Multiplicity = 1

 SCF Done:  E(RB3LYP) =  -845.475750593     A.U. after    1 cycles

  Exact polarizability: 136.107   2.296 139.528  -4.701  -1.211 107.476
 Approx polarizability: 173.454   7.671 208.751 -10.498  -5.552 161.410

                      1                      2                      3
                      A                      A                      A
 Frequencies --     21.0397                23.4729                38.3248
 Red. masses --      2.1238                 2.8598                 3.2650
 Frc consts  --      0.0006                 0.0009                 0.0028
 IR Inten    --      0.0965                 0.4528                 0.4166

                      4                      5                      6
                      A                      A                      A
 Frequencies --     59.8532                89.1760               133.2566
 Red. masses --      2.8239                 3.2338                 2.9734
 Frc consts  --      0.0060                 0.0152                 0.0311
 IR Inten    --      1.0513                 0.4408                 0.3452

                      7                      8                      9
                      A                      A                      A
 Frequencies --    143.8969               158.6942               191.3631
 Red. masses --      2.8659                 2.7491                 2.7550
 Frc consts  --      0.0350                 0.0408                 0.0594
 IR Inten    --      4.6123                 6.6726                 5.2395

                     10                     11                     12
                      A                      A                      A
 Frequencies --    232.2450               265.3679               302.8354
 Red. masses --      2.1791                 2.3194                 1.2411
 Frc consts  --      0.0692                 0.0962                 0.0671
 IR Inten    --      3.8638                12.4276                46.7470

                     13                     14                     15
                      A                      A                      A
 Frequencies --    348.9110               362.0485               412.8054
 Red. masses --      3.6470                 4.3919                 1.8342
 Frc consts  --      0.2616                 0.3392                 0.1842
 IR Inten    --      0.1633                 4.2871                 0.2996

                     16                     17                     18
                      A                      A                      A
 Frequencies --    446.8389               507.9973               557.6577
 Red. masses --      2.7508                 2.4441                 2.6435
 Frc consts  --      0.3236                 0.3716                 0.4844
 IR Inten    --     17.4069                 0.1724                 1.5018

                     19                     20                     21
                      A                      A                      A
 Frequencies --    625.2249               675.7152               738.3166
 Red. masses --      2.5700                 4.5487                 5.3248
 Frc consts  --      0.5919                 1.2237                 1.7102
 IR Inten    --      0.4516                 9.0822                 7.2238

                     22                     23                     24
                      A                      A                      A
 Frequencies --    777.5672               812.7184               834.4242
 Red. masses --      1.2416                 1.7631                 1.5675
 Frc consts  --      0.4423                 0.6861                 0.6430
 IR Inten    --      0.3476                 2.4705                49.8510

                     25                     26                     27
                      A                      A                      A
 Frequencies --    845.6964               881.6661               886.3137
 Red. masses --      1.5539                 1.5308                 1.9960
 Frc consts  --      0.6548                 0.7011                 0.9238
 IR Inten    --      1.6689                39.9177                43.9676

                     28                     29                     30
                      A                      A                      A
 Frequencies --    899.2995               907.3776               949.9836
 Red. masses --      2.3675                 2.0444                 1.5644
 Frc consts  --      1.1281                 0.9917                 0.8318
 IR Inten    --      9.1319                 2.7937                 3.4308

                     31                     32                     33
                      A                      A                      A
 Frequencies --    971.7004               986.4933              1006.5585
 Red. masses --      2.0869                 1.4124                 1.3524
 Frc consts  --      1.1610                 0.8098                 0.8073
 IR Inten    --      3.2734                 1.3741                 2.5900

                     34                     35                     36
                      A                      A                      A
 Frequencies --   1013.5875              1036.0574              1051.5057
 Red. masses --      1.1569                 3.3273                 2.3558
 Frc consts  --      0.7003                 2.1043                 1.5347
 IR Inten    --     30.9473                 2.8745                 0.9680

                     37                     38                     39
                      A                      A                      A
 Frequencies --   1084.2381              1095.1481              1124.7355
 Red. masses --      2.0938                 2.3604                 2.6038
 Frc consts  --      1.4502                 1.6680                 1.9407
 IR Inten    --      3.1816                 7.1018                 2.2003

                     40                     41                     42
                      A                      A                      A
 Frequencies --   1139.8533              1165.3529              1176.8937
 Red. masses --      1.9801                 1.2330                 1.1557
 Frc consts  --      1.5158                 0.9866                 0.9431
 IR Inten    --      9.9534                 6.1600                 1.3617

                     43                     44                     45
                      A                      A                      A
 Frequencies --   1218.6075              1223.9619              1231.2105
 Red. masses --      1.4317                 1.3969                 1.3473
 Frc consts  --      1.2526                 1.2330                 1.2033
 IR Inten    --      0.9618                 2.5956                 1.4695

                     46                     47                     48
                      A                      A                      A
 Frequencies --   1259.7713              1269.0436              1281.0573
 Red. masses --      1.2417                 1.2341                 1.3433
 Frc consts  --      1.1611                 1.1710                 1.2988
 IR Inten    --      7.3427                 3.0666                 4.6034

                     49                     50                     51
                      A                      A                      A
 Frequencies --   1304.2023              1308.9986              1319.6466
 Red. masses --      1.1755                 1.2429                 1.3023
 Frc consts  --      1.1781                 1.2548                 1.3363
 IR Inten    --      4.2833                 7.8143                 1.9470

                     52                     53                     54
                      A                      A                      A
 Frequencies --   1335.0166              1341.2780              1352.2636
 Red. masses --      1.2777                 1.2683                 1.2970
 Frc consts  --      1.3417                 1.3443                 1.3973
 IR Inten    --      0.7514                 2.3469                 3.0742

                     55                     56                     57
                      A                      A                      A
 Frequencies --   1361.8587              1365.8331              1371.0855
 Red. masses --      1.3288                 1.2102                 1.3775
 Frc consts  --      1.4520                 1.3302                 1.5258
 IR Inten    --      0.3602                 2.6197                 0.9794

                     58                     59                     60
                      A                      A                      A
 Frequencies --   1413.2300              1438.0675              1492.7596
 Red. masses --      1.5325                 1.4330                 1.0907
 Frc consts  --      1.8033                 1.7460                 1.4320
 IR Inten    --      0.6003                23.1552                 3.2388

                     61                     62                     63
                      A                      A                      A
 Frequencies --   1498.0944              1516.0147              1525.8199
 Red. masses --      1.1082                 1.0770                 1.0874
 Frc consts  --      1.4654                 1.4584                 1.4915
 IR Inten    --      5.5922                 0.2495                 2.6436

                     64                     65                     66
                      A                      A                      A
 Frequencies --   1527.1490              1531.0785              1549.9776
 Red. masses --      1.0893                 1.0896                 1.1043
 Frc consts  --      1.4968                 1.5049                 1.5631
 IR Inten    --      1.9015                 0.2680                 0.7667

                     67                     68                     69
                      A                      A                      A
 Frequencies --   1692.0109              1747.4105              2966.2852
 Red. masses --      1.0985                 5.6987                 1.0711
 Frc consts  --      1.8529                10.2521                 5.5527
 IR Inten    --     30.0133                 0.8518                76.6754

                     70                     71                     72
                      A                      A                      A
 Frequencies --   3026.6560              3036.0567              3043.5810
 Red. masses --      1.0809                 1.0674                 1.0690
 Frc consts  --      5.8339                 5.7971                 5.8344
 IR Inten    --      3.5225                18.3343                47.0297

                     73                     74                     75
                      A                      A                      A
 Frequencies --   3044.1186              3054.0649              3057.6873
 Red. masses --      1.0887                 1.0641                 1.0597
 Frc consts  --      5.9441                 5.8478                 5.8373
 IR Inten    --     30.8103                29.4027                33.6010

                     76                     77                     78
                      A                      A                      A
 Frequencies --   3069.7170              3073.4265              3087.6261
 Red. masses --      1.0638                 1.0622                 1.0986
 Frc consts  --      5.9064                 5.9114                 6.1709
 IR Inten    --     50.3611                15.9821                25.0237

                     79                     80                     81
                      A                      A                      A
 Frequencies --   3099.3532              3105.9251              3108.4275
 Red. masses --      1.0987                 1.1037                 1.0998
 Frc consts  --      6.2181                 6.2729                 6.2611
 IR Inten    --     12.4334                16.2454                12.7857

                     82                     83                     84
                      A                      A                      A
 Frequencies --   3117.4157              3132.6905              3156.0371
 Red. masses --      1.1051                 1.1005                 1.0931
 Frc consts  --      6.3279                 6.3632                 6.4150
 IR Inten    --     82.6973                 3.7593                 4.0446

                     85                     86                     87
                      A                      A                      A
 Frequencies --   3162.6353              3462.0844              3550.6398
 Red. masses --      1.0865                 1.0495                 1.0928
 Frc consts  --      6.4027                 7.4113                 8.1172
 IR Inten    --     34.2815                 4.4690                 1.8243

 - Thermochemistry -
 -------------------
 Temperature   298.150 Kelvin.  Pressure   1.00000 Atm.
 Atom     1 has atomic number  6 and mass  12.00000

 Molecular mass:   185.12382 amu.
 Principal axes and moments of inertia in atomic units:
                           1         2         3
     Eigenvalues --  2078.590963699.882824873.29710
           X            0.99999  -0.00010   0.00440
           Y            0.00001   0.99981   0.01944
           Z           -0.00441  -0.01944   0.99980
 This molecule is an asymmetric top.
 Rotational symmetry number  1.
 Warning -- assumption of classical behavior for rotation
           may cause significant error
 Rotational temperatures (Kelvin)      0.04167     0.02341     0.01777
 Rotational constants (GHZ):           0.86825     0.48778     0.37033
 Zero-point vibrational energy     734579.4 (Joules/Mol)
                                  175.56869 (Kcal/Mol)
 Warning -- explicit consideration of  18 degrees of freedom as
           vibrations may cause significant error
 Vibrational temperatures:     30.27    33.77    55.14    86.12   128.30
          (Kelvin)            191.73   207.04   228.33   275.33   334.15
                              381.81   435.71   502.01   520.91   593.93
                              642.90   730.89   802.35   899.56   972.20
                             1062.27  1118.75  1169.32  1200.55  1216.77
                             1268.52  1275.21  1293.89  1305.51  1366.81
                             1398.06  1419.34  1448.21  1458.33  1490.66
                             1512.88  1559.98  1575.67  1618.24  1639.99
                             1676.68  1693.29  1753.30  1761.01  1771.44
                             1812.53  1825.87  1843.16  1876.46  1883.36
                             1898.68  1920.79  1929.80  1945.61  1959.41
                             1965.13  1972.69  2033.32  2069.06  2147.75
                             2155.42  2181.21  2195.31  2197.23  2202.88
                             2230.07  2434.43  2514.13  4267.82  4354.68
                             4368.21  4379.03  4379.81  4394.12  4399.33
                             4416.64  4421.98  4442.41  4459.28  4468.73
                             4472.33  4485.27  4507.24  4540.83  4550.33
                             4981.17  5108.58

 Zero-point correction=                           0.279787 (Hartree/Particle)
 Thermal correction to Energy=                    0.293932
 Thermal correction to Enthalpy=                  0.294876
 Thermal correction to Gibbs Free Energy=         0.235840
 Sum of electronic and zero-point Energies=           -845.195964
 Sum of electronic and thermal Energies=              -845.181819
 Sum of electronic and thermal Enthalpies=            -845.180874
 Sum of electronic and thermal Free Energies=         -845.239910

                     E (Thermal)             CV                S
                      KCal/Mol        Cal/Mol-Kelvin    Cal/Mol-Kelvin
 Total                  184.445             51.199            124.252
 Electronic               0.000              0.000              0.000
 Translational            0.889              2.981             41.554
 Rotational               0.889              2.981             31.994
 Vibrational            182.668             45.237             50.704
 Vibration     1          0.593              1.985              6.534
 Vibration     2          0.593              1.985              6.316
 Vibration     3          0.594              1.982              5.344
 Vibration     4          0.597              1.973              4.462
 Vibration     5          0.602              1.957              3.678
 Vibration     6          0.613              1.920              2.898
 Vibration     7          0.616              1.909              2.751
 Vibration     8          0.621              1.893              2.565
 Vibration     9          0.634              1.852              2.215
 Vibration    10          0.653              1.792              1.862
 Vibration    11          0.671              1.737              1.626
 Vibration    12          0.694              1.668              1.401
 Vibration    13          0.726              1.577              1.171
 Vibration    14          0.736              1.550              1.113
 Vibration    15          0.777              1.442              0.917
 Vibration    16          0.806              1.368              0.805
 Vibration    17          0.863              1.232              0.638
 Vibration    18          0.913              1.123              0.529

 Optimization completed.
    -- Stationary point found.
 Normal termination of Gaussian 16 at Wed Dec  9 18:41:47 2020.

 ----------------------------------------------------------------------
 # B3LYP/6-311++G(d,p) empiricaldispersion=gd3bj scf=xqc pop=npa geom=c
 heck
 ----------------------------------------------------------------------

 --------------------------------------
 CID_77110288_JID_2842_Energie_neutraal
 --------------------------------------
 Structure from the checkpoint file:  "JID_2842.chk"
 Charge =  0 Multiplicity = 1

 SCF Done:  E(RB3LYP) =  -845.635467975     A.U. after   14 cycles
 Normal termination of Gaussian 16 at Wed Dec  9 18:45:37 2020.

 ----------------------------------------------------------------------
 # B3LYP/6-311++G(d,p) empiricaldispersion=gd3bj scf=xqc pop=npa geom=c
 heck
 ----------------------------------------------------------------------

 ------------------------------------
 CID_77110288_JID_2842_Energie_kation
 ------------------------------------
 Structure from the checkpoint file:  "JID_2842.chk"
 Charge =  1 Multiplicity = 2

 SCF Done:  E(UB3LYP) =  -845.339265498     A.U. after   27 cycles
 Normal termination of Gaussian 16 at Wed Dec  9 18:55:55 2020.
 Gaussian 16:  ES64L-G16RevA.03 25-Dec-2016

 ----------------------------------------------------------------------
 # B3LYP/6-311++G(d,p) empiricaldispersion=gd3bj scf=xqc pop=npa geom=c
 heck
 ----------------------------------------------------------------------

 -----------------------------------
 CID_77110288_JID_2842_Energie_anion
 -----------------------------------
 Structure from the checkpoint file:  "JID_2842.chk"
 Charge = -1 Multiplicity = 2

                         Standard orientation:
 ---------------------------------------------------------------------
 Center     Atomic      Atomic             Coordinates (Angstroms)
 Number     Number       Type             X           Y           Z
 ---------------------------------------------------------------------
      1          6           0        2.959987   -0.845646    1.301762
      2          6           0        3.311184   -1.543062   -0.042725
      3          6           0        2.386986   -0.895705   -1.108265
      4          6           0        1.791133    0.359434   -0.434153
      5          6           0        1.651577   -0.084459    1.030125
      6          6           0        0.512853    0.835209   -1.118895
      7         16           0       -0.223534    2.381709   -0.456532
      8          6           0       -1.322091    1.736134    0.889012
      9          6           0       -2.350930    0.784815    0.373065
     10          6           0       -2.379614   -0.519004    0.666190
     11          6           0       -3.373430   -1.498346    0.112817
     12          7           0       -2.661833   -2.592617   -0.564816
     13          1           0        3.747266   -0.131333    1.570950
     14          1           0        2.872455   -1.551593    2.133779
     15          1           0        4.368017   -1.401766   -0.291396
     16          1           0        3.143709   -2.623554    0.011811
     17          1           0        1.569680   -1.582864   -1.365008
     18          1           0        2.909628   -0.659111   -2.041216
     19          1           0        2.531417    1.170884   -0.474938
     20          1           0        0.790914   -0.761658    1.122088
     21          1           0        1.494957    0.752751    1.717301
     22          1           0        0.709999    1.049097   -2.175044
     23          1           0       -0.257305    0.055584   -1.084541
     24          1           0       -0.718726    1.280472    1.677570
     25          1           0       -1.782077    2.643460    1.295853
     26          1           0       -3.083303    1.199189   -0.320103
     27          1           0       -1.628929   -0.942596    1.333351
     28          1           0       -3.943064   -1.948527    0.937855
     29          1           0       -4.101796   -0.962084   -0.520881
     30          1           0       -3.328906   -3.294948   -0.880799
     31          1           0       -2.210486   -2.226658   -1.402011
 ---------------------------------------------------------------------

 SCF Done:  E(UB3LYP) =  -845.620579064     A.U. after   33 cycles
 SCF Done:  E(UB3LYP) =  -845.620579064     a.u. after    1 cycles

 The electronic state is 2-A.
 Alpha  occ. eigenvalues --  -88.74146 -14.18349 -10.10857 -10.09728 -10.09051
 Alpha  occ. eigenvalues --  -10.07810 -10.07568 -10.07198 -10.06959 -10.06813
 Alpha  occ. eigenvalues --  -10.06799 -10.06663  -7.82753  -5.79146  -5.78782
 Alpha  occ. eigenvalues --   -5.78129  -0.77628  -0.74980  -0.71904  -0.67567
 Alpha  occ. eigenvalues --   -0.63504  -0.61369  -0.58790  -0.54434  -0.49760
 Alpha  occ. eigenvalues --   -0.47139  -0.46405  -0.45722  -0.39324  -0.38858
 Alpha  occ. eigenvalues --   -0.37241  -0.36688  -0.35887  -0.34818  -0.32244
 Alpha  occ. eigenvalues --   -0.31612  -0.30326  -0.30210  -0.28802  -0.27287
 Alpha  occ. eigenvalues --   -0.25722  -0.25349  -0.24502  -0.24246  -0.23557
 Alpha  occ. eigenvalues --   -0.22457  -0.22225  -0.20616  -0.16146  -0.13839
 Alpha  occ. eigenvalues --   -0.13089   0.04592
 Alpha virt. eigenvalues --    0.06072   0.07191   0.07593   0.08467   0.08614
 Alpha virt. eigenvalues --    0.09078   0.09092   0.09593   0.10460   0.11194
 Alpha virt. eigenvalues --    0.11342   0.11910   0.12079   0.12449   0.13282

  Beta  occ. eigenvalues --  -88.74139 -14.18282 -10.10855 -10.09719 -10.09023
  Beta  occ. eigenvalues --  -10.07806 -10.07531 -10.07185 -10.06944 -10.06807
  Beta  occ. eigenvalues --  -10.06781 -10.06643  -7.82746  -5.79139  -5.78767
  Beta  occ. eigenvalues --   -5.78124  -0.77526  -0.74960  -0.71856  -0.67519
  Beta  occ. eigenvalues --   -0.63457  -0.61335  -0.58734  -0.54351  -0.49717
  Beta  occ. eigenvalues --   -0.47087  -0.46366  -0.45649  -0.39283  -0.38793
  Beta  occ. eigenvalues --   -0.37200  -0.36645  -0.35840  -0.34778  -0.32220
  Beta  occ. eigenvalues --   -0.31521  -0.30287  -0.30177  -0.28776  -0.27236
  Beta  occ. eigenvalues --   -0.25691  -0.25304  -0.24466  -0.24215  -0.23525
  Beta  occ. eigenvalues --   -0.22436  -0.22196  -0.20584  -0.16008  -0.13770
  Beta  occ. eigenvalues --   -0.13058
  Beta virt. eigenvalues --    0.06532   0.07279   0.07514   0.07803   0.08841
  Beta virt. eigenvalues --    0.08911   0.09317   0.09574   0.10198   0.10618
  Beta virt. eigenvalues --    0.11467   0.11857   0.12081   0.12179   0.12465

 Mulliken charges and spin densities:
               1          2
     1  C    0.042052  -0.726015
     2  C    0.109688  -0.405030
     3  C    0.158745  -0.707634
     4  C   -0.637884   1.177555
     5  C   -0.358018   0.040583
     6  C    0.180234  -0.579714
     7  S   -0.038225   0.087786
     8  C   -0.309274   0.080605
     9  C   -0.099128  -0.018655
    10  C   -1.147650   1.156841
    11  C    2.428948  -3.137253
    12  N   -0.410389   0.065321
    13  H   -0.123318   0.269273
    14  H   -0.091801   0.242627
    15  H   -0.146885   0.292767
    16  H   -0.059977   0.193742
    17  H    0.059330   0.089752
    18  H   -0.213573   0.359684
    19  H    0.108177   0.034843
    20  H    0.461749  -0.371867
    21  H    0.052053   0.091801
    22  H    0.094813   0.162635
    23  H    0.303043  -0.164182
    24  H    0.089762   0.062652
    25  H    0.099737   0.135151
    26  H   -0.029819   0.168184
    27  H   -0.280728   0.397179
    28  H   -0.434659   0.586879
    29  H   -0.308118   0.446426
    30  H   -0.311549   0.562809
    31  H   -0.187332   0.405255
 Sum of Mulliken charges =  -1.00000   1.00000

 Dipole moment (field-independent basis, Debye):
    X=              3.6015    Y=              6.4926    Z=              2.2090  Tot=              7.7462
 Quadrupole moment (field-independent basis, Debye-Ang):
   XX=           -165.2255   YY=           -137.7034   ZZ=           -115.8788
   XY=            -16.8135   XZ=             -4.3970   YZ=             -3.4322

 Summary of Natural Population Analysis:

                                       Natural Population
                Natural  -----------------------------------------------
    Atom  No    Charge         Core      Valence    Rydberg      Total
 -----------------------------------------------------------------------
      C    1   -0.19125      0.99965     2.18331    0.00830     3.19125
      C    2   -0.19260      0.99965     2.18571    0.00724     3.19260
      C    3   -0.19018      0.99962     2.18203    0.00853     3.19018
      C    4   -0.11788      0.99958     2.10637    0.01193     3.11788
      C    5   -0.19399      0.99961     2.18592    0.00845     3.19399
      C    6   -0.25052      0.99955     2.23943    0.01155     3.25052
      S    7    0.08011      4.99964     2.90438    0.01587     7.91989
      C    8   -0.25778      0.99956     2.24835    0.00986     3.25778
      C    9   -0.10180      0.99950     2.09128    0.01103     3.10180
      C   10   -0.08519      0.99950     2.07468    0.01101     3.08519
      C   11   -0.10405      0.99962     2.09140    0.01304     3.10405
      N   12   -0.41949      0.99977     2.90865    0.01107     3.91949
      H   13    0.09395      0.00000     0.40478    0.00127     0.40605
      H   14    0.09897      0.00000     0.40018    0.00085     0.40103
      H   15    0.09714      0.00000     0.40162    0.00125     0.40286
      H   16    0.09819      0.00000     0.40074    0.00107     0.40181
      H   17    0.09882      0.00000     0.39959    0.00160     0.40118
      H   18    0.10037      0.00000     0.39852    0.00111     0.39963
      H   19    0.09479      0.00000     0.40350    0.00171     0.40521
      H   20    0.09696      0.00000     0.40122    0.00182     0.40304
      H   21    0.10022      0.00000     0.39866    0.00111     0.39978
      H   22    0.10618      0.00000     0.39275    0.00108     0.39382
      H   23    0.11091      0.00000     0.38707    0.00202     0.38909
      H   24    0.10306      0.00000     0.39519    0.00174     0.39694
      H   25    0.10627      0.00000     0.39264    0.00108     0.39373
      H   26    0.09517      0.00000     0.40308    0.00175     0.40483
      H   27    0.09307      0.00000     0.40518    0.00175     0.40693
      H   28    0.09579      0.00000     0.40229    0.00192     0.40421
      H   29    0.08109      0.00000     0.41648    0.00242     0.41891
      H   30    0.18040      0.00000     0.31202    0.00759     0.31960
      H   31    0.17328      0.00000     0.32359    0.00313     0.32672
 =======================================================================
   * Total *   -0.00000     15.99525    34.84061    0.16414    51.00000

 Normal termination of Gaussian 16 at Wed Dec  9 19:08:38 2020.
