 Gaussian 16, Revision A.03,

 -----------------------------------------------------------
 # opt freq B3LYP/6-31G(d) empiricaldispersion=gd3bj scf=xqc
 -----------------------------------------------------------

 -------------------------------
 CID_131143502_JID_4537_neutraal
 -------------------------------
 Symbolic Z-matrix:
 Charge =  0 Multiplicity = 1

 SCF Done:  E(RB3LYP) =  -967.447470436     A.U. after   15 cycles
 SCF Done:  E(RB3LYP) =  -967.454077531     A.U. after   13 cycles
 SCF Done:  E(RB3LYP) =  -967.455503938     A.U. after   12 cycles
 SCF Done:  E(RB3LYP) =  -967.455906940     A.U. after   12 cycles
 SCF Done:  E(RB3LYP) =  -967.456172282     A.U. after   12 cycles
 SCF Done:  E(RB3LYP) =  -967.456303448     A.U. after   11 cycles
 SCF Done:  E(RB3LYP) =  -967.456410337     A.U. after   11 cycles
 SCF Done:  E(RB3LYP) =  -967.456431872     A.U. after   11 cycles
 SCF Done:  E(RB3LYP) =  -967.456435740     A.U. after    9 cycles
 SCF Done:  E(RB3LYP) =  -967.456448679     A.U. after   10 cycles
 SCF Done:  E(RB3LYP) =  -967.456480163     A.U. after    8 cycles
 SCF Done:  E(RB3LYP) =  -967.456480388     A.U. after    8 cycles
 SCF Done:  E(RB3LYP) =  -967.456480378     A.U. after    8 cycles
 SCF Done:  E(RB3LYP) =  -967.456480486     A.U. after    9 cycles
 SCF Done:  E(RB3LYP) =  -967.456480498     A.U. after    8 cycles
 Optimization completed.
    -- Stationary point found.
 Normal termination of Gaussian 16 at Thu Dec 10 10:30:54 2020.

 --------------------------------------------------------------------
 #N Geom=AllCheck Guess=TCheck SCRF=Check GenChk RB3LYP/6-31G(d) Freq
 --------------------------------------------------------------------

 Structure from the checkpoint file:  "JID_4537.chk"
 -------------------------------
 CID_131143502_JID_4537_neutraal
 -------------------------------
 Charge =  0 Multiplicity = 1

 SCF Done:  E(RB3LYP) =  -967.456480498     A.U. after    1 cycles

  Exact polarizability: 180.269   4.388 151.243  13.494  -4.966  79.927
 Approx polarizability: 272.828  17.269 267.034  29.805 -14.102 122.807

                      1                      2                      3
                      A                      A                      A
 Frequencies --     20.7996                24.2956                58.1697
 Red. masses --      2.5484                 2.1987                 3.3874
 Frc consts  --      0.0006                 0.0008                 0.0068
 IR Inten    --      2.7882                 2.9462                 0.1703

                      4                      5                      6
                      A                      A                      A
 Frequencies --     84.9271               122.9896               152.1977
 Red. masses --      2.0993                 1.8948                 3.6082
 Frc consts  --      0.0089                 0.0169                 0.0492
 IR Inten    --      0.3333                 1.2272                 0.4331

                      7                      8                      9
                      A                      A                      A
 Frequencies --    171.0736               189.2930               236.3744
 Red. masses --      3.9320                 2.2032                 7.8041
 Frc consts  --      0.0678                 0.0465                 0.2569
 IR Inten    --      2.2068                 1.4780                 1.8489

                     10                     11                     12
                      A                      A                      A
 Frequencies --    243.1712               298.4661               340.5152
 Red. masses --      1.6241                 2.4160                 3.8168
 Frc consts  --      0.0566                 0.1268                 0.2607
 IR Inten    --      1.0918                 0.8551                 0.1016

                     13                     14                     15
                      A                      A                      A
 Frequencies --    392.2278               417.6188               440.2057
 Red. masses --      2.7902                 6.0779                 4.3251
 Frc consts  --      0.2529                 0.6245                 0.4938
 IR Inten    --      3.1071                 2.5365                 4.9460

                     16                     17                     18
                      A                      A                      A
 Frequencies --    480.3541               495.3985               541.8787
 Red. masses --      1.6117                 2.7798                 5.0763
 Frc consts  --      0.2191                 0.4020                 0.8782
 IR Inten    --     42.1736                24.1948                12.0055

                     19                     20                     21
                      A                      A                      A
 Frequencies --    583.3937               600.2334               628.7981
 Red. masses --      3.7943                 5.7324                 4.5247
 Frc consts  --      0.7609                 1.2168                 1.0540
 IR Inten    --     13.7712                12.0079                 4.7572

                     22                     23                     24
                      A                      A                      A
 Frequencies --    645.6070               656.4749               724.0671
 Red. masses --      8.5173                 7.5810                 7.1437
 Frc consts  --      2.0916                 1.9249                 2.2066
 IR Inten    --      3.3161                10.8035                 4.2077

                     25                     26                     27
                      A                      A                      A
 Frequencies --    797.1428               804.5485               867.2254
 Red. masses --     10.6994                 1.3699                 2.9642
 Frc consts  --      4.0057                 0.5224                 1.3135
 IR Inten    --     10.8137                23.1981                 2.2033

                     28                     29                     30
                      A                      A                      A
 Frequencies --    879.6119               922.8289               954.3270
 Red. masses --      3.7080                 1.6415                 4.4733
 Frc consts  --      1.6903                 0.8236                 2.4003
 IR Inten    --      7.2781                 1.3356                29.2614

                     31                     32                     33
                      A                      A                      A
 Frequencies --    974.1725              1034.3011              1094.9991
 Red. masses --      1.4321                 1.9991                 2.1071
 Frc consts  --      0.8007                 1.2600                 1.4885
 IR Inten    --      1.9991                20.2935                18.0781

                     34                     35                     36
                      A                      A                      A
 Frequencies --   1104.5940              1116.1628              1162.7614
 Red. masses --      1.9005                 2.3507                 3.0081
 Frc consts  --      1.3662                 1.7255                 2.3962
 IR Inten    --      0.4498                11.1278                11.9328

                     37                     38                     39
                      A                      A                      A
 Frequencies --   1164.6609              1196.4868              1240.4951
 Red. masses --      1.3339                 2.6244                 3.2610
 Frc consts  --      1.0660                 2.2135                 2.9566
 IR Inten    --      1.5532                61.0436                 0.1352

                     40                     41                     42
                      A                      A                      A
 Frequencies --   1272.0827              1284.7958              1302.1172
 Red. masses --      1.4226                 2.7049                 1.2662
 Frc consts  --      1.3563                 2.6307                 1.2649
 IR Inten    --     15.9556                 7.0089                 2.9852

                     43                     44                     45
                      A                      A                      A
 Frequencies --   1331.1119              1362.0462              1376.3059
 Red. masses --      6.6020                 3.6263                 1.5918
 Frc consts  --      6.8922                 3.9637                 1.7765
 IR Inten    --     72.2704                24.4840                13.1485

                     46                     47                     48
                      A                      A                      A
 Frequencies --   1386.6344              1395.9288              1447.2138
 Red. masses --      2.2952                 1.3915                 1.2623
 Frc consts  --      2.6001                 1.5975                 1.5577
 IR Inten    --     51.3151                14.4094                 3.8511

                     49                     50                     51
                      A                      A                      A
 Frequencies --   1460.5174              1489.6958              1501.7956
 Red. masses --      1.6090                 1.2517                 1.0973
 Frc consts  --      2.0221                 1.6366                 1.4581
 IR Inten    --     39.9684                37.2418                 6.1287

                     52                     53                     54
                      A                      A                      A
 Frequencies --   1509.6186              1517.8528              1529.4465
 Red. masses --      1.0433                 1.0684                 1.0446
 Frc consts  --      1.4009                 1.4502                 1.4397
 IR Inten    --     12.4385                 0.4476                 5.1256

                     55                     56                     57
                      A                      A                      A
 Frequencies --   1533.0802              1533.2247              1563.6686
 Red. masses --      1.1053                 1.1095                 4.7110
 Frc consts  --      1.5306                 1.5367                 6.7867
 IR Inten    --     10.0020                 3.5550                33.3457

                     58                     59                     60
                      A                      A                      A
 Frequencies --   1581.6930              1617.3594              1633.6934
 Red. masses --      4.1777                 4.1257                 7.3079
 Frc consts  --      6.1579                 6.3585                11.4918
 IR Inten    --     22.9387               174.6876               595.2501

                     61                     62                     63
                      A                      A                      A
 Frequencies --   3044.9899              3051.6210              3054.0857
 Red. masses --      1.0610                 1.0365                 1.0625
 Frc consts  --      5.7962                 5.6870                 5.8392
 IR Inten    --     16.8395                22.9052                23.8837

                     64                     65                     66
                      A                      A                      A
 Frequencies --   3058.1739              3079.9147              3107.9969
 Red. masses --      1.0393                 1.1022                 1.1013
 Frc consts  --      5.7270                 6.1602                 6.2677
 IR Inten    --     42.9979                24.1767                 7.5345

                     67                     68                     69
                      A                      A                      A
 Frequencies --   3118.9541              3126.2474              3126.6083
 Red. masses --      1.1020                 1.1021                 1.0972
 Frc consts  --      6.3159                 6.3464                 6.3196
 IR Inten    --     41.6621                54.3381                20.0954

                     70                     71                     72
                      A                      A                      A
 Frequencies --   3158.9998              3190.8905              3619.6657
 Red. masses --      1.1057                 1.0906                 1.0763
 Frc consts  --      6.5013                 6.5426                 8.3086
 IR Inten    --     20.7213                36.4735                65.1731

 - Thermochemistry -
 -------------------
 Temperature   298.150 Kelvin.  Pressure   1.00000 Atm.
 Atom     1 has atomic number  6 and mass  12.00000

 Molecular mass:   208.07827 amu.
 Principal axes and moments of inertia in atomic units:
                           1         2         3
     Eigenvalues --  1898.691903860.018765229.85481
           X            0.99995  -0.00425  -0.00898
           Y            0.00426   0.99999   0.00041
           Z            0.00897  -0.00045   0.99996
 This molecule is an asymmetric top.
 Rotational symmetry number  1.
 Warning -- assumption of classical behavior for rotation
           may cause significant error
 Rotational temperatures (Kelvin)      0.04562     0.02244     0.01656
 Rotational constants (GHZ):           0.95052     0.46755     0.34508
 Zero-point vibrational energy     551663.2 (Joules/Mol)
                                  131.85066 (Kcal/Mol)
 Warning -- explicit consideration of  20 degrees of freedom as
           vibrations may cause significant error
 Vibrational temperatures:     29.93    34.96    83.69   122.19   176.95
          (Kelvin)            218.98   246.14   272.35   340.09   349.87
                              429.43   489.93   564.33   600.86   633.36
                              691.12   712.77   779.64   839.37   863.60
                              904.70   928.88   944.52  1041.77  1146.91
                             1157.57  1247.74  1265.57  1327.75  1373.06
                             1401.62  1488.13  1575.46  1589.26  1605.91
                             1672.95  1675.69  1721.48  1784.80  1830.24
                             1848.53  1873.46  1915.17  1959.68  1980.20
                             1995.06  2008.43  2082.22  2101.36  2143.34
                             2160.75  2172.00  2183.85  2200.53  2205.76
                             2205.97  2249.77  2275.70  2327.02  2350.52
                             4381.06  4390.60  4394.15  4400.03  4431.31
                             4471.71  4487.48  4497.97  4498.49  4545.10
                             4590.98  5207.89

 Zero-point correction=                           0.210117 (Hartree/Particle)
 Thermal correction to Energy=                    0.223740
 Thermal correction to Enthalpy=                  0.224685
 Thermal correction to Gibbs Free Energy=         0.167453
 Sum of electronic and zero-point Energies=           -967.246363
 Sum of electronic and thermal Energies=              -967.232740
 Sum of electronic and thermal Enthalpies=            -967.231796
 Sum of electronic and thermal Free Energies=         -967.289027

                     E (Thermal)             CV                S
                      KCal/Mol        Cal/Mol-Kelvin    Cal/Mol-Kelvin
 Total                  140.399             49.608            120.454
 Electronic               0.000              0.000              0.000
 Translational            0.889              2.981             41.902
 Rotational               0.889              2.981             32.016
 Vibrational            138.622             43.646             46.535
 Vibration     1          0.593              1.986              6.556
 Vibration     2          0.593              1.985              6.248
 Vibration     3          0.596              1.974              4.518
 Vibration     4          0.601              1.960              3.774
 Vibration     5          0.610              1.930              3.053
 Vibration     6          0.619              1.900              2.645
 Vibration     7          0.626              1.878              2.424
 Vibration     8          0.633              1.855              2.235
 Vibration     9          0.655              1.785              1.830
 Vibration    10          0.659              1.774              1.780
 Vibration    11          0.692              1.677              1.425
 Vibration    12          0.720              1.595              1.210
 Vibration    13          0.760              1.487              0.992
 Vibration    14          0.781              1.432              0.900
 Vibration    15          0.800              1.382              0.826
 Vibration    16          0.837              1.294              0.709
 Vibration    17          0.851              1.260              0.670
 Vibration    18          0.897              1.157              0.561
 Vibration    19          0.940              1.067              0.479
 Vibration    20          0.958              1.031              0.449

 Optimization completed.
    -- Stationary point found.
 Normal termination of Gaussian 16 at Thu Dec 10 10:38:15 2020.

 ----------------------------------------------------------------------
 # B3LYP/6-311++G(d,p) empiricaldispersion=gd3bj scf=xqc pop=npa geom=c
 heck
 ----------------------------------------------------------------------

 ---------------------------------------
 CID_131143502_JID_4537_Energie_neutraal
 ---------------------------------------
 Structure from the checkpoint file:  "JID_4537.chk"
 Charge =  0 Multiplicity = 1

 SCF Done:  E(RB3LYP) =  -967.633643632     A.U. after   16 cycles
 Normal termination of Gaussian 16 at Thu Dec 10 10:41:58 2020.

 ----------------------------------------------------------------------
 # B3LYP/6-311++G(d,p) empiricaldispersion=gd3bj scf=xqc pop=npa geom=c
 heck
 ----------------------------------------------------------------------

 -------------------------------------
 CID_131143502_JID_4537_Energie_kation
 -------------------------------------
 Structure from the checkpoint file:  "JID_4537.chk"
 Charge =  1 Multiplicity = 2

 SCF Done:  E(UB3LYP) =  -967.342812590     A.U. after   24 cycles
 Normal termination of Gaussian 16 at Thu Dec 10 10:48:50 2020.
 Gaussian 16:  ES64L-G16RevA.03 25-Dec-2016

 ----------------------------------------------------------------------
 # B3LYP/6-311++G(d,p) empiricaldispersion=gd3bj scf=xqc pop=npa geom=c
 heck
 ----------------------------------------------------------------------

 ------------------------------------
 CID_131143502_JID_4537_Energie_anion
 ------------------------------------
 Structure from the checkpoint file:  "JID_4537.chk"
 Charge = -1 Multiplicity = 2

                         Standard orientation:
 ---------------------------------------------------------------------
 Center     Atomic      Atomic             Coordinates (Angstroms)
 Number     Number       Type             X           Y           Z
 ---------------------------------------------------------------------
      1          6           0       -3.292218    1.024026    1.477189
      2          6           0       -3.718400    0.187784    0.269705
      3          6           0       -2.764050    0.336199   -0.933509
      4          6           0       -1.361115   -0.087380   -0.625356
      5          7           0       -0.361207    0.729403   -0.502543
      6          6           0        0.800028    0.055103   -0.165730
      7          6           0        2.098561    0.585159    0.054072
      8          7           0        3.106886   -0.253624    0.377847
      9          6           0        2.839974   -1.556542    0.475322
     10          7           0        1.669343   -2.179361    0.295372
     11          6           0        0.683030   -1.339076   -0.020588
     12         16           0       -0.984123   -1.805359   -0.329201
     13          7           0        2.425384    1.894468   -0.041517
     14          6           0        1.519711    3.007163   -0.267726
     15          1           0       -2.305176    0.720303    1.841788
     16          1           0       -4.005030    0.914849    2.301332
     17          1           0       -3.234429    2.087691    1.217477
     18          1           0       -3.780644   -0.870780    0.552862
     19          1           0       -4.723759    0.481989   -0.055969
     20          1           0       -3.149176   -0.245879   -1.780116
     21          1           0       -2.715203    1.384698   -1.246273
     22          1           0        3.682604   -2.193203    0.736336
     23          1           0        3.388193    2.083800    0.200566
     24          1           0        2.118989    3.918024   -0.333269
     25          1           0        0.960969    2.877549   -1.197214
     26          1           0        0.792658    3.115880    0.545303
 ---------------------------------------------------------------------

 SCF Done:  E(UB3LYP) =  -967.628990974     A.U. after   33 cycles
 SCF Done:  E(UB3LYP) =  -967.628990974     a.u. after    1 cycles

 The electronic state is 2-A.
 Alpha  occ. eigenvalues --  -88.74603 -14.22779 -14.18601 -14.18482 -14.18299
 Alpha  occ. eigenvalues --  -10.13712 -10.11164 -10.10265 -10.09815 -10.09796
 Alpha  occ. eigenvalues --  -10.08321 -10.06176 -10.06004 -10.05170  -7.83288
 Alpha  occ. eigenvalues --   -5.79557  -5.79246  -5.78865  -0.87887  -0.83476
 Alpha  occ. eigenvalues --   -0.82433  -0.75414  -0.68973  -0.66032  -0.64200
 Alpha  occ. eigenvalues --   -0.60636  -0.58136  -0.52282  -0.50901  -0.48539
 Alpha  occ. eigenvalues --   -0.44387  -0.42223  -0.40305  -0.36890  -0.36017
 Alpha  occ. eigenvalues --   -0.35007  -0.34228  -0.33219  -0.31400  -0.31235
 Alpha  occ. eigenvalues --   -0.30165  -0.29190  -0.26654  -0.26452  -0.25152
 Alpha  occ. eigenvalues --   -0.23610  -0.23583  -0.22875  -0.22577  -0.18936
 Alpha  occ. eigenvalues --   -0.16490  -0.15901  -0.14296  -0.13256  -0.10251
 Alpha  occ. eigenvalues --    0.04550
 Alpha virt. eigenvalues --    0.06372   0.07338   0.08905   0.09106   0.09538
 Alpha virt. eigenvalues --    0.09706   0.10340   0.10698   0.11502   0.12107
 Alpha virt. eigenvalues --    0.12377   0.12727   0.12909   0.13606   0.13958

  Beta  occ. eigenvalues --  -88.74577 -14.22756 -14.18641 -14.18495 -14.18253
  Beta  occ. eigenvalues --  -10.13650 -10.11060 -10.10043 -10.09799 -10.09417
  Beta  occ. eigenvalues --  -10.08288 -10.06195 -10.05948 -10.05157  -7.83264
  Beta  occ. eigenvalues --   -5.79551  -5.79240  -5.78772  -0.87749  -0.83312
  Beta  occ. eigenvalues --   -0.82221  -0.75340  -0.68793  -0.65873  -0.64008
  Beta  occ. eigenvalues --   -0.60540  -0.58070  -0.51990  -0.50740  -0.48424
  Beta  occ. eigenvalues --   -0.44246  -0.42022  -0.40172  -0.36759  -0.35892
  Beta  occ. eigenvalues --   -0.34780  -0.34044  -0.33130  -0.31259  -0.30914
  Beta  occ. eigenvalues --   -0.30067  -0.29122  -0.26548  -0.25864  -0.25016
  Beta  occ. eigenvalues --   -0.23488  -0.23390  -0.22652  -0.22328  -0.18887
  Beta  occ. eigenvalues --   -0.16018  -0.15789  -0.13716  -0.13231  -0.09634
  Beta virt. eigenvalues --    0.06730   0.07630   0.08832   0.09104   0.09589
  Beta virt. eigenvalues --    0.09877   0.09992   0.10689   0.10836   0.11576
  Beta virt. eigenvalues --    0.12299   0.12502   0.12892   0.13564   0.14032

 Mulliken charges and spin densities:
               1          2
     1  C   -0.075849  -0.552560
     2  C    0.099899  -0.109111
     3  C   -0.067235   0.163214
     4  C    0.743598  -0.407858
     5  N    0.118966   0.045992
     6  C   -0.197537  -0.305081
     7  C   -0.554335   0.233615
     8  N   -0.205269  -0.007586
     9  C    0.032780   0.188586
    10  N   -0.086415  -0.028060
    11  C   -0.041232   0.114444
    12  S   -0.372240  -0.089660
    13  N   -0.323037   0.042793
    14  C    0.151783  -0.510450
    15  H    0.138783   0.039759
    16  H   -0.029331   0.147196
    17  H    0.056184   0.061818
    18  H    0.120026  -0.014125
    19  H   -0.677617   0.849288
    20  H   -0.238682   0.409728
    21  H    0.023996   0.137280
    22  H    0.181467  -0.008490
    23  H    0.240645   0.077857
    24  H   -0.214663   0.331076
    25  H    0.075799   0.115068
    26  H    0.099515   0.075268
 Sum of Mulliken charges =  -1.00000   1.00000

 Dipole moment (field-independent basis, Debye):
    X=              3.3415    Y=              0.7293    Z=              1.3204  Tot=              3.6662
 Quadrupole moment (field-independent basis, Debye-Ang):
   XX=           -157.1707   YY=           -123.1774   ZZ=           -108.8812
   XY=              6.9920   XZ=             -5.5125   YZ=              0.5310

 Summary of Natural Population Analysis:

                                       Natural Population
                Natural  -----------------------------------------------
    Atom  No    Charge         Core      Valence    Rydberg      Total
 -----------------------------------------------------------------------
      C    1   -0.28801      0.99966     2.28224    0.00610     3.28801
      C    2   -0.18266      0.99964     2.17444    0.00859     3.18266
      C    3   -0.21795      0.99957     2.20725    0.01113     3.21795
      C    4    0.12258      0.99960     1.85949    0.01833     2.87742
      N    5   -0.25223      0.99962     2.74188    0.01073     3.75223
      C    6    0.00450      0.99937     1.98483    0.01130     2.99550
      C    7    0.22211      0.99950     1.76172    0.01667     2.77789
      N    8   -0.28840      0.99968     2.77936    0.00936     3.78840
      C    9    0.17788      0.99968     1.80365    0.01879     2.82212
      N   10   -0.28136      0.99966     2.77058    0.01112     3.78136
      C   11    0.04252      0.99944     1.93946    0.01858     2.95748
      S   12    0.16285      4.99943     2.81849    0.01922     7.83715
      N   13   -0.29828      0.99966     2.78870    0.00992     3.79828
      C   14   -0.17854      0.99965     2.17065    0.00825     3.17854
      H   15    0.10136      0.00000     0.39770    0.00093     0.39864
      H   16    0.09437      0.00000     0.40495    0.00068     0.40563
      H   17    0.09616      0.00000     0.40289    0.00095     0.40384
      H   18    0.09292      0.00000     0.40601    0.00107     0.40708
      H   19    0.09736      0.00000     0.39922    0.00342     0.40264
      H   20    0.10949      0.00000     0.38844    0.00207     0.39051
      H   21    0.10776      0.00000     0.39066    0.00159     0.39224
      H   22    0.07355      0.00000     0.42528    0.00117     0.42645
      H   23    0.19062      0.00000     0.30598    0.00339     0.30938
      H   24    0.09121      0.00000     0.40792    0.00087     0.40879
      H   25    0.10435      0.00000     0.39439    0.00126     0.39565
      H   26    0.09584      0.00000     0.40302    0.00114     0.40416
 =======================================================================
   * Total *    0.00000     17.99417    36.80921    0.19663    55.00000

 Normal termination of Gaussian 16 at Thu Dec 10 10:57:47 2020.
