 Gaussian 16, Revision A.03,

 -----------------------------------------------------------
 # opt freq B3LYP/6-31G(d) empiricaldispersion=gd3bj scf=xqc
 -----------------------------------------------------------

 ------------------------------
 CID_64587067_JID_4813_neutraal
 ------------------------------
 Symbolic Z-matrix:
 Charge =  0 Multiplicity = 1

 SCF Done:  E(RB3LYP) =  -1014.33552253     A.U. after   14 cycles
 SCF Done:  E(RB3LYP) =  -1014.33897964     A.U. after   12 cycles
 SCF Done:  E(RB3LYP) =  -1014.33747147     A.U. after   12 cycles
 SCF Done:  E(RB3LYP) =  -1014.33949003     A.U. after   12 cycles
 SCF Done:  E(RB3LYP) =  -1014.33958142     A.U. after   12 cycles
 SCF Done:  E(RB3LYP) =  -1014.34036667     A.U. after   12 cycles
 SCF Done:  E(RB3LYP) =  -1014.34045045     A.U. after   11 cycles
 SCF Done:  E(RB3LYP) =  -1014.34050920     A.U. after   10 cycles
 SCF Done:  E(RB3LYP) =  -1014.34054820     A.U. after   11 cycles
 SCF Done:  E(RB3LYP) =  -1014.34055926     A.U. after   11 cycles
 SCF Done:  E(RB3LYP) =  -1014.34057782     A.U. after    8 cycles
 SCF Done:  E(RB3LYP) =  -1014.34057823     A.U. after    9 cycles
 SCF Done:  E(RB3LYP) =  -1014.34057778     A.U. after    9 cycles
 SCF Done:  E(RB3LYP) =  -1014.34057761     A.U. after    7 cycles
 SCF Done:  E(RB3LYP) =  -1014.34057823     A.U. after    9 cycles
 SCF Done:  E(RB3LYP) =  -1014.34057756     A.U. after    9 cycles
 Optimization completed on the basis of negligible forces.
    -- Stationary point found.
 Normal termination of Gaussian 16 at Thu Dec 10 10:38:37 2020.

 --------------------------------------------------------------------
 #N Geom=AllCheck Guess=TCheck SCRF=Check GenChk RB3LYP/6-31G(d) Freq
 --------------------------------------------------------------------

 Structure from the checkpoint file:  "JID_4813.chk"
 ------------------------------
 CID_64587067_JID_4813_neutraal
 ------------------------------
 Charge =  0 Multiplicity = 1

 SCF Done:  E(RB3LYP) =  -1014.34057756     A.U. after    1 cycles

  Exact polarizability: 148.735  -0.400 129.115   5.865  -0.513 117.045
 Approx polarizability: 183.427  -1.434 193.271   3.281   0.171 177.159

                      1                      2                      3
                      A                      A                      A
 Frequencies --     11.7236                22.6458                52.8732
 Red. masses --      3.9494                 3.7005                 2.9509
 Frc consts  --      0.0003                 0.0011                 0.0049
 IR Inten    --      1.5033                 0.6490                 0.5036

                      4                      5                      6
                      A                      A                      A
 Frequencies --     73.3165                80.1921               122.2373
 Red. masses --      2.9877                 3.3908                 2.5522
 Frc consts  --      0.0095                 0.0128                 0.0225
 IR Inten    --      0.5961                 1.5439                 0.3249

                      7                      8                      9
                      A                      A                      A
 Frequencies --    160.5503               189.9796               216.0437
 Red. masses --      4.2545                 1.7840                 1.5591
 Frc consts  --      0.0646                 0.0379                 0.0429
 IR Inten    --      3.3064                 2.2336                 1.7490

                     10                     11                     12
                      A                      A                      A
 Frequencies --    221.6418               232.2193               236.3936
 Red. masses --      2.8241                 1.7386                 1.4083
 Frc consts  --      0.0817                 0.0552                 0.0464
 IR Inten    --      0.8853                 0.3216                 0.2874

                     13                     14                     15
                      A                      A                      A
 Frequencies --    248.0202               254.9433               271.8311
 Red. masses --      1.1327                 1.1662                 1.3530
 Frc consts  --      0.0411                 0.0447                 0.0589
 IR Inten    --      0.3555                 0.4951                 1.0583

                     16                     17                     18
                      A                      A                      A
 Frequencies --    278.5722               297.5738               316.0407
 Red. masses --      1.9888                 2.4701                 3.1055
 Frc consts  --      0.0909                 0.1289                 0.1828
 IR Inten    --      0.3432                 0.0766                 5.3151

                     19                     20                     21
                      A                      A                      A
 Frequencies --    340.6745               363.0794               406.2090
 Red. masses --      3.8575                 2.3557                 3.2938
 Frc consts  --      0.2638                 0.1830                 0.3202
 IR Inten    --      9.0241                 1.0870                 1.4117

                     22                     23                     24
                      A                      A                      A
 Frequencies --    426.3252               439.1155               456.2342
 Red. masses --      2.8183                 3.9361                 2.0402
 Frc consts  --      0.3018                 0.4472                 0.2502
 IR Inten    --      5.9364                27.5348                 0.4702

                     25                     26                     27
                      A                      A                      A
 Frequencies --    466.6814               506.7326               524.2332
 Red. masses --      3.6578                 3.3309                 2.4598
 Frc consts  --      0.4694                 0.5039                 0.3983
 IR Inten    --     27.2111                 8.3738                 7.9227

                     28                     29                     30
                      A                      A                      A
 Frequencies --    547.4312               605.0704               684.2925
 Red. masses --      2.6130                 2.7158                 3.7301
 Frc consts  --      0.4614                 0.5858                 1.0291
 IR Inten    --      8.9437                79.2300                56.9911

                     31                     32                     33
                      A                      A                      A
 Frequencies --    716.9944               850.4862               870.5565
 Red. masses --      2.6939                 2.2699                 2.1208
 Frc consts  --      0.8159                 0.9674                 0.9470
 IR Inten    --      4.0277                92.4592                21.7866

                     34                     35                     36
                      A                      A                      A
 Frequencies --    898.0075               908.9431               936.0880
 Red. masses --      2.5024                 2.5939                 1.2956
 Frc consts  --      1.1890                 1.2626                 0.6689
 IR Inten    --      6.3936                52.1837                 9.0166

                     37                     38                     39
                      A                      A                      A
 Frequencies --    956.8507               958.7781               966.5213
 Red. masses --      1.1328                 1.5849                 1.6937
 Frc consts  --      0.6111                 0.8584                 0.9322
 IR Inten    --      1.5640                20.9907                26.6251

                     40                     41                     42
                      A                      A                      A
 Frequencies --    979.9665              1052.5048              1067.4709
 Red. masses --      1.4124                 2.1544                 2.5710
 Frc consts  --      0.7992                 1.4062                 1.7261
 IR Inten    --      0.5052                29.2524                 6.6744

                     43                     44                     45
                      A                      A                      A
 Frequencies --   1096.3645              1103.8117              1112.8146
 Red. masses --      1.5121                 3.2978                 3.9413
 Frc consts  --      1.0709                 2.3673                 2.8756
 IR Inten    --      5.4096                60.6479               119.1643

                     46                     47                     48
                      A                      A                      A
 Frequencies --   1133.0931              1144.8965              1145.8858
 Red. masses --      2.2259                 2.2253                 1.6864
 Frc consts  --      1.6838                 1.7186                 1.3046
 IR Inten    --     19.0267                 0.3897                15.0097

                     49                     50                     51
                      A                      A                      A
 Frequencies --   1167.3924              1184.3311              1212.3921
 Red. masses --      1.4443                 1.9949                 1.8247
 Frc consts  --      1.1597                 1.6486                 1.5803
 IR Inten    --      3.3377                11.3137                 0.5653

                     52                     53                     54
                      A                      A                      A
 Frequencies --   1222.6121              1272.9660              1294.4224
 Red. masses --      1.8018                 1.4698                 2.2669
 Frc consts  --      1.5868                 1.4033                 2.2378
 IR Inten    --     11.9778                52.2426                41.1376

                     55                     56                     57
                      A                      A                      A
 Frequencies --   1312.0029              1321.0013              1352.8072
 Red. masses --      2.6599                 1.6537                 1.4293
 Frc consts  --      2.6976                 1.7002                 1.5411
 IR Inten    --     89.1894                35.3750                 0.1658

                     58                     59                     60
                      A                      A                      A
 Frequencies --   1369.3432              1379.4761              1405.9745
 Red. masses --      1.4448                 1.3755                 1.3443
 Frc consts  --      1.5962                 1.5422                 1.5657
 IR Inten    --     28.3383                 6.1120                18.0520

                     61                     62                     63
                      A                      A                      A
 Frequencies --   1412.0239              1424.7978              1425.4034
 Red. masses --      1.2100                 1.2516                 1.2552
 Frc consts  --      1.4214                 1.4971                 1.5026
 IR Inten    --     21.7965                 5.7899                 8.6130

                     64                     65                     66
                      A                      A                      A
 Frequencies --   1435.1474              1443.0490              1447.0596
 Red. masses --      1.2956                 1.2272                 1.2395
 Frc consts  --      1.5722                 1.5057                 1.5292
 IR Inten    --     13.3461                10.9951                 4.1953

                     67                     68                     69
                      A                      A                      A
 Frequencies --   1456.9866              1484.3511              1500.8894
 Red. masses --      1.2397                 1.1258                 1.0874
 Frc consts  --      1.5505                 1.4614                 1.4433
 IR Inten    --     31.6129                 5.7490                 6.8280

                     70                     71                     72
                      A                      A                      A
 Frequencies --   1515.4487              1515.7712              1520.1167
 Red. masses --      1.0639                 1.0563                 1.0559
 Frc consts  --      1.4396                 1.4299                 1.4375
 IR Inten    --      5.5758                 1.5425                 0.2908

                     73                     74                     75
                      A                      A                      A
 Frequencies --   1524.8336              1525.9714              1528.4072
 Red. masses --      1.0518                 1.0511                 1.0404
 Frc consts  --      1.4409                 1.4420                 1.4320
 IR Inten    --      0.7650                 0.1941                11.3786

                     76                     77                     78
                      A                      A                      A
 Frequencies --   1533.6315              1540.4999              1546.1420
 Red. masses --      1.0545                 1.0620                 1.0519
 Frc consts  --      1.4612                 1.4849                 1.4816
 IR Inten    --      6.5327                10.6711                12.2535

                     79                     80                     81
                      A                      A                      A
 Frequencies --   1548.7421              1555.2500              2968.4213
 Red. masses --      1.0678                 1.0585                 1.0583
 Frc consts  --      1.5091                 1.5084                 5.4945
 IR Inten    --      9.4819                 3.4445                62.2142

                     82                     83                     84
                      A                      A                      A
 Frequencies --   3002.6883              3040.9514              3053.4786
 Red. masses --      1.0841                 1.0671                 1.0380
 Frc consts  --      5.7590                 5.8142                 5.7019
 IR Inten    --     35.8673                29.2366                25.1042

                     85                     86                     87
                      A                      A                      A
 Frequencies --   3059.5694              3061.6860              3062.1096
 Red. masses --      1.0733                 1.0393                 1.0360
 Frc consts  --      5.9195                 5.7398                 5.7233
 IR Inten    --     53.8801                15.7253                10.0950

                     88                     89                     90
                      A                      A                      A
 Frequencies --   3065.9973              3071.3704              3073.3153
 Red. masses --      1.0372                 1.0583                 1.0836
 Frc consts  --      5.7447                 5.8820                 6.0305
 IR Inten    --     21.2219                18.0699                 5.7281

                     91                     92                     93
                      A                      A                      A
 Frequencies --   3099.7601              3105.4450              3111.3777
 Red. masses --      1.0969                 1.1030                 1.1058
 Frc consts  --      6.2098                 6.2672                 6.3070
 IR Inten    --     23.6806                39.6453                22.0611

                     94                     95                     96
                      A                      A                      A
 Frequencies --   3115.6710              3122.7105              3127.8079
 Red. masses --      1.0989                 1.0996                 1.1023
 Frc consts  --      6.2851                 6.3178                 6.3536
 IR Inten    --     44.1733                35.8949                 2.1803

                     97                     98                     99
                      A                      A                      A
 Frequencies --   3132.8051              3134.6899              3140.5467
 Red. masses --      1.1013                 1.1031                 1.1002
 Frc consts  --      6.3685                 6.3864                 6.3933
 IR Inten    --     37.8759                21.9968                33.6512

                    100                    101                    102
                      A                      A                      A
 Frequencies --   3155.4801              3158.8933              3565.4285
 Red. masses --      1.1026                 1.1025                 1.0739
 Frc consts  --      6.4684                 6.4820                 8.0433
 IR Inten    --      7.9698                 8.7769                59.4489

 - Thermochemistry -
 -------------------
 Temperature   298.150 Kelvin.  Pressure   1.00000 Atm.
 Atom     1 has atomic number  6 and mass  12.00000

 Molecular mass:   222.14020 amu.
 Principal axes and moments of inertia in atomic units:
                           1         2         3
     Eigenvalues --  1798.577475381.217415601.39917
           X            0.99972  -0.00683   0.02262
           Y            0.00570   0.99876   0.04951
           Z           -0.02293  -0.04937   0.99852
 This molecule is an asymmetric top.
 Rotational symmetry number  1.
 Warning -- assumption of classical behavior for rotation
           may cause significant error
 Rotational temperatures (Kelvin)      0.04816     0.01610     0.01546
 Rotational constants (GHZ):           1.00343     0.33538     0.32219
 Zero-point vibrational energy     841945.9 (Joules/Mol)
                                  201.22989 (Kcal/Mol)
 Warning -- explicit consideration of  29 degrees of freedom as
           vibrations may cause significant error
 Vibrational temperatures:     16.87    32.58    76.07   105.49   115.38
          (Kelvin)            175.87   231.00   273.34   310.84   318.89
                              334.11   340.12   356.85   366.81   391.10
                              400.80   428.14   454.71   490.15   522.39
                              584.44   613.39   631.79   656.42   671.45
                              729.08   754.25   787.63   870.56   984.54
                             1031.60  1223.66  1252.54  1292.03  1307.77
                             1346.82  1376.69  1379.47  1390.61  1409.95
                             1514.32  1535.85  1577.42  1588.14  1601.09
                             1630.27  1647.25  1648.67  1679.62  1703.99
                             1744.36  1759.07  1831.51  1862.39  1887.68
                             1900.63  1946.39  1970.18  1984.76  2022.88
                             2031.59  2049.97  2050.84  2064.86  2076.23
                             2082.00  2096.28  2135.65  2159.45  2180.39
                             2180.86  2187.11  2193.90  2195.53  2199.04
                             2206.55  2216.44  2224.55  2228.29  2237.66
                             4270.90  4320.20  4375.25  4393.27  4402.04
                             4405.08  4405.69  4411.29  4419.02  4421.82
                             4459.86  4468.04  4476.58  4482.76  4492.88
                             4500.22  4507.41  4510.12  4518.55  4540.03
                             4544.94  5129.86

 Zero-point correction=                           0.320680 (Hartree/Particle)
 Thermal correction to Energy=                    0.338366
 Thermal correction to Enthalpy=                  0.339310
 Thermal correction to Gibbs Free Energy=         0.273950
 Sum of electronic and zero-point Energies=          -1014.019897
 Sum of electronic and thermal Energies=             -1014.002212
 Sum of electronic and thermal Enthalpies=           -1014.001268
 Sum of electronic and thermal Free Energies=        -1014.066628

                     E (Thermal)             CV                S
                      KCal/Mol        Cal/Mol-Kelvin    Cal/Mol-Kelvin
 Total                  212.328             65.174            137.562
 Electronic               0.000              0.000              0.000
 Translational            0.889              2.981             42.097
 Rotational               0.889              2.981             32.361
 Vibrational            210.550             59.213             63.104
 Vibration     1          0.593              1.987              7.695
 Vibration     2          0.593              1.985              6.388
 Vibration     3          0.596              1.976              4.707
 Vibration     4          0.599              1.967              4.062
 Vibration     5          0.600              1.963              3.886
 Vibration     6          0.610              1.931              3.065
 Vibration     7          0.622              1.891              2.543
 Vibration     8          0.633              1.854              2.228
 Vibration     9          0.645              1.817              1.992
 Vibration    10          0.648              1.808              1.946
 Vibration    11          0.653              1.792              1.862
 Vibration    12          0.655              1.785              1.830
 Vibration    13          0.662              1.766              1.745
 Vibration    14          0.665              1.754              1.696
 Vibration    15          0.675              1.725              1.585
 Vibration    16          0.679              1.713              1.542
 Vibration    17          0.691              1.678              1.431
 Vibration    18          0.703              1.643              1.331
 Vibration    19          0.720              1.594              1.209
 Vibration    20          0.737              1.548              1.109
 Vibration    21          0.771              1.457              0.940
 Vibration    22          0.788              1.413              0.871
 Vibration    23          0.799              1.385              0.829
 Vibration    24          0.814              1.347              0.777
 Vibration    25          0.824              1.324              0.747
 Vibration    26          0.862              1.235              0.642
 Vibration    27          0.879              1.196              0.600
 Vibration    28          0.903              1.145              0.550
 Vibration    29          0.964              1.021              0.441

 Optimization completed.
    -- Stationary point found.
 Normal termination of Gaussian 16 at Thu Dec 10 10:49:54 2020.

 ----------------------------------------------------------------------
 # B3LYP/6-311++G(d,p) empiricaldispersion=gd3bj scf=xqc pop=npa geom=c
 heck
 ----------------------------------------------------------------------

 --------------------------------------
 CID_64587067_JID_4813_Energie_neutraal
 --------------------------------------
 Structure from the checkpoint file:  "JID_4813.chk"
 Charge =  0 Multiplicity = 1

 SCF Done:  E(RB3LYP) =  -1014.54915670     A.U. after   14 cycles
 Normal termination of Gaussian 16 at Thu Dec 10 10:55:20 2020.

 ----------------------------------------------------------------------
 # B3LYP/6-311++G(d,p) empiricaldispersion=gd3bj scf=xqc pop=npa geom=c
 heck
 ----------------------------------------------------------------------

 ------------------------------------
 CID_64587067_JID_4813_Energie_kation
 ------------------------------------
 Structure from the checkpoint file:  "JID_4813.chk"
 Charge =  1 Multiplicity = 2

 SCF Done:  E(UB3LYP) =  -1014.26169320     A.U. after   21 cycles
 Normal termination of Gaussian 16 at Thu Dec 10 11:08:31 2020.
 Gaussian 16:  ES64L-G16RevA.03 25-Dec-2016

 ----------------------------------------------------------------------
 # B3LYP/6-311++G(d,p) empiricaldispersion=gd3bj scf=xqc pop=npa geom=c
 heck
 ----------------------------------------------------------------------

 -----------------------------------
 CID_64587067_JID_4813_Energie_anion
 -----------------------------------
 Structure from the checkpoint file:  "JID_4813.chk"
 Charge = -1 Multiplicity = 2

                         Standard orientation:
 ---------------------------------------------------------------------
 Center     Atomic      Atomic             Coordinates (Angstroms)
 Number     Number       Type             X           Y           Z
 ---------------------------------------------------------------------
      1          6           0       -2.650880    1.676051    1.331066
      2          6           0       -3.051956    0.802390    0.139474
      3          6           0       -2.413437    1.303768   -1.172847
      4          7           0       -2.895081   -0.628462    0.433666
      5          6           0       -3.437052   -1.507594   -0.584039
      6          6           0       -1.709351   -1.148716    1.091763
      7          6           0       -0.407246   -1.299665    0.272443
      8          7           0        0.400265   -0.068485    0.355451
      9         16           0        1.655837    0.139384   -0.765594
     10          8           0        1.682790   -1.010803   -1.678943
     11          8           0        1.528178    1.513258   -1.275513
     12          6           0        3.151991    0.057913    0.277688
     13          6           0        3.170296    1.221106    1.265917
     14          6           0        3.249528   -1.311392    0.946791
     15          1           0       -1.566924    1.708816    1.492916
     16          1           0       -3.118181    1.312513    2.251810
     17          1           0       -2.978453    2.705984    1.158634
     18          1           0       -4.137318    0.932895    0.013342
     19          1           0       -1.319406    1.313817   -1.153764
     20          1           0       -2.719564    0.686847   -2.023478
     21          1           0       -2.741410    2.329798   -1.375610
     22          1           0       -2.827933   -1.594008   -1.501239
     23          1           0       -3.553208   -2.516271   -0.169396
     24          1           0       -4.429262   -1.148962   -0.881579
     25          1           0       -1.494439   -0.552957    1.985134
     26          1           0       -1.973775   -2.151988    1.450123
     27          1           0        0.190649   -2.113944    0.692792
     28          1           0       -0.634717   -1.567075   -0.764813
     29          1           0       -0.161639    0.776485    0.317650
     30          1           0        3.952259    0.173934   -0.463407
     31          1           0        2.338560    1.133370    1.971968
     32          1           0        4.106971    1.198968    1.833150
     33          1           0        3.095987    2.180686    0.749406
     34          1           0        3.202277   -2.118246    0.211596
     35          1           0        4.200921   -1.384315    1.484305
     36          1           0        2.439829   -1.440668    1.672247
 ---------------------------------------------------------------------

 SCF Done:  E(UB3LYP) =  -1014.53763519     A.U. after   27 cycles

 The electronic state is 2-A.
 Alpha  occ. eigenvalues --  -88.96284 -19.02469 -19.02379 -14.24742 -14.21095
 Alpha  occ. eigenvalues --  -10.12603 -10.11317 -10.11251 -10.10706 -10.09571
 Alpha  occ. eigenvalues --  -10.07960 -10.07955 -10.07279 -10.06716  -8.02582
 Alpha  occ. eigenvalues --   -5.98872  -5.98840  -5.98602  -1.02355  -0.91547
 Alpha  occ. eigenvalues --   -0.84193  -0.82244  -0.73071  -0.69138  -0.65341
 Alpha  occ. eigenvalues --   -0.60946  -0.60471  -0.58562  -0.56723  -0.54039
 Alpha  occ. eigenvalues --   -0.50085  -0.46486  -0.42223  -0.41745  -0.40490
 Alpha  occ. eigenvalues --   -0.39564  -0.38453  -0.37310  -0.36210  -0.35348
 Alpha  occ. eigenvalues --   -0.34851  -0.32909  -0.32649  -0.31396  -0.30924
 Alpha  occ. eigenvalues --   -0.30650  -0.30531  -0.29821  -0.28938  -0.27691
 Alpha  occ. eigenvalues --   -0.27145  -0.27045  -0.26548  -0.25688  -0.25133
 Alpha  occ. eigenvalues --   -0.24420  -0.23019  -0.21525  -0.20783  -0.18267
 Alpha  occ. eigenvalues --   -0.11727   0.04022
 Alpha virt. eigenvalues --    0.05605   0.06676   0.07292   0.08200   0.08633
 Alpha virt. eigenvalues --    0.08826   0.09568   0.09820   0.10227   0.10920
 Alpha virt. eigenvalues --    0.11500   0.12168   0.12441   0.12640   0.13341

  Beta  occ. eigenvalues --  -88.96281 -19.02464 -19.02375 -14.24727 -14.21097
  Beta  occ. eigenvalues --  -10.12594 -10.11304 -10.11237 -10.10681 -10.09544
  Beta  occ. eigenvalues --  -10.07924 -10.07920 -10.07252 -10.06703  -8.02579
  Beta  occ. eigenvalues --   -5.98868  -5.98838  -5.98598  -1.02343  -0.91538
  Beta  occ. eigenvalues --   -0.84174  -0.82225  -0.73042  -0.69108  -0.65304
  Beta  occ. eigenvalues --   -0.60882  -0.60434  -0.58514  -0.56672  -0.53988
  Beta  occ. eigenvalues --   -0.50040  -0.46432  -0.42194  -0.41724  -0.40465
  Beta  occ. eigenvalues --   -0.39533  -0.38420  -0.37271  -0.36188  -0.35315
  Beta  occ. eigenvalues --   -0.34822  -0.32861  -0.32617  -0.31356  -0.30896
  Beta  occ. eigenvalues --   -0.30617  -0.30499  -0.29786  -0.28910  -0.27660
  Beta  occ. eigenvalues --   -0.27113  -0.27003  -0.26518  -0.25662  -0.25112
  Beta  occ. eigenvalues --   -0.24383  -0.23002  -0.21519  -0.20758  -0.18249
  Beta  occ. eigenvalues --   -0.11707
  Beta virt. eigenvalues --    0.06088   0.06749   0.07251   0.07911   0.08626
  Beta virt. eigenvalues --    0.08987   0.09271   0.09969   0.10185   0.10604
  Beta virt. eigenvalues --    0.11177   0.11798   0.12401   0.12622   0.12898

 Mulliken charges and spin densities:
               1          2
     1  C    0.917817  -1.395444
     2  C   -1.009977   0.788525
     3  C   -0.062504  -0.373837
     4  N    0.086489   0.120966
     5  C    0.381971  -0.683676
     6  C   -0.129749  -0.637136
     7  C   -0.128310  -0.185958
     8  N   -0.188786   0.101284
     9  S    0.775094  -0.502458
    10  O   -0.143276   0.009795
    11  O   -0.202238   0.011697
    12  C   -1.371482   1.246916
    13  C    0.619074  -1.186843
    14  C    0.841850  -1.394691
    15  H   -0.136721   0.260842
    16  H   -0.195318   0.356664
    17  H   -0.019024   0.164982
    18  H   -0.317084   0.499906
    19  H    0.089289   0.069330
    20  H    0.081093   0.048573
    21  H    0.023738   0.123637
    22  H    0.044748   0.072231
    23  H   -0.173287   0.304377
    24  H   -0.191468   0.344203
    25  H    0.191611   0.000313
    26  H   -0.419687   0.618392
    27  H    0.189990  -0.041473
    28  H    0.231697  -0.010327
    29  H    0.293091  -0.086327
    30  H    0.007926   0.249576
    31  H    0.028072   0.136683
    32  H   -0.379371   0.548383
    33  H    0.062259   0.101164
    34  H    0.018563   0.148451
    35  H   -0.553358   0.732724
    36  H   -0.262733   0.438555
 Sum of Mulliken charges =  -1.00000   1.00000

 Dipole moment (field-independent basis, Debye):
    X=             -0.9132    Y=              0.9937    Z=             -2.3614  Tot=              2.7198
 Quadrupole moment (field-independent basis, Debye-Ang):
   XX=           -186.0081   YY=           -138.3786   ZZ=           -142.1729
   XY=              1.4100   XZ=             -4.2716   YZ=              3.1700

 Summary of Natural Population Analysis:

                                       Natural Population
                Natural  -----------------------------------------------
    Atom  No    Charge         Core      Valence    Rydberg      Total
 -----------------------------------------------------------------------
      C    1   -0.28934      0.99964     2.28362    0.00607     3.28934
      C    2   -0.00425      0.99959     1.99150    0.01316     3.00425
      C    3   -0.29750      0.99964     2.29172    0.00615     3.29750
      N    4   -0.28523      0.99972     2.76971    0.01580     3.78523
      C    5   -0.17746      0.99963     2.16889    0.00893     3.17746
      C    6   -0.08974      0.99959     2.07664    0.01351     3.08974
      C    7   -0.10138      0.99960     2.09037    0.01141     3.10138
      N    8   -0.44600      0.99975     2.93470    0.01156     3.94600
      S    9    1.09311      4.99925     1.80938    0.09826     6.90689
      O   10   -0.46569      0.99991     3.46073    0.00506     4.46569
      O   11   -0.46975      0.99991     3.46466    0.00519     4.46975
      C   12   -0.19553      0.99958     2.18113    0.01482     3.19553
      C   13   -0.29675      0.99963     2.28999    0.00713     3.29675
      C   14   -0.29696      0.99963     2.29010    0.00723     3.29696
      H   15    0.09247      0.00000     0.40634    0.00118     0.40753
      H   16    0.10571      0.00000     0.39290    0.00138     0.39429
      H   17    0.10330      0.00000     0.39592    0.00079     0.39670
      H   18    0.09288      0.00000     0.40552    0.00160     0.40712
      H   19    0.09648      0.00000     0.40205    0.00147     0.40352
      H   20    0.10122      0.00000     0.39796    0.00082     0.39878
      H   21    0.10013      0.00000     0.39899    0.00088     0.39987
      H   22    0.08049      0.00000     0.41810    0.00141     0.41951
      H   23    0.09582      0.00000     0.40318    0.00100     0.40418
      H   24    0.09620      0.00000     0.40267    0.00113     0.40380
      H   25    0.10164      0.00000     0.39681    0.00155     0.39836
      H   26    0.10090      0.00000     0.39771    0.00140     0.39910
      H   27    0.09867      0.00000     0.40007    0.00126     0.40133
      H   28    0.09884      0.00000     0.39973    0.00143     0.40116
      H   29    0.19749      0.00000     0.29893    0.00358     0.30251
      H   30    0.11209      0.00000     0.38672    0.00119     0.38791
      H   31    0.10687      0.00000     0.39169    0.00143     0.39313
      H   32    0.10698      0.00000     0.39155    0.00147     0.39302
      H   33    0.10988      0.00000     0.38904    0.00108     0.39012
      H   34    0.11011      0.00000     0.38870    0.00119     0.38989
      H   35    0.10853      0.00000     0.38954    0.00192     0.39147
      H   36    0.10576      0.00000     0.39248    0.00176     0.39424
 =======================================================================
   * Total *   -0.00000     17.99507    42.74976    0.25518    61.00000

 Normal termination of Gaussian 16 at Thu Dec 10 11:22:04 2020.
