 Gaussian 16, Revision A.03,

 -----------------------------------------------------------
 # opt freq B3LYP/6-31G(d) empiricaldispersion=gd3bj scf=xqc
 -----------------------------------------------------------

 ------------------------------
 CID_82438842_JID_7381_neutraal
 ------------------------------
 Symbolic Z-matrix:
 Charge =  0 Multiplicity = 1

 SCF Done:  E(RB3LYP) =  -1773.47487955     A.U. after   16 cycles
 SCF Done:  E(RB3LYP) =  -1773.48025704     A.U. after   14 cycles
 SCF Done:  E(RB3LYP) =  -1773.47975349     A.U. after   14 cycles
 SCF Done:  E(RB3LYP) =  -1773.47727821     A.U. after   13 cycles
 SCF Done:  E(RB3LYP) =  -1773.47834459     A.U. after   13 cycles
 SCF Done:  E(RB3LYP) =  -1773.48092047     A.U. after   11 cycles
 SCF Done:  E(RB3LYP) =  -1773.48219102     A.U. after   13 cycles
 SCF Done:  E(RB3LYP) =  -1773.48283830     A.U. after   13 cycles
 SCF Done:  E(RB3LYP) =  -1773.48337772     A.U. after   13 cycles
 SCF Done:  E(RB3LYP) =  -1773.48272502     A.U. after   15 cycles
 SCF Done:  E(RB3LYP) =  -1773.48481353     A.U. after   11 cycles
 SCF Done:  E(RB3LYP) =  -1773.48483183     A.U. after   10 cycles
 SCF Done:  E(RB3LYP) =  -1773.48483365     A.U. after   10 cycles
 SCF Done:  E(RB3LYP) =  -1773.48483459     A.U. after    8 cycles
 SCF Done:  E(RB3LYP) =  -1773.48483469     A.U. after    7 cycles
 SCF Done:  E(RB3LYP) =  -1773.48483473     A.U. after    7 cycles
 Optimization completed.
    -- Stationary point found.
 Normal termination of Gaussian 16 at Mon Dec 14 19:03:57 2020.

 --------------------------------------------------------------------
 #N Geom=AllCheck Guess=TCheck SCRF=Check GenChk RB3LYP/6-31G(d) Freq
 --------------------------------------------------------------------

 Structure from the checkpoint file:  "JID_7381.chk"
 ------------------------------
 CID_82438842_JID_7381_neutraal
 ------------------------------
 Charge =  0 Multiplicity = 1

 SCF Done:  E(RB3LYP) =  -1773.48483473     A.U. after    1 cycles

  Exact polarizability: 222.148 -17.648 195.652   3.928   7.852 159.502
 Approx polarizability: 309.133 -46.059 332.505   6.807  25.149 266.540

                      1                      2                      3
                      A                      A                      A
 Frequencies --     25.5972                27.1877                37.7922
 Red. masses --      4.7877                 3.2876                 5.3513
 Frc consts  --      0.0018                 0.0014                 0.0045
 IR Inten    --      1.8271                 0.3642                 1.4966

                      4                      5                      6
                      A                      A                      A
 Frequencies --     51.1896                65.6835                96.6919
 Red. masses --      4.1456                 3.4747                 3.2579
 Frc consts  --      0.0064                 0.0088                 0.0179
 IR Inten    --      2.0227                 1.8660                 2.3289

                      7                      8                      9
                      A                      A                      A
 Frequencies --    104.2600               125.7890               153.1725
 Red. masses --      8.8937                 4.0432                 4.4419
 Frc consts  --      0.0570                 0.0377                 0.0614
 IR Inten    --      2.1761                 1.2253                 2.9603

                     10                     11                     12
                      A                      A                      A
 Frequencies --    172.8989               208.5924               231.1094
 Red. masses --      3.4842                 1.9812                 1.5306
 Frc consts  --      0.0614                 0.0508                 0.0482
 IR Inten    --      0.2329                 0.2491                 0.2505

                     13                     14                     15
                      A                      A                      A
 Frequencies --    240.8596               250.6006               261.3913
 Red. masses --      1.2859                 1.6147                 1.1441
 Frc consts  --      0.0440                 0.0597                 0.0461
 IR Inten    --      0.4634                 1.2529                 0.9302

                     16                     17                     18
                      A                      A                      A
 Frequencies --    265.9420               270.1382               286.8290
 Red. masses --      1.4963                 1.7777                 2.4167
 Frc consts  --      0.0624                 0.0764                 0.1171
 IR Inten    --      1.2523                 0.2620                 1.3167

                     19                     20                     21
                      A                      A                      A
 Frequencies --    294.9069               317.1728               325.4315
 Red. masses --      1.8523                 2.4488                 1.4353
 Frc consts  --      0.0949                 0.1451                 0.0896
 IR Inten    --      4.0860                44.6781               146.7492

                     22                     23                     24
                      A                      A                      A
 Frequencies --    327.8038               347.8548               353.2194
 Red. masses --      3.3028                 2.6463                 2.8135
 Frc consts  --      0.2091                 0.1887                 0.2068
 IR Inten    --      1.7475                 1.0274                 8.5532

                     25                     26                     27
                      A                      A                      A
 Frequencies --    372.3199               399.0411               454.4579
 Red. masses --      2.7036                 2.4360                 2.9030
 Frc consts  --      0.2208                 0.2285                 0.3533
 IR Inten    --     15.5325                 0.3842                 2.5921

                     28                     29                     30
                      A                      A                      A
 Frequencies --    468.6643               484.8409               529.8009
 Red. masses --      2.9724                 5.4563                 4.8128
 Frc consts  --      0.3847                 0.7557                 0.7959
 IR Inten    --      1.2827                 0.8344                 5.9706

                     31                     32                     33
                      A                      A                      A
 Frequencies --    557.2331               580.2457               601.0507
 Red. masses --      3.9529                 3.9658                 3.6846
 Frc consts  --      0.7232                 0.7867                 0.7843
 IR Inten    --      0.7875                 0.8337                 4.3245

                     34                     35                     36
                      A                      A                      A
 Frequencies --    613.9463               630.0044               682.6102
 Red. masses --      3.5901                 1.4432                 9.5443
 Frc consts  --      0.7973                 0.3375                 2.6202
 IR Inten    --      1.2131                 4.3664                 2.3449

                     37                     38                     39
                      A                      A                      A
 Frequencies --    727.2735               730.6406               744.7534
 Red. masses --      6.0851                 6.4629                 8.1712
 Frc consts  --      1.8963                 2.0328                 2.6703
 IR Inten    --      3.5089                 2.4192                 4.7717

                     40                     41                     42
                      A                      A                      A
 Frequencies --    811.9876               888.7653               901.6921
 Red. masses --      3.5549                 2.2258                 2.6345
 Frc consts  --      1.3810                 1.0359                 1.2620
 IR Inten    --      1.2463                 4.8252                 7.8908

                     43                     44                     45
                      A                      A                      A
 Frequencies --    909.4877               937.4607               943.7210
 Red. masses --      2.3964                 3.6923                 1.7175
 Frc consts  --      1.1679                 1.9119                 0.9012
 IR Inten    --     41.7660                17.6420                 1.4077

                     46                     47                     48
                      A                      A                      A
 Frequencies --    944.3318               953.8159               968.0624
 Red. masses --      1.2158                 1.6649                 1.4354
 Frc consts  --      0.6388                 0.8924                 0.7925
 IR Inten    --      2.6905                 0.3872                 0.1158

                     49                     50                     51
                      A                      A                      A
 Frequencies --    977.9183              1060.4525              1063.1661
 Red. masses --      1.2058                 1.4060                 1.4167
 Frc consts  --      0.6794                 0.9316                 0.9435
 IR Inten    --      0.2357                 0.0351                 3.4525

                     52                     53                     54
                      A                      A                      A
 Frequencies --   1093.0239              1116.9905              1131.7790
 Red. masses --      1.4261                 2.5854                 2.6815
 Frc consts  --      1.0038                 1.9006                 2.0238
 IR Inten    --      7.3303                18.1768                33.4729

                     55                     56                     57
                      A                      A                      A
 Frequencies --   1141.1401              1197.3870              1227.2964
 Red. masses --      2.3024                 1.8159                 1.8805
 Frc consts  --      1.7665                 1.5339                 1.6689
 IR Inten    --      4.4909                 5.6181                10.5159

                     58                     59                     60
                      A                      A                      A
 Frequencies --   1240.2907              1248.1539              1252.1580
 Red. masses --      1.9547                 2.4369                 2.4733
 Frc consts  --      1.7717                 2.2368                 2.2847
 IR Inten    --     16.0825                28.2305                21.6849

                     61                     62                     63
                      A                      A                      A
 Frequencies --   1306.4564              1322.3859              1323.4454
 Red. masses --      1.4768                 1.7007                 2.0462
 Frc consts  --      1.4852                 1.7522                 2.1116
 IR Inten    --      5.6323                33.6524                30.8677

                     64                     65                     66
                      A                      A                      A
 Frequencies --   1341.2397              1353.6146              1392.4905
 Red. masses --      4.4446                 1.3318                 4.3708
 Frc consts  --      4.7108                 1.4378                 4.9934
 IR Inten    --    120.5816                 0.8369               127.3231

                     67                     68                     69
                      A                      A                      A
 Frequencies --   1421.9177              1428.6391              1430.3307
 Red. masses --      1.2224                 1.2391                 1.2363
 Frc consts  --      1.4562                 1.4901                 1.4902
 IR Inten    --      3.8193                 5.6385                 8.3981

                     70                     71                     72
                      A                      A                      A
 Frequencies --   1447.3269              1458.9957              1486.4195
 Red. masses --      1.2229                 1.2543                 1.1181
 Frc consts  --      1.5094                 1.5731                 1.4556
 IR Inten    --      1.3121                11.3450                12.4452

                     73                     74                     75
                      A                      A                      A
 Frequencies --   1505.8673              1507.7516              1511.1469
 Red. masses --      3.6096                 1.1211                 1.0463
 Frc consts  --      4.8226                 1.5016                 1.4078
 IR Inten    --     43.6618                 4.9662                 1.4097

                     76                     77                     78
                      A                      A                      A
 Frequencies --   1514.0654              1520.4760              1524.7845
 Red. masses --      1.0827                 1.0611                 1.0621
 Frc consts  --      1.4623                 1.4453                 1.4549
 IR Inten    --      1.5635                 3.3312                 3.3419

                     79                     80                     81
                      A                      A                      A
 Frequencies --   1529.0170              1531.5785              1538.0445
 Red. masses --      1.0442                 1.0551                 1.0525
 Frc consts  --      1.4384                 1.4583                 1.4669
 IR Inten    --      6.8547                10.9654                 2.0931

                     82                     83                     84
                      A                      A                      A
 Frequencies --   1539.3156              1554.7856              1569.8172
 Red. masses --      1.0595                 1.1138                 8.0703
 Frc consts  --      1.4791                 1.5863                11.7176
 IR Inten    --      1.5422                 8.8958                58.6378

                     85                     86                     87
                      A                      A                      A
 Frequencies --   1649.4979              3043.6826              3047.6237
 Red. masses --      1.2538                 1.0353                 1.0469
 Frc consts  --      2.0099                 5.6510                 5.7292
 IR Inten    --    148.5745                27.5079                20.5322

                     88                     89                     90
                      A                      A                      A
 Frequencies --   3052.4103              3056.1406              3056.8121
 Red. masses --      1.0626                 1.0558                 1.0383
 Frc consts  --      5.8329                 5.8102                 5.7163
 IR Inten    --     13.6252                27.9328                11.2626

                     91                     92                     93
                      A                      A                      A
 Frequencies --   3065.9527              3080.5345              3105.3876
 Red. masses --      1.0396                 1.0591                 1.1003
 Frc consts  --      5.7574                 5.9216                 6.2519
 IR Inten    --     34.5472                 7.0805                43.2661

                     94                     95                     96
                      A                      A                      A
 Frequencies --   3116.1934              3119.3433              3124.3524
 Red. masses --      1.0980                 1.1024                 1.0930
 Frc consts  --      6.2821                 6.3202                 6.2861
 IR Inten    --     14.8404                 8.9788                35.1344

                     97                     98                     99
                      A                      A                      A
 Frequencies --   3126.5302              3128.5988              3130.1203
 Red. masses --      1.1018                 1.1021                 1.1058
 Frc consts  --      6.3456                 6.3556                 6.3836
 IR Inten    --     19.1610                49.9664                 4.2771

                    100                    101                    102
                      A                      A                      A
 Frequencies --   3139.5909              3154.6335              3163.1826
 Red. masses --      1.1033                 1.1019                 1.0992
 Frc consts  --      6.4075                 6.4611                 6.4803
 IR Inten    --     18.7932                20.4192                13.4030

                    103                    104                    105
                      A                      A                      A
 Frequencies --   3163.2415              3567.8534              3699.2740
 Red. masses --      1.0984                 1.0443                 1.1058
 Frc consts  --      6.4754                 7.8322                 8.9157
 IR Inten    --     15.2639                48.3416                43.6907

 - Thermochemistry -
 -------------------
 Temperature   298.150 Kelvin.  Pressure   1.00000 Atm.
 Atom     1 has atomic number  6 and mass  12.00000

 Molecular mass:   288.07886 amu.
 Principal axes and moments of inertia in atomic units:
                           1         2         3
     Eigenvalues --  3674.880017475.466019051.11613
           X            0.99844   0.05570  -0.00473
           Y           -0.05576   0.99838  -0.01136
           Z            0.00409   0.01161   0.99992
 This molecule is an asymmetric top.
 Rotational symmetry number  1.
 Warning -- assumption of classical behavior for rotation
           may cause significant error
 Rotational temperatures (Kelvin)      0.02357     0.01159     0.00957
 Rotational constants (GHZ):           0.49110     0.24142     0.19939
 Zero-point vibrational energy     809147.8 (Joules/Mol)
                                  193.39096 (Kcal/Mol)
 Warning -- explicit consideration of  34 degrees of freedom as
           vibrations may cause significant error
 Vibrational temperatures:     36.83    39.12    54.37    73.65    94.50
          (Kelvin)            139.12   150.01   180.98   220.38   248.76
                              300.12   332.51   346.54   360.56   376.08
                              382.63   388.67   412.68   424.31   456.34
                              468.22   471.64   500.49   508.20   535.69
                              574.13   653.86   674.30   697.58   762.27
                              801.73   834.84   864.78   883.33   906.44
                              982.12  1046.38  1051.23  1071.53  1168.27
                             1278.74  1297.33  1308.55  1348.80  1357.80
                             1358.68  1372.33  1392.83  1407.01  1525.75
                             1529.66  1572.62  1607.10  1628.38  1641.85
                             1722.77  1765.81  1784.50  1795.82  1801.58
                             1879.70  1902.62  1904.14  1929.74  1947.55
                             2003.48  2045.82  2055.49  2057.93  2082.38
                             2099.17  2138.63  2166.61  2169.32  2174.20
                             2178.40  2187.63  2193.82  2199.91  2203.60
                             2212.90  2214.73  2236.99  2258.62  2373.26
                             4379.18  4384.85  4391.74  4397.10  4398.07
                             4411.22  4432.20  4467.96  4483.51  4488.04
                             4495.25  4498.38  4501.36  4503.54  4517.17
                             4538.81  4551.11  4551.20  5133.35  5322.43

 Zero-point correction=                           0.308188 (Hartree/Particle)
 Thermal correction to Energy=                    0.328583
 Thermal correction to Enthalpy=                  0.329527
 Thermal correction to Gibbs Free Energy=         0.258155
 Sum of electronic and zero-point Energies=          -1773.176647
 Sum of electronic and thermal Energies=             -1773.156252
 Sum of electronic and thermal Enthalpies=           -1773.155308
 Sum of electronic and thermal Free Energies=        -1773.226679

                     E (Thermal)             CV                S
                      KCal/Mol        Cal/Mol-Kelvin    Cal/Mol-Kelvin
 Total                  206.189             75.242            150.214
 Electronic               0.000              0.000              0.000
 Translational            0.889              2.981             42.872
 Rotational               0.889              2.981             33.874
 Vibrational            204.411             69.281             73.468
 Vibration     1          0.593              1.985              6.144
 Vibration     2          0.593              1.984              6.025
 Vibration     3          0.594              1.982              5.372
 Vibration     4          0.595              1.977              4.771
 Vibration     5          0.597              1.971              4.279
 Vibration     6          0.603              1.952              3.520
 Vibration     7          0.605              1.946              3.373
 Vibration     8          0.611              1.927              3.009
 Vibration     9          0.619              1.899              2.632
 Vibration    10          0.626              1.876              2.404
 Vibration    11          0.642              1.828              2.056
 Vibration    12          0.653              1.793              1.870
 Vibration    13          0.658              1.778              1.797
 Vibration    14          0.663              1.762              1.726
 Vibration    15          0.669              1.743              1.652
 Vibration    16          0.672              1.736              1.622
 Vibration    17          0.674              1.728              1.595
 Vibration    18          0.684              1.698              1.493
 Vibration    19          0.689              1.683              1.446
 Vibration    20          0.704              1.641              1.325
 Vibration    21          0.710              1.625              1.283
 Vibration    22          0.711              1.620              1.271
 Vibration    23          0.725              1.580              1.176
 Vibration    24          0.729              1.569              1.152
 Vibration    25          0.744              1.529              1.070
 Vibration    26          0.765              1.472              0.966
 Vibration    27          0.813              1.351              0.782
 Vibration    28          0.826              1.320              0.741
 Vibration    29          0.841              1.284              0.697
 Vibration    30          0.885              1.184              0.588
 Vibration    31          0.913              1.124              0.529
 Vibration    32          0.937              1.074              0.485
 Vibration    33          0.959              1.030              0.448
 Vibration    34          0.973              1.002              0.426

                           ! Non-Optimized Parameters !
 Normal termination of Gaussian 16 at Mon Dec 14 19:21:31 2020.

 ----------------------------------------------------------------------
 # B3LYP/6-311++G(d,p) empiricaldispersion=gd3bj scf=xqc pop=npa geom=c
 heck
 ----------------------------------------------------------------------

 --------------------------------------
 CID_82438842_JID_7381_Energie_neutraal
 --------------------------------------
 Structure from the checkpoint file:  "JID_7381.chk"
 Charge =  0 Multiplicity = 1

 SCF Done:  E(RB3LYP) =  -1773.72571169     A.U. after   17 cycles
 Normal termination of Gaussian 16 at Mon Dec 14 19:31:07 2020.

 ----------------------------------------------------------------------
 # B3LYP/6-311++G(d,p) empiricaldispersion=gd3bj scf=xqc pop=npa geom=c
 heck
 ----------------------------------------------------------------------

 ------------------------------------
 CID_82438842_JID_7381_Energie_kation
 ------------------------------------
 Structure from the checkpoint file:  "JID_7381.chk"
 Charge =  1 Multiplicity = 2

 SCF Done:  E(UB3LYP) =  -1773.44485023     A.U. after   28 cycles
 Normal termination of Gaussian 16 at Mon Dec 14 19:53:16 2020.
 Gaussian 16:  ES64L-G16RevA.03 25-Dec-2016

 ----------------------------------------------------------------------
 # B3LYP/6-311++G(d,p) empiricaldispersion=gd3bj scf=xqc pop=npa geom=c
 heck
 ----------------------------------------------------------------------

 -----------------------------------
 CID_82438842_JID_7381_Energie_anion
 -----------------------------------
 Structure from the checkpoint file:  "JID_7381.chk"
 Charge = -1 Multiplicity = 2

                         Standard orientation:
 ---------------------------------------------------------------------
 Center     Atomic      Atomic             Coordinates (Angstroms)
 Number     Number       Type             X           Y           Z
 ---------------------------------------------------------------------
      1          6           0       -3.715884   -1.724549    0.878845
      2          6           0       -3.574659   -0.215168    1.077731
      3          6           0       -2.370211    0.153134    1.951161
      4         16           0       -3.650367    0.734607   -0.511097
      5          6           0       -2.420369   -0.101362   -1.593693
      6          6           0       -1.011336   -0.068504   -1.086585
      7          7           0       -0.352524    1.016243   -0.801346
      8          6           0        0.901745    0.765178   -0.285072
      9          6           0        1.195008   -0.583320   -0.160091
     10         16           0       -0.126038   -1.544581   -0.780496
     11          6           0        2.355440   -1.306814    0.400936
     12         16           0        3.211447   -2.452523   -0.450388
     13          7           0        2.642252   -0.987504    1.680806
     14          6           0        1.771069    1.983502    0.031329
     15          6           0        1.434984    2.476148    1.456359
     16          6           0        3.276923    1.688946   -0.093610
     17          6           0        1.423777    3.109175   -0.967296
     18          1           0       -2.830890   -2.147471    0.392702
     19          1           0       -4.594988   -1.966851    0.274544
     20          1           0       -3.817163   -2.220451    1.851814
     21          1           0       -4.481686    0.154977    1.571880
     22          1           0       -1.434838   -0.224770    1.530556
     23          1           0       -2.279565    1.237230    2.058926
     24          1           0       -2.491164   -0.289047    2.948573
     25          1           0       -2.732031   -1.128293   -1.800551
     26          1           0       -2.483507    0.460081   -2.531422
     27          1           0        2.048154   -0.366960    2.212669
     28          1           0        3.424069   -1.438773    2.137112
     29          1           0        1.720630    1.741239    2.218649
     30          1           0        1.976846    3.403415    1.675039
     31          1           0        0.362342    2.671174    1.556219
     32          1           0        3.511397    1.257914   -1.072150
     33          1           0        3.836632    2.625071    0.007988
     34          1           0        3.639110    1.002844    0.673415
     35          1           0        1.635726    2.796356   -1.995270
     36          1           0        0.368743    3.381515   -0.910035
     37          1           0        2.034493    3.991366   -0.745267
 ---------------------------------------------------------------------

 SCF Done:  E(UB3LYP) =  -1773.74465286     A.U. after   26 cycles

 The electronic state is 2-A.
 Alpha  occ. eigenvalues --  -88.73540 -88.73248 -88.63868 -14.20165 -14.17399
 Alpha  occ. eigenvalues --  -10.11284 -10.10039 -10.09102 -10.08987 -10.07798
 Alpha  occ. eigenvalues --  -10.07542 -10.06829 -10.06471 -10.06308 -10.05711
 Alpha  occ. eigenvalues --  -10.04523 -10.04074  -7.82232  -7.81880  -7.72638
 Alpha  occ. eigenvalues --   -5.78509  -5.78287  -5.78158  -5.77913  -5.77860
 Alpha  occ. eigenvalues --   -5.77228  -5.68989  -5.68545  -5.68206  -0.83115
 Alpha  occ. eigenvalues --   -0.80286  -0.72535  -0.70817  -0.66819  -0.66333
 Alpha  occ. eigenvalues --   -0.60636  -0.59793  -0.58275  -0.58031  -0.57152
 Alpha  occ. eigenvalues --   -0.54675  -0.49267  -0.47248  -0.44593  -0.42460
 Alpha  occ. eigenvalues --   -0.41120  -0.39722  -0.37066  -0.36382  -0.35439
 Alpha  occ. eigenvalues --   -0.33369  -0.32907  -0.32528  -0.32179  -0.31115
 Alpha  occ. eigenvalues --   -0.30546  -0.29389  -0.28722  -0.27861  -0.27437
 Alpha  occ. eigenvalues --   -0.26378  -0.26075  -0.25839  -0.25593  -0.24225
 Alpha  occ. eigenvalues --   -0.23067  -0.22232  -0.21920  -0.21579  -0.20307
 Alpha  occ. eigenvalues --   -0.19888  -0.14882  -0.14164  -0.12557  -0.11219
 Alpha  occ. eigenvalues --   -0.08890  -0.06258   0.03462
 Alpha virt. eigenvalues --    0.06704   0.07638   0.08388   0.08868   0.09116
 Alpha virt. eigenvalues --    0.09806   0.10006   0.10335   0.11077   0.11412
 Alpha virt. eigenvalues --    0.11898   0.12204   0.12356   0.13148   0.13551

  Beta  occ. eigenvalues --  -88.73471 -88.73233 -88.63813 -14.20029 -14.17483
  Beta  occ. eigenvalues --  -10.11282 -10.10057 -10.08786 -10.08419 -10.07809
  Beta  occ. eigenvalues --  -10.07542 -10.06667 -10.06471 -10.06215 -10.05698
  Beta  occ. eigenvalues --  -10.04513 -10.04072  -7.82168  -7.81864  -7.72589
  Beta  occ. eigenvalues --   -5.78444  -5.78264  -5.78117  -5.77892  -5.77680
  Beta  occ. eigenvalues --   -5.77217  -5.68975  -5.68362  -5.68170  -0.82899
  Beta  occ. eigenvalues --   -0.79760  -0.72487  -0.70738  -0.66572  -0.66120
  Beta  occ. eigenvalues --   -0.60191  -0.59783  -0.58071  -0.57750  -0.57128
  Beta  occ. eigenvalues --   -0.54564  -0.48812  -0.47140  -0.44393  -0.42161
  Beta  occ. eigenvalues --   -0.40891  -0.39561  -0.37001  -0.36261  -0.35362
  Beta  occ. eigenvalues --   -0.33271  -0.32816  -0.32455  -0.32093  -0.31003
  Beta  occ. eigenvalues --   -0.30188  -0.29263  -0.28566  -0.27665  -0.27240
  Beta  occ. eigenvalues --   -0.26112  -0.26009  -0.25715  -0.25502  -0.23620
  Beta  occ. eigenvalues --   -0.22494  -0.22104  -0.21684  -0.21192  -0.20178
  Beta  occ. eigenvalues --   -0.19379  -0.14391  -0.14104  -0.12387  -0.10068
  Beta  occ. eigenvalues --   -0.07761  -0.05997
  Beta virt. eigenvalues --    0.06643   0.07585   0.08290   0.08535   0.09115
  Beta virt. eigenvalues --    0.09613   0.09875   0.10368   0.10718   0.11161
  Beta virt. eigenvalues --    0.11557   0.11842   0.12120   0.12478   0.13169

 Mulliken charges and spin densities:
               1          2
     1  C   -0.734663  -0.007659
     2  C    0.338981   0.000938
     3  C   -0.634658  -0.008935
     4  S    0.051472   0.005156
     5  C    0.114780  -0.042214
     6  C    0.061821   0.140009
     7  N    0.349207  -0.044898
     8  C   -0.865394   0.187136
     9  C    0.509436  -0.184635
    10  S   -0.387319   0.176384
    11  C   -0.296650   0.327357
    12  S   -0.970054   0.207909
    13  N   -0.259956   0.101315
    14  C    0.576204   0.002590
    15  C   -0.588355  -0.001542
    16  C   -0.657480  -0.049525
    17  C   -0.542898  -0.027876
    18  H    0.160692  -0.005198
    19  H    0.139919   0.002678
    20  H    0.108525   0.000888
    21  H    0.210121   0.015867
    22  H    0.126660   0.016723
    23  H    0.110679  -0.000370
    24  H    0.126858   0.001918
    25  H    0.159684   0.021364
    26  H    0.168542   0.070790
    27  H    0.203689   0.004058
    28  H    0.280392  -0.002128
    29  H    0.061845  -0.003977
    30  H    0.140301   0.001734
    31  H    0.161269   0.004350
    32  H    0.121667   0.016621
    33  H    0.122255  -0.006414
    34  H    0.136200   0.060981
    35  H    0.150607   0.003094
    36  H    0.130628   0.010748
    37  H    0.114994   0.004762
 Sum of Mulliken charges =  -1.00000   1.00000

 Dipole moment (field-independent basis, Debye):
    X=             -5.7028    Y=              4.0335    Z=              3.8107  Tot=              7.9570
 Quadrupole moment (field-independent basis, Debye-Ang):
   XX=           -180.8164   YY=           -163.9227   ZZ=           -134.6817
   XY=             24.8565   XZ=              3.0149   YZ=             -1.7857

 Summary of Natural Population Analysis:

                                       Natural Population
                Natural  -----------------------------------------------
    Atom  No    Charge         Core      Valence    Rydberg      Total
 -----------------------------------------------------------------------
      C    1   -0.29282      0.99963     2.28796    0.00523     3.29282
      C    2   -0.16930      0.99959     2.15643    0.01327     3.16930
      C    3   -0.29139      0.99963     2.28564    0.00611     3.29139
      S    4    0.09093      4.99962     2.89112    0.01833     7.90907
      C    5   -0.26871      0.99951     2.25809    0.01110     3.26871
      C    6    0.06226      0.99960     1.91719    0.02095     2.93774
      N    7   -0.27235      0.99962     2.76099    0.01174     3.77235
      C    8    0.09675      0.99941     1.88663    0.01722     2.90325
      C    9   -0.11946      0.99937     2.10613    0.01395     3.11946
      S   10    0.22811      4.99938     2.75366    0.01885     7.77189
      C   11    0.12628      0.99956     1.85120    0.02295     2.87372
      S   12   -0.12143      4.99955     3.10789    0.01399     8.12143
      N   13   -0.37032      0.99967     2.86000    0.01065     3.87032
      C   14   -0.05561      0.99956     2.04690    0.00915     3.05561
      C   15   -0.27426      0.99963     2.26954    0.00509     3.27426
      C   16   -0.28514      0.99964     2.27926    0.00623     3.28514
      C   17   -0.27884      0.99964     2.27335    0.00585     3.27884
      H   18    0.10652      0.00000     0.39239    0.00109     0.39348
      H   19    0.09980      0.00000     0.39939    0.00081     0.40020
      H   20    0.09673      0.00000     0.40235    0.00092     0.40327
      H   21    0.09662      0.00000     0.40225    0.00114     0.40338
      H   22    0.11182      0.00000     0.38690    0.00128     0.38818
      H   23    0.10345      0.00000     0.39576    0.00079     0.39655
      H   24    0.09169      0.00000     0.40738    0.00094     0.40831
      H   25    0.10418      0.00000     0.39440    0.00142     0.39582
      H   26    0.11589      0.00000     0.38203    0.00208     0.38411
      H   27    0.18743      0.00000     0.31116    0.00141     0.31257
      H   28    0.19205      0.00000     0.30668    0.00127     0.30795
      H   29    0.09133      0.00000     0.40774    0.00093     0.40867
      H   30    0.09168      0.00000     0.40746    0.00085     0.40832
      H   31    0.10267      0.00000     0.39659    0.00074     0.39733
      H   32    0.10699      0.00000     0.39222    0.00079     0.39301
      H   33    0.08924      0.00000     0.40994    0.00082     0.41076
      H   34    0.10892      0.00000     0.38980    0.00128     0.39108
      H   35    0.10057      0.00000     0.39873    0.00070     0.39943
      H   36    0.10929      0.00000     0.38995    0.00076     0.39071
      H   37    0.08844      0.00000     0.41077    0.00079     0.41156
 =======================================================================
   * Total *   -0.00000     28.99264    47.77588    0.23149    77.00000

 Normal termination of Gaussian 16 at Mon Dec 14 20:13:00 2020.
