 Gaussian 16, Revision A.03,

 -----------------------------------------------------------
 # opt freq B3LYP/6-31G(d) empiricaldispersion=gd3bj scf=xqc
 -----------------------------------------------------------

 -------------------------------
 CID_43173059_JID_10723_neutraal
 -------------------------------
 Symbolic Z-matrix:
 Charge =  0 Multiplicity = 1

 SCF Done:  E(RB3LYP) =  -1334.64161114     A.U. after   15 cycles
 SCF Done:  E(RB3LYP) =  -1334.64815419     A.U. after   13 cycles
 SCF Done:  E(RB3LYP) =  -1334.65014191     A.U. after   13 cycles
 SCF Done:  E(RB3LYP) =  -1334.65100627     A.U. after   12 cycles
 SCF Done:  E(RB3LYP) =  -1334.65227294     A.U. after   12 cycles
 SCF Done:  E(RB3LYP) =  -1334.65293734     A.U. after   12 cycles
 SCF Done:  E(RB3LYP) =  -1334.65316661     A.U. after   12 cycles
 SCF Done:  E(RB3LYP) =  -1334.65329054     A.U. after   10 cycles
 SCF Done:  E(RB3LYP) =  -1334.65335015     A.U. after   11 cycles
 SCF Done:  E(RB3LYP) =  -1334.65337558     A.U. after   10 cycles
 SCF Done:  E(RB3LYP) =  -1334.65341887     A.U. after    9 cycles
 SCF Done:  E(RB3LYP) =  -1334.65341908     A.U. after    8 cycles
 SCF Done:  E(RB3LYP) =  -1334.65341918     A.U. after    8 cycles
 SCF Done:  E(RB3LYP) =  -1334.65341921     A.U. after    7 cycles
 SCF Done:  E(RB3LYP) =  -1334.65341922     A.U. after    6 cycles
 Optimization completed.
    -- Stationary point found.
 Normal termination of Gaussian 16 at Sat Dec 12 16:14:12 2020.

 --------------------------------------------------------------------
 #N Geom=AllCheck Guess=TCheck SCRF=Check GenChk RB3LYP/6-31G(d) Freq
 --------------------------------------------------------------------

 Structure from the checkpoint file:  "JID_10723.chk"
 -------------------------------
 CID_43173059_JID_10723_neutraal
 -------------------------------
 Charge =  0 Multiplicity = 1

 SCF Done:  E(RB3LYP) =  -1334.65341922     A.U. after    2 cycles

  Exact polarizability: 208.641  19.232 157.490  -2.286   0.265 144.798
 Approx polarizability: 286.812  33.605 213.972 -10.742  -4.212 264.452

                      1                      2                      3
                      A                      A                      A
 Frequencies --     16.1441                23.7851                41.9510
 Red. masses --      7.0281                 5.5023                 7.1378
 Frc consts  --      0.0011                 0.0018                 0.0074
 IR Inten    --      1.2895                 0.3848                 1.4288

                      4                      5                      6
                      A                      A                      A
 Frequencies --     57.2478                62.3835                68.7678
 Red. masses --      5.0915                 3.6711                 3.4393
 Frc consts  --      0.0098                 0.0084                 0.0096
 IR Inten    --      0.7997                 1.2953                 0.2435

                      7                      8                      9
                      A                      A                      A
 Frequencies --     99.2436               102.4778               120.5868
 Red. masses --      3.9171                 3.4378                 5.4551
 Frc consts  --      0.0227                 0.0213                 0.0467
 IR Inten    --      7.0640                 1.0193                 2.1392

                     10                     11                     12
                      A                      A                      A
 Frequencies --    143.6897               171.9725               190.2671
 Red. masses --      4.7523                 6.7101                 4.3866
 Frc consts  --      0.0578                 0.1169                 0.0936
 IR Inten    --      1.8745                 0.8712                 0.5144

                     13                     14                     15
                      A                      A                      A
 Frequencies --    208.7738               232.7652               261.4339
 Red. masses --      4.7704                 3.7760                 1.2656
 Frc consts  --      0.1225                 0.1205                 0.0510
 IR Inten    --      5.0903                 1.0000                 0.1531

                     16                     17                     18
                      A                      A                      A
 Frequencies --    277.3654               299.2820               325.6617
 Red. masses --      6.2356                 3.3266                 4.7360
 Frc consts  --      0.2826                 0.1756                 0.2959
 IR Inten    --      3.2728                 4.1403                 0.5273

                     19                     20                     21
                      A                      A                      A
 Frequencies --    350.6235               363.2186               370.1094
 Red. masses --      4.6932                 3.5152                 4.1822
 Frc consts  --      0.3399                 0.2732                 0.3375
 IR Inten    --      1.8607                 1.4801                 0.6277

                     22                     23                     24
                      A                      A                      A
 Frequencies --    416.7233               430.7566               473.9552
 Red. masses --      5.1326                 3.2780                 4.1741
 Frc consts  --      0.5251                 0.3584                 0.5524
 IR Inten    --      1.4720                 0.1719                15.2337

                     25                     26                     27
                      A                      A                      A
 Frequencies --    492.0294               499.0348               536.6003
 Red. masses --      3.8181                 3.2432                 3.1943
 Frc consts  --      0.5446                 0.4759                 0.5419
 IR Inten    --      2.9017                10.4379                56.7038

                     28                     29                     30
                      A                      A                      A
 Frequencies --    560.5384               569.6291               609.1708
 Red. masses --      3.1871                 2.9584                 3.6365
 Frc consts  --      0.5900                 0.5656                 0.7951
 IR Inten    --     18.9182               110.8305                 6.3032

                     31                     32                     33
                      A                      A                      A
 Frequencies --    632.3888               654.5239               692.4635
 Red. masses --      2.9322                 5.5038                 1.8286
 Frc consts  --      0.6909                 1.3892                 0.5166
 IR Inten    --     48.1769                16.3149                81.1050

                     34                     35                     36
                      A                      A                      A
 Frequencies --    723.6647               739.5624               772.0188
 Red. masses --      3.1721                 3.1200                 3.0240
 Frc consts  --      0.9787                 1.0054                 1.0619
 IR Inten    --     72.6066                36.1591                10.6625

                     37                     38                     39
                      A                      A                      A
 Frequencies --    784.8434               794.8731               818.3711
 Red. masses --      1.8739                 2.0485                 1.9878
 Frc consts  --      0.6801                 0.7626                 0.7844
 IR Inten    --     18.2311                81.4715                 9.5655

                     40                     41                     42
                      A                      A                      A
 Frequencies --    828.0346               847.6151               862.7828
 Red. masses --      1.3394                 1.8549                 1.7510
 Frc consts  --      0.5411                 0.7852                 0.7680
 IR Inten    --     14.0179                 7.4393                30.8438

                     43                     44                     45
                      A                      A                      A
 Frequencies --    864.9237               905.7055               922.9154
 Red. masses --      2.2468                 3.3420                 2.4054
 Frc consts  --      0.9903                 1.6152                 1.2071
 IR Inten    --     22.1474                11.8766                 2.7751

                     46                     47                     48
                      A                      A                      A
 Frequencies --    940.3406               941.5757               956.4992
 Red. masses --      2.3846                 1.3615                 3.2856
 Frc consts  --      1.2423                 0.7112                 1.7711
 IR Inten    --     29.5918                 3.2488                 9.9563

                     49                     50                     51
                      A                      A                      A
 Frequencies --    976.4186              1010.5662              1035.7586
 Red. masses --      1.3356                 3.0972                 2.6995
 Frc consts  --      0.7502                 1.8636                 1.7063
 IR Inten    --      4.7784                 7.2076                 1.1614

                     52                     53                     54
                      A                      A                      A
 Frequencies --   1055.1948              1068.3857              1082.1249
 Red. masses --      4.0647                 1.3367                 6.0474
 Frc consts  --      2.6665                 0.8989                 4.1723
 IR Inten    --    112.3754                17.2652                63.5480

                     55                     56                     57
                      A                      A                      A
 Frequencies --   1091.5971              1116.3958              1134.8218
 Red. masses --      1.3854                 2.5371                 1.4666
 Frc consts  --      0.9726                 1.8631                 1.1128
 IR Inten    --      0.9329               162.4494                 4.6532

                     58                     59                     60
                      A                      A                      A
 Frequencies --   1150.2278              1162.6045              1169.2118
 Red. masses --      1.3334                 1.1445                 2.1494
 Frc consts  --      1.0394                 0.9114                 1.7312
 IR Inten    --     20.4337                16.8707               184.0473

                     61                     62                     63
                      A                      A                      A
 Frequencies --   1186.7625              1213.8887              1214.8028
 Red. masses --      1.2712                 1.1743                 1.4114
 Frc consts  --      1.0549                 1.0195                 1.2272
 IR Inten    --      0.7429                30.1434                 5.4654

                     64                     65                     66
                      A                      A                      A
 Frequencies --   1216.7313              1220.2322              1232.7225
 Red. masses --      1.6932                 1.3790                 2.0952
 Frc consts  --      1.4769                 1.2098                 1.8758
 IR Inten    --    138.1668                 9.0154                 2.1542

                     67                     68                     69
                      A                      A                      A
 Frequencies --   1259.3535              1274.5659              1302.7350
 Red. masses --      1.7948                 1.4328                 4.7172
 Frc consts  --      1.6771                 1.3714                 4.7168
 IR Inten    --      3.5487                58.2766               175.3549

                     70                     71                     72
                      A                      A                      A
 Frequencies --   1316.9027              1348.4035              1355.3836
 Red. masses --      2.0990                 1.9613                 3.1946
 Frc consts  --      2.1447                 2.1011                 3.4577
 IR Inten    --    119.4182                71.6868               100.7215

                     73                     74                     75
                      A                      A                      A
 Frequencies --   1366.7202              1395.0479              1407.1198
 Red. masses --      1.9784                 1.6104                 2.1705
 Frc consts  --      2.1773                 1.8466                 2.5320
 IR Inten    --     31.1999                 5.9543               126.6716

                     76                     77                     78
                      A                      A                      A
 Frequencies --   1428.6963              1465.5798              1475.5710
 Red. masses --      1.5653                 1.8273                 1.2975
 Frc consts  --      1.8825                 2.3125                 1.6645
 IR Inten    --     18.3031                75.9021                39.2680

                     79                     80                     81
                      A                      A                      A
 Frequencies --   1482.3984              1492.8326              1500.9861
 Red. masses --      1.5499                 1.1017                 1.2035
 Frc consts  --      2.0067                 1.4466                 1.5976
 IR Inten    --     58.3623                 5.1512                10.6493

                     82                     83                     84
                      A                      A                      A
 Frequencies --   1521.8156              1535.1859              1538.1336
 Red. masses --      1.0475                 1.0794                 1.3625
 Frc consts  --      1.4294                 1.4989                 1.8993
 IR Inten    --      5.8348                47.6168                 2.0248

                     85                     86                     87
                      A                      A                      A
 Frequencies --   1570.3390              1636.1717              1679.7504
 Red. masses --      2.4955                 6.3934                 5.8214
 Frc consts  --      3.6257                10.0842                 9.6775
 IR Inten    --     93.0239                13.1349                73.6635

                     88                     89                     90
                      A                      A                      A
 Frequencies --   1828.6076              2999.6126              3027.2871
 Red. masses --      9.7628                 1.0830                 1.0348
 Frc consts  --     19.2339                 5.7411                 5.5877
 IR Inten    --    242.8950                32.1769                55.3101

                     91                     92                     93
                      A                      A                      A
 Frequencies --   3086.5808              3105.2150              3149.3234
 Red. masses --      1.1067                 1.0613                 1.0534
 Frc consts  --      6.2121                 6.0296                 6.1559
 IR Inten    --     41.1096                 0.2632                16.5354

                     94                     95                     96
                      A                      A                      A
 Frequencies --   3159.9493              3162.6445              3178.0549
 Red. masses --      1.0558                 1.0997                 1.1042
 Frc consts  --      6.2113                 6.4810                 6.5708
 IR Inten    --     13.5155                27.1912                 0.4691

                     97                     98                     99
                      A                      A                      A
 Frequencies --   3182.3295              3198.9043              3200.7955
 Red. masses --      1.0894                 1.0900                 1.0884
 Frc consts  --      6.5000                 6.5715                 6.5697
 IR Inten    --     12.6388                 0.2182                 6.6305

                    100                    101                    102
                      A                      A                      A
 Frequencies --   3221.1517              3226.7822              3231.0436
 Red. masses --      1.0940                 1.1181                 1.0912
 Frc consts  --      6.6881                 6.8590                 6.7117
 IR Inten    --      4.4587                 4.2030                10.5400

                    103                    104                    105
                      A                      A                      A
 Frequencies --   3243.2110              3486.7805              3673.8636
 Red. masses --      1.1150                 1.0746                 1.0638
 Frc consts  --      6.9097                 7.6975                 8.4599
 IR Inten    --     19.1761                50.4071                64.1160

 - Thermochemistry -
 -------------------
 Temperature   298.150 Kelvin.  Pressure   1.00000 Atm.
 Atom     1 has atomic number  6 and mass  12.00000

 Molecular mass:   299.08274 amu.
 Principal axes and moments of inertia in atomic units:
                           1         2         3
     Eigenvalues --  4019.745949362.47267**********
           X            0.99998   0.00517   0.00191
           Y           -0.00518   0.99998   0.00415
           Z           -0.00189  -0.00416   0.99999
 This molecule is an asymmetric top.
 Rotational symmetry number  1.
 Warning -- assumption of classical behavior for rotation
           may cause significant error
 Rotational temperatures (Kelvin)      0.02155     0.00925     0.00721
 Rotational constants (GHZ):           0.44897     0.19276     0.15030
 Zero-point vibrational energy     778252.0 (Joules/Mol)
                                  186.00668 (Kcal/Mol)
 Warning -- explicit consideration of  30 degrees of freedom as
           vibrations may cause significant error
 Vibrational temperatures:     23.23    34.22    60.36    82.37    89.76
          (Kelvin)             98.94   142.79   147.44   173.50   206.74
                              247.43   273.75   300.38   334.90   376.15
                              399.07   430.60   468.55   504.47   522.59
                              532.50   599.57   619.76   681.92   707.92
                              718.00   772.05   806.49   819.57   876.46
                              909.87   941.71   996.30  1041.19  1064.07
                             1110.76  1129.21  1143.65  1177.45  1191.36
                             1219.53  1241.35  1244.43  1303.11  1327.87
                             1352.94  1354.72  1376.19  1404.85  1453.98
                             1490.23  1518.19  1537.17  1556.94  1570.56
                             1606.24  1632.76  1654.92  1672.73  1682.23
                             1707.49  1746.52  1747.83  1750.60  1755.64
                             1773.61  1811.93  1833.82  1874.35  1894.73
                             1940.05  1950.09  1966.41  2007.16  2024.53
                             2055.58  2108.64  2123.02  2132.84  2147.85
                             2159.58  2189.55  2208.79  2213.03  2259.37
                             2354.09  2416.79  2630.96  4315.77  4355.59
                             4440.90  4467.71  4531.17  4546.46  4550.34
                             4572.51  4578.66  4602.51  4605.23  4634.52
                             4642.62  4648.75  4666.26  5016.70  5285.87

 Zero-point correction=                           0.296421 (Hartree/Particle)
 Thermal correction to Energy=                    0.316125
 Thermal correction to Enthalpy=                  0.317069
 Thermal correction to Gibbs Free Energy=         0.245500
 Sum of electronic and zero-point Energies=          -1334.356999
 Sum of electronic and thermal Energies=             -1334.337294
 Sum of electronic and thermal Enthalpies=           -1334.336350
 Sum of electronic and thermal Free Energies=        -1334.407920

                     E (Thermal)             CV                S
                      KCal/Mol        Cal/Mol-Kelvin    Cal/Mol-Kelvin
 Total                  198.371             73.644            150.631
 Electronic               0.000              0.000              0.000
 Translational            0.889              2.981             42.984
 Rotational               0.889              2.981             34.468
 Vibrational            196.594             67.682             73.179
 Vibration     1          0.593              1.986              7.060
 Vibration     2          0.593              1.985              6.290
 Vibration     3          0.595              1.980              5.165
 Vibration     4          0.596              1.975              4.550
 Vibration     5          0.597              1.972              4.380
 Vibration     6          0.598              1.969              4.188
 Vibration     7          0.604              1.950              3.469
 Vibration     8          0.605              1.947              3.407
 Vibration     9          0.609              1.932              3.091
 Vibration    10          0.616              1.909              2.754
 Vibration    11          0.626              1.877              2.414
 Vibration    12          0.634              1.853              2.225
 Vibration    13          0.642              1.827              2.054
 Vibration    14          0.654              1.791              1.858
 Vibration    15          0.669              1.743              1.652
 Vibration    16          0.678              1.715              1.550
 Vibration    17          0.692              1.675              1.421
 Vibration    18          0.710              1.624              1.282
 Vibration    19          0.728              1.574              1.163
 Vibration    20          0.737              1.548              1.108
 Vibration    21          0.742              1.534              1.079
 Vibration    22          0.780              1.434              0.903
 Vibration    23          0.792              1.403              0.856
 Vibration    24          0.831              1.308              0.727
 Vibration    25          0.848              1.268              0.678
 Vibration    26          0.854              1.252              0.661
 Vibration    27          0.892              1.169              0.573
 Vibration    28          0.916              1.117              0.523
 Vibration    29          0.926              1.097              0.505
 Vibration    30          0.968              1.012              0.434

 Optimization completed.
    -- Stationary point found.
 Normal termination of Gaussian 16 at Sat Dec 12 16:33:23 2020.

 ----------------------------------------------------------------------
 # B3LYP/6-311++G(d,p) empiricaldispersion=gd3bj scf=xqc pop=npa geom=c
 heck
 ----------------------------------------------------------------------

 ---------------------------------------
 CID_43173059_JID_10723_Energie_neutraal
 ---------------------------------------
 Structure from the checkpoint file:  "JID_10723.chk"
 Charge =  0 Multiplicity = 1

 SCF Done:  E(RB3LYP) =  -1334.95663278     A.U. after   16 cycles
 Normal termination of Gaussian 16 at Sat Dec 12 16:42:13 2020.

 ----------------------------------------------------------------------
 # B3LYP/6-311++G(d,p) empiricaldispersion=gd3bj scf=xqc pop=npa geom=c
 heck
 ----------------------------------------------------------------------

 -------------------------------------
 CID_43173059_JID_10723_Energie_kation
 -------------------------------------
 Structure from the checkpoint file:  "JID_10723.chk"
 Charge =  1 Multiplicity = 2

 SCF Done:  E(UB3LYP) =  -1334.65416684     A.U. after   25 cycles
 Normal termination of Gaussian 16 at Sat Dec 12 17:02:11 2020.
 Gaussian 16:  ES64L-G16RevA.03 25-Dec-2016

 ----------------------------------------------------------------------
 # B3LYP/6-311++G(d,p) empiricaldispersion=gd3bj scf=xqc pop=npa geom=c
 heck
 ----------------------------------------------------------------------

 ------------------------------------
 CID_43173059_JID_10723_Energie_anion
 ------------------------------------
 Structure from the checkpoint file:  "JID_10723.chk"
 Charge = -1 Multiplicity = 2

                         Standard orientation:
 ---------------------------------------------------------------------
 Center     Atomic      Atomic             Coordinates (Angstroms)
 Number     Number       Type             X           Y           Z
 ---------------------------------------------------------------------
      1          6           0       -5.653014   -1.620976   -0.455765
      2          8           0       -4.824527   -1.189556    0.611478
      3          6           0       -3.606652   -0.663086    0.301880
      4          6           0       -2.826035   -0.250168    1.391012
      5          6           0       -1.571017    0.302503    1.180852
      6          6           0       -1.053770    0.451151   -0.116697
      7          6           0       -1.839049    0.029632   -1.189134
      8          6           0       -3.108349   -0.520148   -0.997195
      9          6           0        0.304317    1.070397   -0.363792
     10          6           0        0.332091    2.594373   -0.322048
     11          6           0       -0.796344    3.409125   -0.899124
     12          6           0       -0.546239    3.405992    0.590278
     13          7           0        1.259593    0.522832    0.644356
     14         16           0        2.858541    0.355438    0.210118
     15          8           0        3.249072    1.521342   -0.581935
     16          8           0        3.597603   -0.066239    1.396925
     17          6           0        2.899498   -1.066802   -0.950043
     18          6           0        2.452035   -2.332736   -0.258859
     19          8           0        1.450108   -2.433278    0.418572
     20          8           0        3.294473   -3.354041   -0.489345
     21          1           0       -6.566168   -1.997950    0.007267
     22          1           0       -5.178694   -2.425566   -1.032846
     23          1           0       -5.902663   -0.792167   -1.131091
     24          1           0       -3.227567   -0.371420    2.391626
     25          1           0       -0.980194    0.621559    2.034251
     26          1           0       -1.457859    0.131820   -2.202205
     27          1           0       -3.686877   -0.836202   -1.856843
     28          1           0        0.622447    0.773335   -1.374456
     29          1           0        1.333440    2.979768   -0.485074
     30          1           0       -0.544132    4.295449   -1.474146
     31          1           0       -1.678046    2.880702   -1.251014
     32          1           0       -1.270683    2.890979    1.212392
     33          1           0       -0.109835    4.288173    1.049184
     34          1           0        0.949344   -0.369592    1.032655
     35          1           0        2.223802   -0.832710   -1.777757
     36          1           0        3.921141   -1.140521   -1.324705
     37          1           0        2.940083   -4.123858   -0.003361
 ---------------------------------------------------------------------

 SCF Done:  E(UB3LYP) =  -1334.95264818     A.U. after   33 cycles
 SCF Done:  E(UB3LYP) =  -1334.95360753     a.u. after   11 cycles

 The electronic state is 2-A.
 Alpha  occ. eigenvalues --  -88.97609 -19.08613 -19.06925 -19.03209 -19.02977
 Alpha  occ. eigenvalues --  -19.02350 -14.25149 -10.21254 -10.14953 -10.13815
 Alpha  occ. eigenvalues --  -10.13483 -10.12725 -10.09375 -10.09203 -10.09151
 Alpha  occ. eigenvalues --  -10.08971 -10.08668 -10.08651 -10.08588 -10.08581
 Alpha  occ. eigenvalues --   -8.03784  -6.00044  -6.00024  -5.99904  -1.03584
 Alpha  occ. eigenvalues --   -1.02497  -0.98574  -0.93480  -0.92566  -0.84640
 Alpha  occ. eigenvalues --   -0.77893  -0.76724  -0.70366  -0.68568  -0.66665
 Alpha  occ. eigenvalues --   -0.63712  -0.59629  -0.56243  -0.53711  -0.52015
 Alpha  occ. eigenvalues --   -0.51562  -0.50765  -0.47643  -0.45401  -0.44744
 Alpha  occ. eigenvalues --   -0.42900  -0.42059  -0.41486  -0.40380  -0.40232
 Alpha  occ. eigenvalues --   -0.38986  -0.38466  -0.38391  -0.37786  -0.36483
 Alpha  occ. eigenvalues --   -0.35766  -0.35082  -0.34070  -0.33266  -0.32511
 Alpha  occ. eigenvalues --   -0.31657  -0.30818  -0.29346  -0.28369  -0.27874
 Alpha  occ. eigenvalues --   -0.27381  -0.25854  -0.24555  -0.24366  -0.24047
 Alpha  occ. eigenvalues --   -0.23618  -0.22393  -0.22107  -0.21467  -0.20894
 Alpha  occ. eigenvalues --   -0.20186  -0.18708  -0.17263  -0.13921   0.03665
 Alpha virt. eigenvalues --    0.05329   0.05944   0.06709   0.06846   0.07316
 Alpha virt. eigenvalues --    0.07714   0.08121   0.08415   0.09053   0.09314
 Alpha virt. eigenvalues --    0.10125   0.10605   0.11286   0.11358   0.11933

  Beta  occ. eigenvalues --  -88.97601 -19.08553 -19.06917 -19.03205 -19.02977
  Beta  occ. eigenvalues --  -19.02251 -14.25148 -10.21010 -10.14958 -10.13799
  Beta  occ. eigenvalues --  -10.13437 -10.12715 -10.09377 -10.09194 -10.09152
  Beta  occ. eigenvalues --  -10.08944 -10.08665 -10.08633 -10.08585 -10.08555
  Beta  occ. eigenvalues --   -8.03776  -6.00037  -6.00018  -5.99885  -1.03551
  Beta  occ. eigenvalues --   -1.02295  -0.98556  -0.93305  -0.92558  -0.84631
  Beta  occ. eigenvalues --   -0.77880  -0.76703  -0.70222  -0.68508  -0.66614
  Beta  occ. eigenvalues --   -0.63665  -0.59569  -0.56070  -0.53627  -0.51974
  Beta  occ. eigenvalues --   -0.51537  -0.50713  -0.47612  -0.45346  -0.44643
  Beta  occ. eigenvalues --   -0.42819  -0.41995  -0.41332  -0.40299  -0.40061
  Beta  occ. eigenvalues --   -0.38919  -0.38436  -0.38362  -0.37602  -0.36345
  Beta  occ. eigenvalues --   -0.35734  -0.34982  -0.34027  -0.33049  -0.32414
  Beta  occ. eigenvalues --   -0.31510  -0.30795  -0.29300  -0.28363  -0.27841
  Beta  occ. eigenvalues --   -0.27366  -0.25839  -0.24519  -0.24092  -0.23877
  Beta  occ. eigenvalues --   -0.23564  -0.22374  -0.22053  -0.21440  -0.20873
  Beta  occ. eigenvalues --   -0.20126  -0.18660  -0.17164  -0.13874
  Beta virt. eigenvalues --    0.06069   0.06374   0.06808   0.07034   0.07473
  Beta virt. eigenvalues --    0.07731   0.08091   0.08448   0.08745   0.09143
  Beta virt. eigenvalues --    0.09737   0.10458   0.10688   0.11310   0.11789

 Mulliken charges and spin densities:
               1          2
     1  C    0.731740  -1.070843
     2  O   -0.200624   0.048745
     3  C   -0.673016  -0.000946
     4  C   -0.930245   0.421226
     5  C   -0.371066   0.148340
     6  C    1.525208  -0.953861
     7  C    0.512387  -0.716647
     8  C   -0.110126   0.184170
     9  C   -0.175466  -0.257366
    10  C   -0.137300   0.310441
    11  C   -0.319838  -0.221102
    12  C   -0.453685   0.057798
    13  N   -0.099319  -0.002315
    14  S    0.196411   0.160880
    15  O   -0.175912   0.011306
    16  O   -0.083126   0.001582
    17  C    0.353066  -0.872755
    18  C   -0.089943   0.152915
    19  O   -0.339842   0.049004
    20  O   -0.180478   0.044075
    21  H   -0.348890   0.522031
    22  H   -0.164700   0.324177
    23  H   -0.273952   0.434206
    24  H    0.150800   0.028920
    25  H    0.178053   0.017361
    26  H   -0.690818   0.881320
    27  H   -0.301129   0.519476
    28  H    0.462127  -0.230681
    29  H    0.281054   0.015227
    30  H    0.103114   0.038586
    31  H    0.199165  -0.048216
    32  H    0.126012   0.005511
    33  H    0.147226   0.001295
    34  H    0.370983  -0.050449
    35  H   -0.495544   0.750223
    36  H    0.283459   0.014756
    37  H   -0.005784   0.281610
 Sum of Mulliken charges =  -1.00000   1.00000

 Dipole moment (field-independent basis, Debye):
    X=              2.5304    Y=              3.8175    Z=              3.0179  Tot=              5.4849
 Quadrupole moment (field-independent basis, Debye-Ang):
   XX=           -225.4482   YY=           -163.6304   ZZ=           -159.8038
   XY=            -12.3936   XZ=            -14.4251   YZ=             -3.7179

 Summary of Natural Population Analysis:

                                       Natural Population
                Natural  -----------------------------------------------
    Atom  No    Charge         Core      Valence    Rydberg      Total
 -----------------------------------------------------------------------
      C    1   -0.10130      0.99960     2.09273    0.00897     3.10130
      O    2   -0.27245      0.99986     3.26321    0.00938     4.27245
      C    3    0.16160      0.99939     1.82519    0.01383     2.83840
      C    4   -0.11370      0.99952     2.10473    0.00946     3.11370
      C    5   -0.09868      0.99951     2.09010    0.00907     3.09868
      C    6   -0.04172      0.99948     2.03011    0.01213     3.04172
      C    7   -0.07964      0.99951     2.06935    0.01078     3.07964
      C    8   -0.13732      0.99951     2.12871    0.00909     3.13732
      C    9   -0.01866      0.99952     2.00252    0.01662     3.01866
      C   10   -0.11678      0.99957     2.10487    0.01234     3.11678
      C   11   -0.19919      0.99962     2.19348    0.00608     3.19919
      C   12   -0.19862      0.99962     2.19247    0.00653     3.19862
      N   13   -0.44092      0.99972     2.92951    0.01169     3.94092
      S   14    1.11032      4.99930     1.78803    0.10235     6.88968
      O   15   -0.46603      0.99990     3.46024    0.00589     4.46603
      O   16   -0.45896      0.99990     3.45388    0.00517     4.45896
      C   17   -0.34205      0.99953     2.33020    0.01232     3.34205
      C   18    0.42648      0.99973     1.54892    0.02487     2.57352
      O   19   -0.30784      0.99986     3.30187    0.00610     4.30784
      O   20   -0.33917      0.99987     3.33310    0.00620     4.33917
      H   21    0.09376      0.00000     0.40507    0.00117     0.40624
      H   22    0.08699      0.00000     0.41141    0.00161     0.41301
      H   23    0.08674      0.00000     0.41150    0.00176     0.41326
      H   24    0.10438      0.00000     0.39443    0.00119     0.39562
      H   25    0.10563      0.00000     0.39343    0.00094     0.39437
      H   26    0.10499      0.00000     0.39324    0.00177     0.39501
      H   27    0.10968      0.00000     0.38845    0.00187     0.39032
      H   28    0.10128      0.00000     0.39646    0.00225     0.39872
      H   29    0.11775      0.00000     0.38112    0.00114     0.38225
      H   30    0.09979      0.00000     0.39938    0.00083     0.40021
      H   31    0.10723      0.00000     0.39189    0.00088     0.39277
      H   32    0.10605      0.00000     0.39309    0.00086     0.39395
      H   33    0.09958      0.00000     0.39958    0.00084     0.40042
      H   34    0.21477      0.00000     0.28277    0.00246     0.28523
      H   35    0.13034      0.00000     0.36646    0.00320     0.36966
      H   36    0.12349      0.00000     0.37549    0.00102     0.37651
      H   37    0.24217      0.00000     0.25389    0.00393     0.25783
 =======================================================================
   * Total *    0.00000     23.99253    54.68088    0.32659    79.00000

 Normal termination of Gaussian 16 at Sat Dec 12 21:18:50 2020.
