 Gaussian 16, Revision A.03,

 -----------------------------------------------------------
 # opt freq B3LYP/6-31G(d) empiricaldispersion=gd3bj scf=xqc
 -----------------------------------------------------------

 -------------------------------
 CID_114627464_JID_6617_neutraal
 -------------------------------
 Symbolic Z-matrix:
 Charge =  0 Multiplicity = 1

 SCF Done:  E(RB3LYP) =  -1068.31549741     A.U. after   15 cycles
 SCF Done:  E(RB3LYP) =  -1068.33877377     A.U. after   13 cycles
 SCF Done:  E(RB3LYP) =  -1068.32719141     A.U. after   15 cycles
 SCF Done:  E(RB3LYP) =  -1068.33548224     A.U. after   13 cycles
 SCF Done:  E(RB3LYP) =  -1068.34027191     A.U. after   11 cycles
 SCF Done:  E(RB3LYP) =  -1068.33952140     A.U. after   15 cycles
 SCF Done:  E(RB3LYP) =  -1068.34111010     A.U. after   13 cycles
 SCF Done:  E(RB3LYP) =  -1068.34154890     A.U. after   13 cycles
 SCF Done:  E(RB3LYP) =  -1068.34187037     A.U. after   12 cycles
 SCF Done:  E(RB3LYP) =  -1068.34190053     A.U. after   12 cycles
 SCF Done:  E(RB3LYP) =  -1068.34199885     A.U. after    8 cycles
 SCF Done:  E(RB3LYP) =  -1068.34199950     A.U. after    8 cycles
 SCF Done:  E(RB3LYP) =  -1068.34199989     A.U. after    8 cycles
 SCF Done:  E(RB3LYP) =  -1068.34200006     A.U. after    8 cycles
 SCF Done:  E(RB3LYP) =  -1068.34200013     A.U. after    7 cycles
 Optimization completed.
    -- Stationary point found.
 Normal termination of Gaussian 16 at Fri Dec 11 00:01:31 2020.

 --------------------------------------------------------------------
 #N Geom=AllCheck Guess=TCheck SCRF=Check GenChk RB3LYP/6-31G(d) Freq
 --------------------------------------------------------------------

 Structure from the checkpoint file:  "JID_6617.chk"
 -------------------------------
 CID_114627464_JID_6617_neutraal
 -------------------------------
 Charge =  0 Multiplicity = 1

 SCF Done:  E(RB3LYP) =  -1068.34200013     A.U. after    1 cycles

  Exact polarizability: 175.981   4.507 139.340  -9.496   0.853 124.434
 Approx polarizability: 225.322  11.991 210.783 -24.153   3.128 211.955

                      1                      2                      3
                      A                      A                      A
 Frequencies --     30.5351                46.8981                48.5222
 Red. masses --      5.5639                 5.8901                 3.6399
 Frc consts  --      0.0031                 0.0076                 0.0050
 IR Inten    --      3.0462                 1.2999                 0.1233

                      4                      5                      6
                      A                      A                      A
 Frequencies --     68.8595                76.9603                93.2251
 Red. masses --      6.2541                 6.2212                 4.5688
 Frc consts  --      0.0175                 0.0217                 0.0234
 IR Inten    --      0.5729                 2.1100                 1.5662

                      7                      8                      9
                      A                      A                      A
 Frequencies --    114.5507               152.4587               166.1359
 Red. masses --      4.7287                 4.4883                 5.2387
 Frc consts  --      0.0366                 0.0615                 0.0852
 IR Inten    --      1.0855                 9.4153                 4.5778

                     10                     11                     12
                      A                      A                      A
 Frequencies --    195.4785               212.0856               239.6449
 Red. masses --      4.2014                 2.8200                 1.2705
 Frc consts  --      0.0946                 0.0747                 0.0430
 IR Inten    --      1.0723                 2.9029                 2.0763

                     13                     14                     15
                      A                      A                      A
 Frequencies --    256.1350               270.0155               296.1511
 Red. masses --      3.0513                 2.9925                 3.1389
 Frc consts  --      0.1179                 0.1285                 0.1622
 IR Inten    --      0.9596                 1.6839                 1.2575

                     16                     17                     18
                      A                      A                      A
 Frequencies --    332.9251               365.9502               388.6923
 Red. masses --      2.5558                 2.1892                 3.2169
 Frc consts  --      0.1669                 0.1727                 0.2863
 IR Inten    --      3.4025                 0.1655                 0.9792

                     19                     20                     21
                      A                      A                      A
 Frequencies --    398.9174               474.4060               482.5649
 Red. masses --      2.0149                 3.2115                 3.4008
 Frc consts  --      0.1889                 0.4259                 0.4666
 IR Inten    --      1.1850                 3.2578                 6.8693

                     22                     23                     24
                      A                      A                      A
 Frequencies --    494.1560               524.5408               567.3641
 Red. masses --      3.2519                 2.3536                 4.4568
 Frc consts  --      0.4679                 0.3815                 0.8453
 IR Inten    --     30.5486                15.0735                 1.3497

                     25                     26                     27
                      A                      A                      A
 Frequencies --    570.9788               584.4885               631.4702
 Red. masses --      2.2547                 1.7854                 3.9917
 Frc consts  --      0.4331                 0.3594                 0.9378
 IR Inten    --      5.4527                61.1601                11.7608

                     28                     29                     30
                      A                      A                      A
 Frequencies --    671.6746               703.3193               776.9655
 Red. masses --      3.4698                 2.6332                 3.1135
 Frc consts  --      0.9223                 0.7674                 1.1074
 IR Inten    --     43.0629                56.1130                 3.9856

                     31                     32                     33
                      A                      A                      A
 Frequencies --    790.9034               813.4369               827.5328
 Red. masses --      4.4109                 2.0391                 1.5379
 Frc consts  --      1.6256                 0.7949                 0.6205
 IR Inten    --      0.3344                60.0836                 1.1569

                     34                     35                     36
                      A                      A                      A
 Frequencies --    840.4873               855.1490               889.1737
 Red. masses --      2.7649                 3.1981                 2.3649
 Frc consts  --      1.1508                 1.3779                 1.1016
 IR Inten    --      2.8915                 0.7651                 0.0154

                     37                     38                     39
                      A                      A                      A
 Frequencies --    913.1408               922.0435               947.1545
 Red. masses --      2.2285                 2.1444                 2.0763
 Frc consts  --      1.0948                 1.0742                 1.0974
 IR Inten    --      2.1273                 5.1927                 0.9553

                     40                     41                     42
                      A                      A                      A
 Frequencies --    957.8786              1031.1396              1041.2477
 Red. masses --      1.7731                 1.4400                 1.4984
 Frc consts  --      0.9585                 0.9021                 0.9571
 IR Inten    --      5.2685                 0.1445                 3.3151

                     43                     44                     45
                      A                      A                      A
 Frequencies --   1051.8581              1076.9945              1093.9128
 Red. masses --      2.2501                 1.7674                 2.0425
 Frc consts  --      1.4668                 1.2078                 1.4401
 IR Inten    --      9.3980                 9.5283                31.2792

                     46                     47                     48
                      A                      A                      A
 Frequencies --   1106.7792              1114.9217              1130.0886
 Red. masses --      1.7565                 1.8104                 1.9373
 Frc consts  --      1.2677                 1.3259                 1.4577
 IR Inten    --      4.4025                11.9710                 2.5879

                     49                     50                     51
                      A                      A                      A
 Frequencies --   1151.7641              1174.6657              1191.0198
 Red. masses --      3.2356                 1.2570                 2.4821
 Frc consts  --      2.5289                 1.0219                 2.0745
 IR Inten    --      8.1769                31.5531                16.0313

                     52                     53                     54
                      A                      A                      A
 Frequencies --   1198.7195              1216.8579              1261.3250
 Red. masses --      1.2285                 1.1109                 1.2005
 Frc consts  --      1.0400                 0.9692                 1.1253
 IR Inten    --      1.8964                 1.2043                 3.6321

                     55                     56                     57
                      A                      A                      A
 Frequencies --   1279.2351              1290.1788              1323.7332
 Red. masses --      1.2393                 1.1804                 1.3349
 Frc consts  --      1.1949                 1.1577                 1.3782
 IR Inten    --      7.7629                45.6087                31.4682

                     58                     59                     60
                      A                      A                      A
 Frequencies --   1324.5438              1331.5100              1345.8657
 Red. masses --      1.3954                 1.2069                 1.5195
 Frc consts  --      1.4424                 1.2607                 1.6217
 IR Inten    --      1.8770                10.8612                 0.9011

                     61                     62                     63
                      A                      A                      A
 Frequencies --   1366.2269              1368.1979              1378.3718
 Red. masses --      1.3461                 1.4712                 1.7927
 Frc consts  --      1.4804                 1.6226                 2.0067
 IR Inten    --     36.9076                 0.6813               103.9384

                     64                     65                     66
                      A                      A                      A
 Frequencies --   1384.9145              1405.5567              1426.1120
 Red. masses --      1.3485                 1.4780                 1.5199
 Frc consts  --      1.5239                 1.7204                 1.8212
 IR Inten    --      7.2767                 2.0460                42.7981

                     67                     68                     69
                      A                      A                      A
 Frequencies --   1444.5399              1451.3002              1492.0395
 Red. masses --      1.2419                 1.4927                 1.1168
 Frc consts  --      1.5268                 1.8524                 1.4648
 IR Inten    --      0.6573                 2.6200                 5.2571

                     70                     71                     72
                      A                      A                      A
 Frequencies --   1500.9912              1504.7913              1508.7177
 Red. masses --      1.1703                 1.2160                 1.3519
 Frc consts  --      1.5535                 1.6223                 1.8130
 IR Inten    --     10.2966                 0.5305                60.1327

                     73                     74                     75
                      A                      A                      A
 Frequencies --   1520.0664              1522.7460              1523.1755
 Red. masses --      1.1360                 1.0842                 1.1799
 Frc consts  --      1.5465                 1.4812                 1.6128
 IR Inten    --     28.6947                 6.9339                 8.8483

                     76                     77                     78
                      A                      A                      A
 Frequencies --   1527.1460              1538.9333              1539.2244
 Red. masses --      1.1197                 1.0851                 1.0757
 Frc consts  --      1.5385                 1.5141                 1.5016
 IR Inten    --      0.3965                 5.4364                 6.2354

                     79                     80                     81
                      A                      A                      A
 Frequencies --   1782.5792              2369.0683              2946.1306
 Red. masses --      7.6703                12.6539                 1.0735
 Frc consts  --     14.3602                41.8435                 5.4897
 IR Inten    --    322.6254                 6.7922                36.8362

                     82                     83                     84
                      A                      A                      A
 Frequencies --   2953.0611              3025.8770              3053.0381
 Red. masses --      1.0722                 1.0734                 1.0688
 Frc consts  --      5.5091                 5.7907                 5.8694
 IR Inten    --     83.6537                56.7646                11.9144

                     85                     86                     87
                      A                      A                      A
 Frequencies --   3054.3035              3063.9991              3064.4819
 Red. masses --      1.0832                 1.0666                 1.0358
 Frc consts  --      5.9539                 5.8998                 5.7310
 IR Inten    --     10.8739                15.2422                14.6848

                     88                     89                     90
                      A                      A                      A
 Frequencies --   3079.5906              3081.3050              3084.9726
 Red. masses --      1.0869                 1.0880                 1.0638
 Frc consts  --      6.0734                 6.0863                 5.9653
 IR Inten    --     65.6243                52.8689                 6.8417

                     91                     92                     93
                      A                      A                      A
 Frequencies --   3111.1849              3117.0796              3122.8455
 Red. masses --      1.0859                 1.1010                 1.0947
 Frc consts  --      6.1928                 6.3030                 6.2901
 IR Inten    --     11.7874                16.7305                12.1908

                     94                     95                     96
                      A                      A                      A
 Frequencies --   3135.7407              3147.3901              3155.1553
 Red. masses --      1.1035                 1.1027                 1.1015
 Frc consts  --      6.3929                 6.4358                 6.4609
 IR Inten    --     21.1233                13.2134                 5.3063

                     97                     98                     99
                      A                      A                      A
 Frequencies --   3171.5520              3497.4027              3594.6827
 Red. masses --      1.0909                 1.0745                 1.0751
 Frc consts  --      6.4652                 7.7438                 8.1850
 IR Inten    --      1.6686                 3.5060                18.7400

 - Thermochemistry -
 -------------------
 Temperature   298.150 Kelvin.  Pressure   1.00000 Atm.
 Atom     1 has atomic number  6 and mass  12.00000

 Molecular mass:   241.12488 amu.
 Principal axes and moments of inertia in atomic units:
                           1         2         3
     Eigenvalues --  2226.789905981.095957069.14495
           X            1.00000  -0.00183  -0.00211
           Y            0.00181   0.99995  -0.00961
           Z            0.00213   0.00961   0.99995
 This molecule is an asymmetric top.
 Rotational symmetry number  1.
 Warning -- assumption of classical behavior for rotation
           may cause significant error
 Rotational temperatures (Kelvin)      0.03890     0.01448     0.01225
 Rotational constants (GHZ):           0.81047     0.30174     0.25530
 Zero-point vibrational energy     793984.4 (Joules/Mol)
                                  189.76682 (Kcal/Mol)
 Warning -- explicit consideration of  26 degrees of freedom as
           vibrations may cause significant error
 Vibrational temperatures:     43.93    67.48    69.81    99.07   110.73
          (Kelvin)            134.13   164.81   219.35   239.03   281.25
                              305.14   344.80   368.52   388.49   426.10
                              479.01   526.52   559.24   573.95   682.56
                              694.30   710.98   754.70   816.31   821.51
                              840.95   908.54   966.39  1011.92  1117.88
                             1137.93  1170.35  1190.64  1209.27  1230.37
                             1279.32  1313.81  1326.61  1362.74  1378.17
                             1483.58  1498.12  1513.39  1549.55  1573.90
                             1592.41  1604.12  1625.95  1657.13  1690.08
                             1713.61  1724.69  1750.79  1814.77  1840.53
                             1856.28  1904.56  1905.72  1915.75  1936.40
                             1965.70  1968.53  1983.17  1992.58  2022.28
                             2051.86  2078.37  2088.10  2146.71  2159.59
                             2165.06  2170.71  2187.04  2190.89  2191.51
                             2197.22  2214.18  2214.60  2564.73  3408.56
                             4238.82  4248.80  4353.56  4392.64  4394.46
                             4408.41  4409.11  4430.84  4433.31  4438.59
                             4476.30  4484.78  4493.08  4511.63  4528.39
                             4539.56  4563.16  5031.98  5171.95

 Zero-point correction=                           0.302413 (Hartree/Particle)
 Thermal correction to Energy=                    0.319412
 Thermal correction to Enthalpy=                  0.320356
 Thermal correction to Gibbs Free Energy=         0.256592
 Sum of electronic and zero-point Energies=          -1068.039587
 Sum of electronic and thermal Energies=             -1068.022588
 Sum of electronic and thermal Enthalpies=           -1068.021644
 Sum of electronic and thermal Free Energies=        -1068.085408

                     E (Thermal)             CV                S
                      KCal/Mol        Cal/Mol-Kelvin    Cal/Mol-Kelvin
 Total                  200.434             63.350            134.203
 Electronic               0.000              0.000              0.000
 Translational            0.889              2.981             42.342
 Rotational               0.889              2.981             32.909
 Vibrational            198.657             57.388             58.952
 Vibration     1          0.594              1.984              5.794
 Vibration     2          0.595              1.979              4.944
 Vibration     3          0.595              1.978              4.877
 Vibration     4          0.598              1.969              4.186
 Vibration     5          0.599              1.965              3.967
 Vibration     6          0.602              1.954              3.591
 Vibration     7          0.607              1.937              3.190
 Vibration     8          0.619              1.900              2.641
 Vibration     9          0.624              1.884              2.479
 Vibration    10          0.636              1.846              2.175
 Vibration    11          0.643              1.822              2.026
 Vibration    12          0.657              1.780              1.806
 Vibration    13          0.666              1.752              1.688
 Vibration    14          0.674              1.728              1.596
 Vibration    15          0.690              1.681              1.439
 Vibration    16          0.715              1.610              1.246
 Vibration    17          0.739              1.542              1.097
 Vibration    18          0.757              1.494              1.005
 Vibration    19          0.765              1.472              0.967
 Vibration    20          0.831              1.307              0.725
 Vibration    21          0.839              1.289              0.703
 Vibration    22          0.850              1.263              0.673
 Vibration    23          0.879              1.196              0.600
 Vibration    24          0.923              1.102              0.509
 Vibration    25          0.927              1.094              0.502
 Vibration    26          0.941              1.065              0.477

 Optimization completed.
    -- Stationary point found.
 Normal termination of Gaussian 16 at Fri Dec 11 00:12:56 2020.

 ----------------------------------------------------------------------
 # B3LYP/6-311++G(d,p) empiricaldispersion=gd3bj scf=xqc pop=npa geom=c
 heck
 ----------------------------------------------------------------------

 ---------------------------------------
 CID_114627464_JID_6617_Energie_neutraal
 ---------------------------------------
 Structure from the checkpoint file:  "JID_6617.chk"
 Charge =  0 Multiplicity = 1

 SCF Done:  E(RB3LYP) =  -1068.56497281     A.U. after   15 cycles
 Normal termination of Gaussian 16 at Fri Dec 11 00:18:06 2020.

 ----------------------------------------------------------------------
 # B3LYP/6-311++G(d,p) empiricaldispersion=gd3bj scf=xqc pop=npa geom=c
 heck
 ----------------------------------------------------------------------

 -------------------------------------
 CID_114627464_JID_6617_Energie_kation
 -------------------------------------
 Structure from the checkpoint file:  "JID_6617.chk"
 Charge =  1 Multiplicity = 2

 SCF Done:  E(UB3LYP) =  -1068.28147873     A.U. after   22 cycles
 Normal termination of Gaussian 16 at Fri Dec 11 00:28:12 2020.
 Gaussian 16:  ES64L-G16RevA.03 25-Dec-2016

 ----------------------------------------------------------------------
 # B3LYP/6-311++G(d,p) empiricaldispersion=gd3bj scf=xqc pop=npa geom=c
 heck
 ----------------------------------------------------------------------

 ------------------------------------
 CID_114627464_JID_6617_Energie_anion
 ------------------------------------
 Structure from the checkpoint file:  "JID_6617.chk"
 Charge = -1 Multiplicity = 2

                         Standard orientation:
 ---------------------------------------------------------------------
 Center     Atomic      Atomic             Coordinates (Angstroms)
 Number     Number       Type             X           Y           Z
 ---------------------------------------------------------------------
      1          6           0       -4.479355    0.918625   -0.583068
      2          6           0       -3.290879    1.000896    0.394546
      3          6           0       -2.806622   -0.390592    0.869028
      4          7           0       -2.255015   -1.184090   -0.207610
      5          6           0       -1.055942   -1.847763   -0.269042
      6          8           0       -0.726660   -2.443502   -1.287048
      7          6           0       -0.148710   -1.829679    0.954542
      8         16           0        0.647513   -0.208240    1.287927
      9          6           0        1.274243    0.250959   -0.400799
     10          6           0        2.255234   -0.772511   -0.987451
     11          6           0        3.594693   -0.768008   -0.251285
     12          7           0        4.158740    0.584618   -0.278052
     13          6           0        3.303137    1.547968    0.419050
     14          6           0        1.945118    1.628083   -0.283354
     15          6           0       -2.193334    1.767384   -0.211112
     16          7           0       -1.356182    2.383867   -0.726296
     17          1           0       -4.194308    0.423071   -1.516444
     18          1           0       -4.841571    1.917726   -0.838931
     19          1           0       -5.299275    0.357744   -0.122700
     20          1           0       -3.615961    1.544948    1.291128
     21          1           0       -2.038028   -0.252145    1.627686
     22          1           0       -3.665670   -0.895976    1.333444
     23          1           0       -2.796545   -1.284647   -1.057476
     24          1           0       -0.699882   -2.074326    1.868373
     25          1           0        0.603504   -2.602179    0.791779
     26          1           0        0.391085    0.338168   -1.037966
     27          1           0        1.814589   -1.773027   -1.007981
     28          1           0        2.432490   -0.482411   -2.031276
     29          1           0        3.446578   -1.147313    0.776984
     30          1           0        4.294326   -1.444873   -0.754416
     31          1           0        5.079819    0.576090    0.154402
     32          1           0        3.789516    2.529579    0.387674
     33          1           0        3.152442    1.290352    1.484373
     34          1           0        2.100367    1.999432   -1.303112
     35          1           0        1.281304    2.336702    0.221380
 ---------------------------------------------------------------------

 SCF Done:  E(UB3LYP) =  -1068.56013810     A.U. after   33 cycles
 SCF Done:  E(UB3LYP) =  -1068.56013810     a.u. after    1 cycles

 The electronic state is 2-A.
 Alpha  occ. eigenvalues --  -88.74975 -19.00179 -14.24951 -14.21733 -14.21402
 Alpha  occ. eigenvalues --  -10.19012 -10.12665 -10.12476 -10.11823 -10.11369
 Alpha  occ. eigenvalues --  -10.11189 -10.10902 -10.10758 -10.08104 -10.08098
 Alpha  occ. eigenvalues --  -10.07921  -7.83599  -5.80011  -5.79627  -5.78942
 Alpha  occ. eigenvalues --   -0.95412  -0.84138  -0.83100  -0.81170  -0.73318
 Alpha  occ. eigenvalues --   -0.72041  -0.68134  -0.67005  -0.61412  -0.58768
 Alpha  occ. eigenvalues --   -0.55735  -0.54008  -0.53687  -0.49470  -0.44795
 Alpha  occ. eigenvalues --   -0.44162  -0.43262  -0.40324  -0.38635  -0.37979
 Alpha  occ. eigenvalues --   -0.37321  -0.36631  -0.35935  -0.33997  -0.33695
 Alpha  occ. eigenvalues --   -0.33315  -0.32711  -0.31628  -0.31429  -0.30484
 Alpha  occ. eigenvalues --   -0.29955  -0.28815  -0.27922  -0.26959  -0.26625
 Alpha  occ. eigenvalues --   -0.25852  -0.24121  -0.23363  -0.23331  -0.23173
 Alpha  occ. eigenvalues --   -0.21900  -0.17380  -0.16983  -0.15391  -0.13304
 Alpha  occ. eigenvalues --    0.03943
 Alpha virt. eigenvalues --    0.05374   0.06960   0.07377   0.07940   0.08241
 Alpha virt. eigenvalues --    0.08361   0.08813   0.09662   0.10182   0.10528
 Alpha virt. eigenvalues --    0.10962   0.11262   0.11409   0.11974   0.12048

  Beta  occ. eigenvalues --  -88.74970 -19.00168 -14.24941 -14.21727 -14.21376
  Beta  occ. eigenvalues --  -10.19007 -10.12639 -10.12429 -10.11797 -10.11361
  Beta  occ. eigenvalues --  -10.11188 -10.10900 -10.10752 -10.08098 -10.08040
  Beta  occ. eigenvalues --  -10.07918  -7.83594  -5.79999  -5.79621  -5.78939
  Beta  occ. eigenvalues --   -0.95394  -0.84106  -0.83092  -0.81126  -0.73298
  Beta  occ. eigenvalues --   -0.71971  -0.68109  -0.66998  -0.61320  -0.58737
  Beta  occ. eigenvalues --   -0.55616  -0.53998  -0.53665  -0.49424  -0.44778
  Beta  occ. eigenvalues --   -0.44096  -0.43246  -0.40283  -0.38591  -0.37936
  Beta  occ. eigenvalues --   -0.37309  -0.36564  -0.35869  -0.33955  -0.33676
  Beta  occ. eigenvalues --   -0.33299  -0.32689  -0.31593  -0.31381  -0.30448
  Beta  occ. eigenvalues --   -0.29924  -0.28738  -0.27870  -0.26921  -0.26601
  Beta  occ. eigenvalues --   -0.25817  -0.24087  -0.23350  -0.23306  -0.23081
  Beta  occ. eigenvalues --   -0.21880  -0.17362  -0.16944  -0.15382  -0.13292
  Beta virt. eigenvalues --    0.05440   0.06954   0.07340   0.07540   0.08224
  Beta virt. eigenvalues --    0.08460   0.08826   0.09345   0.10097   0.10305
  Beta virt. eigenvalues --    0.10788   0.11106   0.11389   0.11834   0.12067

 Mulliken charges and spin densities:
               1          2
     1  C    1.742630  -2.373474
     2  C   -1.835012   2.316892
     3  C    1.344222  -1.640521
     4  N   -0.098636   0.010938
     5  C   -0.500125   0.323670
     6  O   -0.283869   0.001069
     7  C    0.329044  -0.745250
     8  S   -0.064167  -0.226477
     9  C    0.685700   0.088883
    10  C   -0.681436   0.045654
    11  C   -0.219467  -0.204408
    12  N   -0.183108   0.044357
    13  C   -0.280311  -0.157920
    14  C   -0.655813   0.044051
    15  C    1.223790  -1.498713
    16  N   -0.313222   0.054301
    17  H    0.017253   0.106646
    18  H   -0.297677   0.463186
    19  H   -0.672376   0.864058
    20  H   -0.813143   1.076834
    21  H    0.044096   0.057578
    22  H   -1.032389   1.283592
    23  H    0.113261   0.189787
    24  H   -0.255609   0.493501
    25  H    0.239048   0.001076
    26  H    0.249799   0.060985
    27  H    0.165720   0.008553
    28  H    0.163417  -0.002330
    29  H    0.061340   0.060788
    30  H    0.075252   0.092130
    31  H    0.152563   0.081353
    32  H    0.129048   0.037747
    33  H    0.063846   0.048906
    34  H    0.177680  -0.003898
    35  H    0.208652  -0.003544
 Sum of Mulliken charges =  -1.00000   1.00000

 Dipole moment (field-independent basis, Debye):
    X=             11.4565    Y=             -0.4926    Z=             -1.9649  Tot=             11.6342
 Quadrupole moment (field-independent basis, Debye-Ang):
   XX=           -203.1739   YY=           -147.9909   ZZ=           -143.4939
   XY=              3.3678   XZ=             18.9713   YZ=              0.0248

 Summary of Natural Population Analysis:

                                       Natural Population
                Natural  -----------------------------------------------
    Atom  No    Charge         Core      Valence    Rydberg      Total
 -----------------------------------------------------------------------
      C    1   -0.27757      0.99965     2.27139    0.00654     3.27757
      C    2   -0.17021      0.99952     2.15693    0.01376     3.17021
      C    3   -0.08357      0.99959     2.07048    0.01349     3.08357
      N    4   -0.31882      0.99966     2.80839    0.01076     3.81882
      C    5    0.33657      0.99965     1.63983    0.02396     2.66343
      O    6   -0.32204      0.99988     3.31665    0.00552     4.32204
      C    7   -0.29690      0.99955     2.28742    0.00993     3.29690
      S    8    0.08947      4.99961     2.89188    0.01904     7.91053
      C    9   -0.16394      0.99956     2.15115    0.01323     3.16394
      C   10   -0.20376      0.99959     2.19554    0.00863     3.20376
      C   11   -0.09084      0.99962     2.08112    0.01009     3.09084
      N   12   -0.34339      0.99974     2.83213    0.01152     3.84339
      C   13   -0.09028      0.99963     2.08066    0.00999     3.09028
      C   14   -0.19995      0.99960     2.19169    0.00865     3.19995
      C   15    0.17271      0.99964     1.80908    0.01857     2.82729
      N   16   -0.19027      0.99978     2.67945    0.01103     3.69027
      H   17    0.09608      0.00000     0.40227    0.00164     0.40392
      H   18    0.10769      0.00000     0.39079    0.00152     0.39231
      H   19    0.11153      0.00000     0.38442    0.00404     0.38847
      H   20    0.12874      0.00000     0.36598    0.00528     0.37126
      H   21    0.11020      0.00000     0.38707    0.00273     0.38980
      H   22    0.10481      0.00000     0.38772    0.00747     0.39519
      H   23    0.19614      0.00000     0.30150    0.00237     0.30386
      H   24    0.11826      0.00000     0.38050    0.00124     0.38174
      H   25    0.11216      0.00000     0.38648    0.00137     0.38784
      H   26    0.11384      0.00000     0.38411    0.00206     0.38616
      H   27    0.11125      0.00000     0.38759    0.00116     0.38875
      H   28    0.10194      0.00000     0.39680    0.00126     0.39806
      H   29    0.08364      0.00000     0.41473    0.00163     0.41636
      H   30    0.09282      0.00000     0.40604    0.00115     0.40718
      H   31    0.17083      0.00000     0.32652    0.00266     0.32917
      H   32    0.09310      0.00000     0.40586    0.00104     0.40690
      H   33    0.08226      0.00000     0.41622    0.00153     0.41774
      H   34    0.10416      0.00000     0.39467    0.00118     0.39584
      H   35    0.11334      0.00000     0.38569    0.00097     0.38666
 =======================================================================
   * Total *    0.00000     19.99427    44.76873    0.23700    65.00000

 Normal termination of Gaussian 16 at Fri Dec 11 00:43:18 2020.
