 Gaussian 16, Revision A.03,

 -----------------------------------------------------------
 # opt freq B3LYP/6-31G(d) empiricaldispersion=gd3bj scf=xqc
 -----------------------------------------------------------

 -------------------------------
 CID_104686006_JID_3596_neutraal
 -------------------------------
 Symbolic Z-matrix:
 Charge =  0 Multiplicity = 1

 SCF Done:  E(RB3LYP) =  -598.977147936     A.U. after   14 cycles
 SCF Done:  E(RB3LYP) =  -598.980445774     A.U. after   12 cycles
 SCF Done:  E(RB3LYP) =  -598.980114219     A.U. after   12 cycles
 SCF Done:  E(RB3LYP) =  -598.981245345     A.U. after   11 cycles
 SCF Done:  E(RB3LYP) =  -598.981707959     A.U. after   12 cycles
 SCF Done:  E(RB3LYP) =  -598.981896318     A.U. after   12 cycles
 SCF Done:  E(RB3LYP) =  -598.982004072     A.U. after   10 cycles
 SCF Done:  E(RB3LYP) =  -598.982036313     A.U. after   10 cycles
 SCF Done:  E(RB3LYP) =  -598.982050908     A.U. after   10 cycles
 SCF Done:  E(RB3LYP) =  -598.982053709     A.U. after    9 cycles
 SCF Done:  E(RB3LYP) =  -598.982058910     A.U. after   10 cycles
 SCF Done:  E(RB3LYP) =  -598.982059655     A.U. after    9 cycles
 SCF Done:  E(RB3LYP) =  -598.982059925     A.U. after    8 cycles
 SCF Done:  E(RB3LYP) =  -598.982059971     A.U. after    7 cycles
 Optimization completed.
    -- Stationary point found.
 Normal termination of Gaussian 16 at Wed Dec  9 23:15:36 2020.

 --------------------------------------------------------------------
 #N Geom=AllCheck Guess=TCheck SCRF=Check GenChk RB3LYP/6-31G(d) Freq
 --------------------------------------------------------------------

 Structure from the checkpoint file:  "JID_3596.chk"
 -------------------------------
 CID_104686006_JID_3596_neutraal
 -------------------------------
 Charge =  0 Multiplicity = 1

 SCF Done:  E(RB3LYP) =  -598.982059971     A.U. after    1 cycles

  Exact polarizability: 138.235  -2.916 110.940  -3.999   0.125 103.494
 Approx polarizability: 161.255  -4.967 153.956  -6.059  -6.465 163.672

                      1                      2                      3
                      A                      A                      A
 Frequencies --     23.2505                36.6499                50.5457
 Red. masses --      3.6714                 4.1159                 3.0959
 Frc consts  --      0.0012                 0.0033                 0.0047
 IR Inten    --      0.2897                 0.1391                 0.5231

                      4                      5                      6
                      A                      A                      A
 Frequencies --     67.6068                80.2273                91.9742
 Red. masses --      3.4003                 4.9291                 3.3381
 Frc consts  --      0.0092                 0.0187                 0.0166
 IR Inten    --      0.7163                 2.4682                 1.8272

                      7                      8                      9
                      A                      A                      A
 Frequencies --    130.3815               175.7961               209.2077
 Red. masses --      3.9815                 1.8932                 2.1259
 Frc consts  --      0.0399                 0.0345                 0.0548
 IR Inten    --      0.6893                14.4548                10.0544

                     10                     11                     12
                      A                      A                      A
 Frequencies --    223.9070               234.9711               246.4327
 Red. masses --      1.1398                 1.0810                 1.7639
 Frc consts  --      0.0337                 0.0352                 0.0631
 IR Inten    --      0.0919                 1.2678                 3.0057

                     13                     14                     15
                      A                      A                      A
 Frequencies --    255.3531               270.9661               291.9636
 Red. masses --      1.2564                 1.5322                 2.2627
 Frc consts  --      0.0483                 0.0663                 0.1136
 IR Inten    --     13.5096                17.4553                 7.3593

                     16                     17                     18
                      A                      A                      A
 Frequencies --    299.5123               334.8076               375.0146
 Red. masses --      2.8725                 3.1146                 2.4770
 Frc consts  --      0.1518                 0.2057                 0.2052
 IR Inten    --      1.7709                11.6003                 8.1874

                     19                     20                     21
                      A                      A                      A
 Frequencies --    420.4752               425.9695               476.2040
 Red. masses --      2.1680                 1.8699                 2.8039
 Frc consts  --      0.2258                 0.1999                 0.3746
 IR Inten    --      2.4751                 0.7364                 1.9636

                     22                     23                     24
                      A                      A                      A
 Frequencies --    525.3213               532.1608               641.7205
 Red. masses --      4.9057                 2.7169                 2.6409
 Frc consts  --      0.7976                 0.4533                 0.6408
 IR Inten    --      8.6796                 6.2553                 0.1204

                     25                     26                     27
                      A                      A                      A
 Frequencies --    766.0453               779.7074               829.3199
 Red. masses --      3.5577                 1.9486                 2.6668
 Frc consts  --      1.2301                 0.6980                 1.0807
 IR Inten    --      1.8119                 6.4558                 5.7349

                     28                     29                     30
                      A                      A                      A
 Frequencies --    831.2447               848.8712               882.4209
 Red. masses --      2.6229                 2.5262                 1.3944
 Frc consts  --      1.0678                 1.0725                 0.6397
 IR Inten    --      2.0307                 0.8784               134.3748

                     31                     32                     33
                      A                      A                      A
 Frequencies --    924.1788               935.7655               946.2956
 Red. masses --      1.6418                 1.6992                 1.2165
 Frc consts  --      0.8262                 0.8766                 0.6418
 IR Inten    --     11.6880                 5.1997                 1.9545

                     34                     35                     36
                      A                      A                      A
 Frequencies --    959.4581               970.8194               982.4649
 Red. masses --      1.5583                 1.5809                 1.6248
 Frc consts  --      0.8452                 0.8779                 0.9240
 IR Inten    --      1.5185                 1.0304                 3.3744

                     37                     38                     39
                      A                      A                      A
 Frequencies --    998.8429              1037.7199              1054.1089
 Red. masses --      2.0035                 2.2109                 1.8629
 Frc consts  --      1.1777                 1.4028                 1.2196
 IR Inten    --      3.4040                13.4866                66.7785

                     40                     41                     42
                      A                      A                      A
 Frequencies --   1091.5466              1101.4090              1116.3674
 Red. masses --      1.6714                 2.6505                 2.0701
 Frc consts  --      1.1733                 1.8944                 1.5201
 IR Inten    --     24.7885                 7.5168               128.1582

                     43                     44                     45
                      A                      A                      A
 Frequencies --   1147.2917              1158.4693              1201.3920
 Red. masses --      2.0061                 2.2334                 1.8475
 Frc consts  --      1.5558                 1.7660                 1.5711
 IR Inten    --     14.9827                 0.6973                11.0737

                     46                     47                     48
                      A                      A                      A
 Frequencies --   1210.0375              1212.1716              1219.7851
 Red. masses --      1.7444                 1.7536                 1.4989
 Frc consts  --      1.5048                 1.5181                 1.3140
 IR Inten    --     33.3609                 1.6029                29.5777

                     49                     50                     51
                      A                      A                      A
 Frequencies --   1290.9873              1303.3928              1319.3533
 Red. masses --      2.1763                 1.3281                 1.2736
 Frc consts  --      2.1371                 1.3293                 1.3062
 IR Inten    --    205.6239                 0.7573                30.6701

                     52                     53                     54
                      A                      A                      A
 Frequencies --   1346.4891              1350.0237              1365.6158
 Red. masses --      1.2788                 1.3093                 1.3534
 Frc consts  --      1.3660                 1.4060                 1.4871
 IR Inten    --      1.0649                 4.9771                 3.3848

                     55                     56                     57
                      A                      A                      A
 Frequencies --   1375.2587              1398.0035              1400.1775
 Red. masses --      1.1897                 1.4104                 1.4000
 Frc consts  --      1.3258                 1.6241                 1.6172
 IR Inten    --      4.9445                 1.6497                 4.9604

                     58                     59                     60
                      A                      A                      A
 Frequencies --   1407.9614              1426.8039              1431.8198
 Red. masses --      1.3850                 1.3358                 1.2696
 Frc consts  --      1.6176                 1.6022                 1.5335
 IR Inten    --      5.1834                 1.2587                 3.4830

                     61                     62                     63
                      A                      A                      A
 Frequencies --   1438.5052              1452.4446              1453.8690
 Red. masses --      1.2843                 1.3141                 1.3377
 Frc consts  --      1.5658                 1.6334                 1.6660
 IR Inten    --      8.3975                 6.5838                11.4436

                     64                     65                     66
                      A                      A                      A
 Frequencies --   1510.9996              1512.1680              1520.6752
 Red. masses --      1.0811                 1.0658                 1.0772
 Frc consts  --      1.4543                 1.4359                 1.4676
 IR Inten    --      3.6475                 0.2169                 0.3238

                     67                     68                     69
                      A                      A                      A
 Frequencies --   1521.0616              1525.7639              1527.4243
 Red. masses --      1.0581                 1.0680                 1.0538
 Frc consts  --      1.4423                 1.4648                 1.4485
 IR Inten    --      1.7737                 2.9297                 9.1220

                     70                     71                     72
                      A                      A                      A
 Frequencies --   1534.0895              1536.1737              1543.0568
 Red. masses --      1.0605                 1.0624                 1.0492
 Frc consts  --      1.4704                 1.4772                 1.4719
 IR Inten    --      5.9915                17.8692                13.2519

                     73                     74                     75
                      A                      A                      A
 Frequencies --   1550.4431              1701.0233              1815.5159
 Red. masses --      1.0829                 1.0872                10.8294
 Frc consts  --      1.5337                 1.8535                21.0307
 IR Inten    --      5.4228                28.7943               178.5884

                     76                     77                     78
                      A                      A                      A
 Frequencies --   2993.2653              3030.6572              3042.0451
 Red. masses --      1.0719                 1.0838                 1.0639
 Frc consts  --      5.6582                 5.8651                 5.8008
 IR Inten    --     40.9390                16.1971                20.1082

                     79                     80                     81
                      A                      A                      A
 Frequencies --   3042.9737              3049.2001              3053.8716
 Red. masses --      1.0359                 1.0586                 1.0359
 Frc consts  --      5.6513                 5.7991                 5.6918
 IR Inten    --     26.9107                 9.7433                16.7249

                     82                     83                     84
                      A                      A                      A
 Frequencies --   3054.8113              3075.4674              3076.5378
 Red. masses --      1.0388                 1.0911                 1.0869
 Frc consts  --      5.7112                 6.0805                 6.0612
 IR Inten    --     35.0068                39.3291                 5.7427

                     85                     86                     87
                      A                      A                      A
 Frequencies --   3082.3235              3090.8526              3097.1985
 Red. masses --      1.0587                 1.0982                 1.1009
 Frc consts  --      5.9262                 6.1817                 6.2221
 IR Inten    --     37.7296                48.2306                44.4982

                     88                     89                     90
                      A                      A                      A
 Frequencies --   3106.3025              3117.1818              3118.2888
 Red. masses --      1.1021                 1.1025                 1.1028
 Frc consts  --      6.2653                 6.3120                 6.3178
 IR Inten    --     28.8296                 6.4783                39.8527

                     91                     92                     93
                      A                      A                      A
 Frequencies --   3121.4871              3129.5370              3139.2048
 Red. masses --      1.1018                 1.1016                 1.1018
 Frc consts  --      6.3255                 6.3568                 6.3973
 IR Inten    --     58.0437                26.1511                23.6505

                     94                     95                     96
                      A                      A                      A
 Frequencies --   3142.1061              3464.4029              3546.0992
 Red. masses --      1.1074                 1.0501                 1.0917
 Frc consts  --      6.4418                 7.4256                 8.0879
 IR Inten    --     20.1991                 2.5033                 1.4551

 - Thermochemistry -
 -------------------
 Temperature   298.150 Kelvin.  Pressure   1.00000 Atm.
 Atom     1 has atomic number  6 and mass  12.00000

 Molecular mass:   187.15723 amu.
 Principal axes and moments of inertia in atomic units:
                           1         2         3
     Eigenvalues --  1135.916395104.556585422.93590
           X            1.00000  -0.00293   0.00024
           Y            0.00293   0.99976   0.02154
           Z           -0.00030  -0.02154   0.99977
 This molecule is an asymmetric top.
 Rotational symmetry number  1.
 Warning -- assumption of classical behavior for rotation
           may cause significant error
 Rotational temperatures (Kelvin)      0.07625     0.01697     0.01597
 Rotational constants (GHZ):           1.58880     0.35355     0.33280
 Zero-point vibrational energy     812019.6 (Joules/Mol)
                                  194.07733 (Kcal/Mol)
 Warning -- explicit consideration of  23 degrees of freedom as
           vibrations may cause significant error
 Vibrational temperatures:     33.45    52.73    72.72    97.27   115.43
          (Kelvin)            132.33   187.59   252.93   301.00   322.15
                              338.07   354.56   367.40   389.86   420.07
                              430.93   481.71   539.56   604.97   612.88
                              685.15   755.82   765.66   923.29  1102.17
                             1121.83  1193.21  1195.98  1221.34  1269.61
                             1329.69  1346.36  1361.51  1380.45  1396.79
                             1413.55  1437.11  1493.05  1516.63  1570.49
                             1584.68  1606.20  1650.70  1666.78  1728.54
                             1740.97  1744.04  1755.00  1857.44  1875.29
                             1898.26  1937.30  1942.38  1964.82  1978.69
                             2011.42  2014.54  2025.74  2052.85  2060.07
                             2069.69  2089.74  2091.79  2173.99  2175.67
                             2187.91  2188.47  2195.23  2197.62  2207.21
                             2210.21  2220.11  2230.74  2447.39  2612.12
                             4306.64  4360.44  4376.82  4378.16  4387.12
                             4393.84  4395.19  4424.91  4426.45  4434.78
                             4447.05  4456.18  4469.28  4484.93  4486.52
                             4491.12  4502.71  4516.62  4520.79  4984.50
                             5102.05

 Zero-point correction=                           0.309282 (Hartree/Particle)
 Thermal correction to Energy=                    0.325385
 Thermal correction to Enthalpy=                  0.326329
 Thermal correction to Gibbs Free Energy=         0.264553
 Sum of electronic and zero-point Energies=           -598.672778
 Sum of electronic and thermal Energies=              -598.656675
 Sum of electronic and thermal Enthalpies=            -598.655731
 Sum of electronic and thermal Free Energies=         -598.717507

                     E (Thermal)             CV                S
                      KCal/Mol        Cal/Mol-Kelvin    Cal/Mol-Kelvin
 Total                  204.182             58.075            130.020
 Electronic               0.000              0.000              0.000
 Translational            0.889              2.981             41.586
 Rotational               0.889              2.981             31.820
 Vibrational            202.405             52.113             56.614
 Vibration     1          0.593              1.985              6.335
 Vibration     2          0.594              1.982              5.432
 Vibration     3          0.595              1.977              4.796
 Vibration     4          0.598              1.970              4.222
 Vibration     5          0.600              1.963              3.885
 Vibration     6          0.602              1.955              3.618
 Vibration     7          0.612              1.923              2.940
 Vibration     8          0.628              1.872              2.373
 Vibration     9          0.642              1.827              2.051
 Vibration    10          0.649              1.805              1.927
 Vibration    11          0.655              1.787              1.841
 Vibration    12          0.661              1.769              1.756
 Vibration    13          0.666              1.754              1.693
 Vibration    14          0.675              1.727              1.590
 Vibration    15          0.687              1.689              1.463
 Vibration    16          0.692              1.675              1.420
 Vibration    17          0.716              1.606              1.237
 Vibration    18          0.746              1.523              1.059
 Vibration    19          0.783              1.426              0.890
 Vibration    20          0.788              1.414              0.872
 Vibration    21          0.833              1.303              0.720
 Vibration    22          0.880              1.194              0.598
 Vibration    23          0.887              1.179              0.582

 Optimization completed.
    -- Stationary point found.
 Normal termination of Gaussian 16 at Wed Dec  9 23:25:14 2020.

 ----------------------------------------------------------------------
 # B3LYP/6-311++G(d,p) empiricaldispersion=gd3bj scf=xqc pop=npa geom=c
 heck
 ----------------------------------------------------------------------

 ---------------------------------------
 CID_104686006_JID_3596_Energie_neutraal
 ---------------------------------------
 Structure from the checkpoint file:  "JID_3596.chk"
 Charge =  0 Multiplicity = 1

 SCF Done:  E(RB3LYP) =  -599.164518675     A.U. after   13 cycles
 Normal termination of Gaussian 16 at Wed Dec  9 23:29:48 2020.

 ----------------------------------------------------------------------
 # B3LYP/6-311++G(d,p) empiricaldispersion=gd3bj scf=xqc pop=npa geom=c
 heck
 ----------------------------------------------------------------------

 -------------------------------------
 CID_104686006_JID_3596_Energie_kation
 -------------------------------------
 Structure from the checkpoint file:  "JID_3596.chk"
 Charge =  1 Multiplicity = 2

 SCF Done:  E(UB3LYP) =  -598.837071547     A.U. after   25 cycles
 Normal termination of Gaussian 16 at Wed Dec  9 23:41:58 2020.
 Gaussian 16:  ES64L-G16RevA.03 25-Dec-2016

 ----------------------------------------------------------------------
 # B3LYP/6-311++G(d,p) empiricaldispersion=gd3bj scf=xqc pop=npa geom=c
 heck
 ----------------------------------------------------------------------

 ------------------------------------
 CID_104686006_JID_3596_Energie_anion
 ------------------------------------
 Structure from the checkpoint file:  "JID_3596.chk"
 Charge = -1 Multiplicity = 2

                         Standard orientation:
 ---------------------------------------------------------------------
 Center     Atomic      Atomic             Coordinates (Angstroms)
 Number     Number       Type             X           Y           Z
 ---------------------------------------------------------------------
      1          6           0        3.199279    0.834592    0.940752
      2          6           0        3.265972   -0.055059   -0.305383
      3          6           0        4.473757   -0.999657   -0.255179
      4          6           0        1.993810   -0.883282   -0.483917
      5          8           0        0.838928   -0.032437   -0.647158
      6          6           0       -0.007958    0.088955    0.403113
      7          8           0        0.128780   -0.492178    1.459035
      8          6           0       -1.150526    1.032145    0.069929
      9          6           0       -0.626264    2.437964   -0.261175
     10          6           0       -2.010949    0.470166   -1.080868
     11          6           0       -2.504097   -0.970036   -0.877905
     12          6           0       -3.280725   -1.201531    0.422017
     13          7           0       -4.461436   -0.327588    0.492338
     14          1           0        3.043452    0.233652    1.843751
     15          1           0        2.378371    1.555142    0.873229
     16          1           0        4.130581    1.399478    1.060094
     17          1           0        3.364732    0.591187   -1.189043
     18          1           0        4.414660   -1.663350    0.616468
     19          1           0        4.535008   -1.626804   -1.152497
     20          1           0        5.407076   -0.432016   -0.177782
     21          1           0        2.045393   -1.480359   -1.399096
     22          1           0        1.828700   -1.541644    0.372546
     23          1           0       -1.749485    1.082062    0.985150
     24          1           0        0.009053    2.413284   -1.151302
     25          1           0       -1.464823    3.115712   -0.455034
     26          1           0       -0.041049    2.851973    0.567455
     27          1           0       -2.872501    1.136313   -1.215776
     28          1           0       -1.428778    0.522509   -2.008126
     29          1           0       -3.148373   -1.236094   -1.724002
     30          1           0       -1.646623   -1.656072   -0.897206
     31          1           0       -3.638475   -2.237729    0.431422
     32          1           0       -2.595699   -1.098818    1.279725
     33          1           0       -5.031114   -0.594026    1.293680
     34          1           0       -4.165521    0.630086    0.676648
 ---------------------------------------------------------------------

 SCF Done:  E(UB3LYP) =  -599.150261557     A.U. after   32 cycles

 The electronic state is 2-A.
 Alpha  occ. eigenvalues --  -19.07177 -19.01799 -14.19511 -10.20556 -10.12852
 Alpha  occ. eigenvalues --  -10.09347 -10.09325 -10.08580 -10.07718 -10.07201
 Alpha  occ. eigenvalues --  -10.07172 -10.06871 -10.06333  -1.01147  -0.92703
 Alpha  occ. eigenvalues --   -0.78659  -0.73019  -0.71170  -0.65631  -0.61629
 Alpha  occ. eigenvalues --   -0.59418  -0.57815  -0.54176  -0.49451  -0.47650
 Alpha  occ. eigenvalues --   -0.46484  -0.41434  -0.39579  -0.39057  -0.38502
 Alpha  occ. eigenvalues --   -0.37474  -0.35902  -0.34705  -0.34036  -0.33598
 Alpha  occ. eigenvalues --   -0.31394  -0.30956  -0.29952  -0.29460  -0.28977
 Alpha  occ. eigenvalues --   -0.28519  -0.26881  -0.26639  -0.26182  -0.24984
 Alpha  occ. eigenvalues --   -0.24767  -0.23864  -0.23430  -0.23065  -0.20581
 Alpha  occ. eigenvalues --   -0.18223  -0.14823   0.04257
 Alpha virt. eigenvalues --    0.05620   0.06881   0.07528   0.08086   0.08554
 Alpha virt. eigenvalues --    0.08852   0.09065   0.09979   0.10298   0.10726
 Alpha virt. eigenvalues --    0.10892   0.11553   0.11785   0.12616   0.12874

  Beta  occ. eigenvalues --  -19.07169 -19.01795 -14.19466 -10.20557 -10.12839
  Beta  occ. eigenvalues --  -10.09335 -10.09314 -10.08569 -10.07705 -10.07171
  Beta  occ. eigenvalues --  -10.07168 -10.06834 -10.06311  -1.01138  -0.92695
  Beta  occ. eigenvalues --   -0.78590  -0.72992  -0.71137  -0.65593  -0.61593
  Beta  occ. eigenvalues --   -0.59359  -0.57758  -0.54124  -0.49406  -0.47602
  Beta  occ. eigenvalues --   -0.46455  -0.41402  -0.39545  -0.39021  -0.38479
  Beta  occ. eigenvalues --   -0.37443  -0.35856  -0.34661  -0.34010  -0.33549
  Beta  occ. eigenvalues --   -0.31365  -0.30921  -0.29918  -0.29424  -0.28949
  Beta  occ. eigenvalues --   -0.28492  -0.26856  -0.26601  -0.26154  -0.24957
  Beta  occ. eigenvalues --   -0.24732  -0.23830  -0.23402  -0.23042  -0.20564
  Beta  occ. eigenvalues --   -0.18210  -0.14781
  Beta virt. eigenvalues --    0.06376   0.06803   0.07430   0.07970   0.08589
  Beta virt. eigenvalues --    0.08960   0.09061   0.09371   0.10218   0.10601
  Beta virt. eigenvalues --    0.11142   0.11198   0.11855   0.11950   0.12611

 Mulliken charges and spin densities:
               1          2
     1  C    0.312021  -0.871620
     2  C   -1.569211   1.995952
     3  C    0.910730  -1.538483
     4  C    1.077272  -1.410956
     5  O    0.078251   0.047926
     6  C   -0.406321  -0.198852
     7  O   -0.177258   0.025436
     8  C   -0.750991   1.126626
     9  C    0.700490  -1.411941
    10  C    0.045139  -0.617765
    11  C   -0.021596   0.086321
    12  C    0.238803  -0.820194
    13  N   -0.335324  -0.022345
    14  H    0.052840   0.103696
    15  H    0.215098  -0.102402
    16  H   -0.254006   0.407755
    17  H   -0.152341   0.333177
    18  H    0.005123   0.121920
    19  H   -0.357804   0.494918
    20  H   -0.389077   0.541167
    21  H   -0.075715   0.229342
    22  H    0.149660   0.055727
    23  H   -0.046302   0.272049
    24  H    0.054659   0.105819
    25  H   -0.383517   0.549478
    26  H   -0.130960   0.282102
    27  H    0.073496   0.099062
    28  H    0.101697   0.067214
    29  H    0.030424   0.142866
    30  H    0.225218  -0.104182
    31  H   -0.087067   0.242832
    32  H    0.058226   0.120053
    33  H   -0.169555   0.410327
    34  H   -0.022100   0.236973
 Sum of Mulliken charges =  -1.00000   1.00000

 Dipole moment (field-independent basis, Debye):
    X=             -0.3552    Y=             -1.5658    Z=             -0.7583  Tot=              1.7757
 Quadrupole moment (field-independent basis, Debye-Ang):
   XX=           -193.6428   YY=           -120.4727   ZZ=           -116.5024
   XY=              4.2393   XZ=              9.8228   YZ=             -1.4862

 Summary of Natural Population Analysis:

                                       Natural Population
                Natural  -----------------------------------------------
    Atom  No    Charge         Core      Valence    Rydberg      Total
 -----------------------------------------------------------------------
      C    1   -0.28664      0.99965     2.28037    0.00662     3.28664
      C    2   -0.12505      0.99961     2.11581    0.00963     3.12505
      C    3   -0.28483      0.99965     2.27889    0.00629     3.28483
      C    4   -0.01403      0.99951     2.00215    0.01236     3.01403
      O    5   -0.28710      0.99986     3.27818    0.00906     4.28710
      C    6    0.41767      0.99964     1.55637    0.02631     2.58233
      O    7   -0.30772      0.99987     3.30250    0.00535     4.30772
      C    8   -0.15617      0.99955     2.14521    0.01140     3.15617
      C    9   -0.28032      0.99965     2.27416    0.00651     3.28032
      C   10   -0.18886      0.99961     2.18013    0.00912     3.18886
      C   11   -0.19297      0.99962     2.18565    0.00769     3.19297
      C   12   -0.09509      0.99963     2.08388    0.01158     3.09509
      N   13   -0.42519      0.99977     2.91459    0.01082     3.92519
      H   14    0.10002      0.00000     0.39911    0.00088     0.39998
      H   15    0.10133      0.00000     0.39756    0.00111     0.39867
      H   16    0.10032      0.00000     0.39875    0.00093     0.39968
      H   17    0.09619      0.00000     0.40178    0.00203     0.40381
      H   18    0.09588      0.00000     0.40309    0.00102     0.40412
      H   19    0.10086      0.00000     0.39764    0.00150     0.39914
      H   20    0.10356      0.00000     0.39510    0.00134     0.39644
      H   21    0.09254      0.00000     0.40629    0.00116     0.40746
      H   22    0.09759      0.00000     0.40094    0.00146     0.40241
      H   23    0.10637      0.00000     0.39158    0.00205     0.39363
      H   24    0.10310      0.00000     0.39558    0.00132     0.39690
      H   25    0.10227      0.00000     0.39648    0.00125     0.39773
      H   26    0.10139      0.00000     0.39754    0.00107     0.39861
      H   27    0.10168      0.00000     0.39714    0.00118     0.39832
      H   28    0.10284      0.00000     0.39591    0.00125     0.39716
      H   29    0.09938      0.00000     0.39947    0.00114     0.40062
      H   30    0.09630      0.00000     0.40250    0.00120     0.40370
      H   31    0.08941      0.00000     0.40959    0.00100     0.41059
      H   32    0.08563      0.00000     0.41252    0.00185     0.41437
      H   33    0.17650      0.00000     0.32106    0.00244     0.32350
      H   34    0.17313      0.00000     0.32434    0.00253     0.32687
 =======================================================================
   * Total *    0.00000     12.99563    38.84189    0.16248    52.00000

 Normal termination of Gaussian 16 at Wed Dec  9 23:57:24 2020.
