 Gaussian 16, Revision A.03,

 -----------------------------------------------------------
 # opt freq B3LYP/6-31G(d) empiricaldispersion=gd3bj scf=xqc
 -----------------------------------------------------------

 -------------------------------
 CID_111702778_JID_5344_neutraal
 -------------------------------
 Symbolic Z-matrix:
 Charge =  0 Multiplicity = 1

 SCF Done:  E(RB3LYP) =  -993.092178957     A.U. after   14 cycles
 SCF Done:  E(RB3LYP) =  -993.097981999     A.U. after   12 cycles
 SCF Done:  E(RB3LYP) =  -993.098970937     A.U. after   12 cycles
 SCF Done:  E(RB3LYP) =  -993.099362818     A.U. after   12 cycles
 SCF Done:  E(RB3LYP) =  -993.099481815     A.U. after   11 cycles
 SCF Done:  E(RB3LYP) =  -993.099534011     A.U. after   10 cycles
 SCF Done:  E(RB3LYP) =  -993.099547325     A.U. after   10 cycles
 SCF Done:  E(RB3LYP) =  -993.099558687     A.U. after    9 cycles
 SCF Done:  E(RB3LYP) =  -993.099563466     A.U. after    9 cycles
 SCF Done:  E(RB3LYP) =  -993.099564691     A.U. after    8 cycles
 SCF Done:  E(RB3LYP) =  -993.099565828     A.U. after    8 cycles
 SCF Done:  E(RB3LYP) =  -993.099566972     A.U. after    9 cycles
 SCF Done:  E(RB3LYP) =  -993.099567164     A.U. after    7 cycles
 SCF Done:  E(RB3LYP) =  -993.099567265     A.U. after    7 cycles
 Optimization completed.
    -- Stationary point found.
 Normal termination of Gaussian 16 at Thu Dec 10 15:36:56 2020.

 --------------------------------------------------------------------
 #N Geom=AllCheck Guess=TCheck SCRF=Check GenChk RB3LYP/6-31G(d) Freq
 --------------------------------------------------------------------

 Structure from the checkpoint file:  "JID_5344.chk"
 -------------------------------
 CID_111702778_JID_5344_neutraal
 -------------------------------
 Charge =  0 Multiplicity = 1

 SCF Done:  E(RB3LYP) =  -993.099567265     A.U. after    1 cycles

  Exact polarizability: 183.466  18.137 135.277   9.868  -8.280 130.223
 Approx polarizability: 238.028  36.765 204.730  13.741 -25.717 220.435

                      1                      2                      3
                      A                      A                      A
 Frequencies --     27.4105                35.7919                43.6006
 Red. masses --      4.3363                 4.4730                 2.4878
 Frc consts  --      0.0019                 0.0034                 0.0028
 IR Inten    --      0.2116                 0.2348                 0.1211

                      4                      5                      6
                      A                      A                      A
 Frequencies --     46.7222                64.7894                86.2370
 Red. masses --      3.7915                 3.4356                 2.8766
 Frc consts  --      0.0049                 0.0085                 0.0126
 IR Inten    --      0.7133                 0.3567                 0.7521

                      7                      8                      9
                      A                      A                      A
 Frequencies --    109.5118               131.1904               182.0541
 Red. masses --      3.8966                 1.2284                 2.8044
 Frc consts  --      0.0275                 0.0125                 0.0548
 IR Inten    --      1.4985                 0.2945                 0.4731

                     10                     11                     12
                      A                      A                      A
 Frequencies --    203.3201               224.0575               229.9801
 Red. masses --      2.1667                 2.3648                 1.9770
 Frc consts  --      0.0528                 0.0699                 0.0616
 IR Inten    --      2.0348                 2.7680                 2.6038

                     13                     14                     15
                      A                      A                      A
 Frequencies --    270.7309               282.3835               291.2166
 Red. masses --      1.3257                 1.7357                 2.5093
 Frc consts  --      0.0573                 0.0815                 0.1254
 IR Inten    --      2.0720                 0.3149                 2.2348

                     16                     17                     18
                      A                      A                      A
 Frequencies --    350.5287               359.3908               391.7435
 Red. masses --      2.3847                 3.9702                 4.0907
 Frc consts  --      0.1726                 0.3021                 0.3699
 IR Inten    --      4.1613                 1.2289                 2.0986

                     19                     20                     21
                      A                      A                      A
 Frequencies --    431.8594               466.1902               480.5543
 Red. masses --      2.4658                 4.4952                 2.3238
 Frc consts  --      0.2710                 0.5756                 0.3162
 IR Inten    --      1.7071                 0.1615                 0.8595

                     22                     23                     24
                      A                      A                      A
 Frequencies --    516.9137               584.8815               623.5435
 Red. masses --      3.4273                 2.8714                 6.3952
 Frc consts  --      0.5396                 0.5787                 1.4650
 IR Inten    --      1.8090                20.1816                 1.5341

                     25                     26                     27
                      A                      A                      A
 Frequencies --    660.6830               684.5732               689.4373
 Red. masses --      2.0786                 1.4965                 1.6838
 Frc consts  --      0.5346                 0.4132                 0.4716
 IR Inten    --     20.2290                 1.8354                45.3890

                     28                     29                     30
                      A                      A                      A
 Frequencies --    704.5695               765.4596               775.7011
 Red. masses --      2.5690                 1.7171                 3.5999
 Frc consts  --      0.7514                 0.5928                 1.2762
 IR Inten    --     36.3654                 6.4403                 6.0222

                     31                     32                     33
                      A                      A                      A
 Frequencies --    790.6324               804.9535               827.1329
 Red. masses --      1.5249                 1.8757                 2.8820
 Frc consts  --      0.5616                 0.7161                 1.1617
 IR Inten    --     82.0692                44.9178                43.7468

                     34                     35                     36
                      A                      A                      A
 Frequencies --    851.1537               863.8569               889.8813
 Red. masses --      2.8000                 2.4992                 1.3069
 Frc consts  --      1.1952                 1.0988                 0.6098
 IR Inten    --     17.8119                 5.9312                 1.4188

                     37                     38                     39
                      A                      A                      A
 Frequencies --    900.2192               926.1105               950.9256
 Red. masses --      2.3178                 1.8273                 2.1077
 Frc consts  --      1.1067                 0.9234                 1.1229
 IR Inten    --     26.7258                 3.6261                 1.6856

                     40                     41                     42
                      A                      A                      A
 Frequencies --    958.3009              1035.9705              1049.6029
 Red. masses --      2.0735                 4.6129                 1.7398
 Frc consts  --      1.1219                 2.9169                 1.1293
 IR Inten    --     24.9138                31.6334                10.8670

                     43                     44                     45
                      A                      A                      A
 Frequencies --   1077.3799              1113.7371              1120.3991
 Red. masses --      2.3914                 2.1271                 1.1246
 Frc consts  --      1.6355                 1.5546                 0.8317
 IR Inten    --      4.4572                 2.7934                 3.5848

                     46                     47                     48
                      A                      A                      A
 Frequencies --   1122.5466              1126.6627              1139.5163
 Red. masses --      2.2983                 1.3579                 1.8869
 Frc consts  --      1.7063                 1.0156                 1.4436
 IR Inten    --     11.1874                 2.8682                55.4852

                     49                     50                     51
                      A                      A                      A
 Frequencies --   1164.6753              1168.4353              1193.1617
 Red. masses --      2.3503                 1.5563                 1.5197
 Frc consts  --      1.8783                 1.2518                 1.2747
 IR Inten    --     25.8872                 6.2656                30.8140

                     52                     53                     54
                      A                      A                      A
 Frequencies --   1210.7919              1267.9181              1280.3922
 Red. masses --      1.9733                 1.7619                 1.3925
 Frc consts  --      1.7045                 1.6689                 1.3450
 IR Inten    --     15.2011                12.3929                31.1670

                     55                     56                     57
                      A                      A                      A
 Frequencies --   1330.4781              1343.9313              1377.0639
 Red. masses --      1.2661                 1.2971                 1.5245
 Frc consts  --      1.3205                 1.3804                 1.7033
 IR Inten    --     20.3063                14.0951                43.4549

                     58                     59                     60
                      A                      A                      A
 Frequencies --   1379.9456              1408.1554              1430.3592
 Red. masses --      1.3948                 1.3164                 1.7153
 Frc consts  --      1.5649                 1.5379                 2.0676
 IR Inten    --     49.3290                 6.7713                37.9505

                     61                     62                     63
                      A                      A                      A
 Frequencies --   1435.7426              1440.0283              1446.4180
 Red. masses --      1.5811                 1.6646                 1.5193
 Frc consts  --      1.9203                 2.0338                 1.8727
 IR Inten    --     32.5699                34.2026                11.9796

                     64                     65                     66
                      A                      A                      A
 Frequencies --   1461.2556              1477.2801              1485.8288
 Red. masses --      1.2718                 4.9897                 1.3026
 Frc consts  --      1.6000                 6.4157                 1.6943
 IR Inten    --     55.9813                16.3127                 6.7396

                     67                     68                     69
                      A                      A                      A
 Frequencies --   1499.0698              1512.3479              1518.0323
 Red. masses --      1.1532                 1.0754                 1.1262
 Frc consts  --      1.5268                 1.4492                 1.5291
 IR Inten    --      7.5182                 1.9562                17.3551

                     70                     71                     72
                      A                      A                      A
 Frequencies --   1522.1110              1528.9392              1534.1514
 Red. masses --      1.0459                 1.0626                 1.0788
 Frc consts  --      1.4277                 1.4635                 1.4960
 IR Inten    --      5.4524                 3.1086                 4.6003

                     73                     74                     75
                      A                      A                      A
 Frequencies --   1536.6103              1539.8423              1546.6701
 Red. masses --      1.1191                 1.0646                 1.0499
 Frc consts  --      1.5569                 1.4873                 1.4798
 IR Inten    --      0.9273                 1.1770                 6.0799

                     76                     77                     78
                      A                      A                      A
 Frequencies --   1602.8124              1741.9618              2963.2045
 Red. masses --      5.7779                 4.9769                 1.0477
 Frc consts  --      8.7454                 8.8979                 5.4202
 IR Inten    --      1.0156               392.6923                88.1306

                     79                     80                     81
                      A                      A                      A
 Frequencies --   3014.9493              3043.0999              3047.0201
 Red. masses --      1.0956                 1.0435                 1.0359
 Frc consts  --      5.8674                 5.6934                 5.6668
 IR Inten    --     59.9791                17.9288                23.8417

                     82                     83                     84
                      A                      A                      A
 Frequencies --   3053.6794              3070.5416              3071.9194
 Red. masses --      1.0774                 1.0640                 1.0700
 Frc consts  --      5.9191                 5.9104                 5.9489
 IR Inten    --      9.9296                38.4314                39.4026

                     85                     86                     87
                      A                      A                      A
 Frequencies --   3104.6952              3109.5255              3112.8820
 Red. masses --      1.0918                 1.1015                 1.0978
 Frc consts  --      6.2007                 6.2753                 6.2676
 IR Inten    --     47.1568                20.2132                22.7241

                     88                     89                     90
                      A                      A                      A
 Frequencies --   3121.1463              3129.1243              3134.9409
 Red. masses --      1.1028                 1.0994                 1.1036
 Frc consts  --      6.3295                 6.3425                 6.3903
 IR Inten    --     25.5523                30.6400                12.2435

                     91                     92                     93
                      A                      A                      A
 Frequencies --   3149.2114              3218.0725              3262.7234
 Red. masses --      1.0986                 1.0903                 1.0934
 Frc consts  --      6.4197                 6.6526                 6.8578
 IR Inten    --     29.5012                 5.3491                 1.2270

                     94                     95                     96
                      A                      A                      A
 Frequencies --   3271.0500              3553.9648              3585.7046
 Red. masses --      1.0969                 1.0740                 1.0743
 Frc consts  --      6.9151                 7.9923                 8.1379
 IR Inten    --      1.2905                 9.5424                 6.8522

 - Thermochemistry -
 -------------------
 Temperature   298.150 Kelvin.  Pressure   1.00000 Atm.
 Atom     1 has atomic number  6 and mass  12.00000

 Molecular mass:   225.12997 amu.
 Principal axes and moments of inertia in atomic units:
                           1         2         3
     Eigenvalues --  1811.187087621.020968296.55835
           X            0.99982  -0.01580   0.01071
           Y            0.01555   0.99962   0.02277
           Z           -0.01106  -0.02260   0.99968
 This molecule is an asymmetric top.
 Rotational symmetry number  1.
 Warning -- assumption of classical behavior for rotation
           may cause significant error
 Rotational temperatures (Kelvin)      0.04782     0.01137     0.01044
 Rotational constants (GHZ):           0.99644     0.23681     0.21753
 Zero-point vibrational energy     775574.2 (Joules/Mol)
                                  185.36667 (Kcal/Mol)
 Warning -- explicit consideration of  23 degrees of freedom as
           vibrations may cause significant error
 Vibrational temperatures:     39.44    51.50    62.73    67.22    93.22
          (Kelvin)            124.08   157.56   188.75   261.94   292.53
                              322.37   330.89   389.52   406.29   419.00
                              504.33   517.08   563.63   621.35   670.74
                              691.41   743.72   841.51   897.14   950.58
                              984.95   991.95  1013.72  1101.33  1116.06
                             1137.54  1158.15  1190.06  1224.62  1242.90
                             1280.34  1295.21  1332.47  1368.17  1378.78
                             1490.53  1510.14  1550.11  1602.42  1612.00
                             1615.09  1621.02  1639.51  1675.71  1681.12
                             1716.69  1742.06  1824.25  1842.20  1914.26
                             1933.62  1981.29  1985.43  2026.02  2057.97
                             2065.71  2071.88  2081.07  2102.42  2125.48
                             2137.78  2156.83  2175.93  2184.11  2189.98
                             2199.80  2207.30  2210.84  2215.49  2225.31
                             2306.09  2506.29  4263.39  4337.84  4378.34
                             4383.98  4393.56  4417.82  4419.81  4466.96
                             4473.91  4478.74  4490.63  4502.11  4510.48
                             4531.01  4630.09  4694.33  4706.31  5113.36
                             5159.03

 Zero-point correction=                           0.295401 (Hartree/Particle)
 Thermal correction to Energy=                    0.312154
 Thermal correction to Enthalpy=                  0.313098
 Thermal correction to Gibbs Free Energy=         0.248810
 Sum of electronic and zero-point Energies=           -992.804167
 Sum of electronic and thermal Energies=              -992.787413
 Sum of electronic and thermal Enthalpies=            -992.786469
 Sum of electronic and thermal Free Energies=         -992.850757

                     E (Thermal)             CV                S
                      KCal/Mol        Cal/Mol-Kelvin    Cal/Mol-Kelvin
 Total                  195.880             61.570            135.306
 Electronic               0.000              0.000              0.000
 Translational            0.889              2.981             42.137
 Rotational               0.889              2.981             33.104
 Vibrational            194.102             55.609             60.065
 Vibration     1          0.593              1.984              6.009
 Vibration     2          0.594              1.982              5.479
 Vibration     3          0.595              1.980              5.088
 Vibration     4          0.595              1.979              4.952
 Vibration     5          0.597              1.971              4.306
 Vibration     6          0.601              1.959              3.744
 Vibration     7          0.606              1.942              3.278
 Vibration     8          0.612              1.922              2.929
 Vibration     9          0.630              1.864              2.307
 Vibration    10          0.639              1.835              2.103
 Vibration    11          0.649              1.804              1.926
 Vibration    12          0.652              1.795              1.879
 Vibration    13          0.674              1.727              1.592
 Vibration    14          0.681              1.706              1.519
 Vibration    15          0.687              1.690              1.467
 Vibration    16          0.727              1.574              1.164
 Vibration    17          0.734              1.556              1.125
 Vibration    18          0.759              1.488              0.993
 Vibration    19          0.793              1.401              0.853
 Vibration    20          0.824              1.325              0.748
 Vibration    21          0.837              1.293              0.709
 Vibration    22          0.872              1.213              0.617
 Vibration    23          0.942              1.064              0.476

                           ! Non-Optimized Parameters !
 Normal termination of Gaussian 16 at Thu Dec 10 15:47:19 2020.

 ----------------------------------------------------------------------
 # B3LYP/6-311++G(d,p) empiricaldispersion=gd3bj scf=xqc pop=npa geom=c
 heck
 ----------------------------------------------------------------------

 ---------------------------------------
 CID_111702778_JID_5344_Energie_neutraal
 ---------------------------------------
 Structure from the checkpoint file:  "JID_5344.chk"
 Charge =  0 Multiplicity = 1

 SCF Done:  E(RB3LYP) =  -993.295680846     A.U. after   14 cycles
 Normal termination of Gaussian 16 at Thu Dec 10 15:51:47 2020.

 ----------------------------------------------------------------------
 # B3LYP/6-311++G(d,p) empiricaldispersion=gd3bj scf=xqc pop=npa geom=c
 heck
 ----------------------------------------------------------------------

 -------------------------------------
 CID_111702778_JID_5344_Energie_kation
 -------------------------------------
 Structure from the checkpoint file:  "JID_5344.chk"
 Charge =  1 Multiplicity = 2

 SCF Done:  E(UB3LYP) =  -993.013630850     A.U. after   26 cycles
 Normal termination of Gaussian 16 at Thu Dec 10 16:02:30 2020.
 Gaussian 16:  ES64L-G16RevA.03 25-Dec-2016

 ----------------------------------------------------------------------
 # B3LYP/6-311++G(d,p) empiricaldispersion=gd3bj scf=xqc pop=npa geom=c
 heck
 ----------------------------------------------------------------------

 ------------------------------------
 CID_111702778_JID_5344_Energie_anion
 ------------------------------------
 Structure from the checkpoint file:  "JID_5344.chk"
 Charge = -1 Multiplicity = 2

                         Standard orientation:
 ---------------------------------------------------------------------
 Center     Atomic      Atomic             Coordinates (Angstroms)
 Number     Number       Type             X           Y           Z
 ---------------------------------------------------------------------
      1          6           0        4.008953   -2.173175   -0.661623
      2          6           0        2.631014   -2.065296   -0.006116
      3          7           0        2.402073   -0.782678    0.672447
      4          6           0        2.332646    0.401358   -0.059534
      5          7           0        2.890805    1.522600    0.227217
      6          6           0        3.854600    1.569070    1.309787
      7          7           0        1.539890    0.319115   -1.214442
      8          6           0        0.130571   -0.063492   -1.056363
      9          6           0       -0.666240    0.786988   -0.038356
     10          6           0       -0.589071    2.287147   -0.361302
     11          6           0       -2.087084    0.282301    0.033992
     12          6           0       -2.599083   -0.425489    1.089313
     13         16           0       -4.253303   -0.892067    0.837040
     14          6           0       -4.266979   -0.126650   -0.721453
     15          6           0       -3.061590    0.447454   -1.009447
     16          1           0        4.127343   -1.393515   -1.421058
     17          1           0        4.135050   -3.148220   -1.146607
     18          1           0        4.809088   -2.056398    0.079055
     19          1           0        1.852601   -2.202976   -0.758318
     20          1           0        2.495665   -2.853079    0.743406
     21          1           0        2.972445   -0.681472    1.502991
     22          1           0        3.365461    1.610150    2.296630
     23          1           0        4.554282    0.714439    1.322770
     24          1           0        4.455686    2.478844    1.214988
     25          1           0        1.633253    1.206159   -1.699550
     26          1           0       -0.332662    0.011232   -2.046792
     27          1           0        0.069156   -1.113444   -0.758059
     28          1           0       -0.201396    0.626001    0.942135
     29          1           0       -0.951716    2.495858   -1.375952
     30          1           0       -1.206541    2.862343    0.335915
     31          1           0        0.442428    2.643531   -0.279412
     32          1           0       -2.093584   -0.697039    2.006416
     33          1           0       -5.162754   -0.143878   -1.327093
     34          1           0       -2.866752    0.979972   -1.934060
 ---------------------------------------------------------------------

 SCF Done:  E(UB3LYP) =  -993.282697329     A.U. after   33 cycles
 SCF Done:  E(UB3LYP) =  -993.282697329     a.u. after    1 cycles

 The electronic state is 2-A.
 Alpha  occ. eigenvalues --  -88.79012 -14.22829 -14.22232 -14.18120 -10.16315
 Alpha  occ. eigenvalues --  -10.11282 -10.10959 -10.10757 -10.10738 -10.09473
 Alpha  occ. eigenvalues --  -10.09106 -10.08936 -10.08926 -10.06861 -10.06643
 Alpha  occ. eigenvalues --   -7.87624  -5.83903  -5.83543  -5.83238  -0.88727
 Alpha  occ. eigenvalues --   -0.80465  -0.79481  -0.77729  -0.70808  -0.65222
 Alpha  occ. eigenvalues --   -0.64270  -0.62929  -0.61062  -0.57352  -0.53573
 Alpha  occ. eigenvalues --   -0.51597  -0.49218  -0.48404  -0.45123  -0.41926
 Alpha  occ. eigenvalues --   -0.40153  -0.39087  -0.38705  -0.36073  -0.34738
 Alpha  occ. eigenvalues --   -0.34411  -0.33342  -0.33097  -0.32043  -0.31651
 Alpha  occ. eigenvalues --   -0.31111  -0.30770  -0.29571  -0.29045  -0.28031
 Alpha  occ. eigenvalues --   -0.27778  -0.27281  -0.25722  -0.24925  -0.24364
 Alpha  occ. eigenvalues --   -0.23691  -0.16895  -0.15970  -0.15793  -0.14748
 Alpha  occ. eigenvalues --   -0.13036   0.04090
 Alpha virt. eigenvalues --    0.05394   0.06461   0.07003   0.07033   0.07283
 Alpha virt. eigenvalues --    0.08644   0.09044   0.09211   0.09756   0.09920
 Alpha virt. eigenvalues --    0.10470   0.10842   0.11641   0.11772   0.12161

  Beta  occ. eigenvalues --  -88.79011 -14.22806 -14.22228 -14.18112 -10.16316
  Beta  occ. eigenvalues --  -10.11267 -10.10950 -10.10746 -10.10712 -10.09474
  Beta  occ. eigenvalues --  -10.09101 -10.08911 -10.08906 -10.06849 -10.06612
  Beta  occ. eigenvalues --   -7.87623  -5.83902  -5.83540  -5.83236  -0.88707
  Beta  occ. eigenvalues --   -0.80439  -0.79463  -0.77709  -0.70794  -0.65171
  Beta  occ. eigenvalues --   -0.64245  -0.62908  -0.61030  -0.57315  -0.53496
  Beta  occ. eigenvalues --   -0.51562  -0.49181  -0.48370  -0.45090  -0.41894
  Beta  occ. eigenvalues --   -0.40111  -0.39049  -0.38675  -0.36049  -0.34707
  Beta  occ. eigenvalues --   -0.34381  -0.33316  -0.33064  -0.32009  -0.31621
  Beta  occ. eigenvalues --   -0.31076  -0.30744  -0.29548  -0.29027  -0.27983
  Beta  occ. eigenvalues --   -0.27761  -0.27264  -0.25686  -0.24913  -0.24341
  Beta  occ. eigenvalues --   -0.23665  -0.16881  -0.15946  -0.15753  -0.14726
  Beta  occ. eigenvalues --   -0.13017
  Beta virt. eigenvalues --    0.06190   0.06476   0.06634   0.07475   0.07531
  Beta virt. eigenvalues --    0.07711   0.09050   0.09197   0.09491   0.10037
  Beta virt. eigenvalues --    0.10197   0.10734   0.10939   0.11901   0.12015

 Mulliken charges and spin densities:
               1          2
     1  C    0.859799  -1.367041
     2  C   -0.191649   0.080816
     3  N   -0.041371  -0.016112
     4  C   -0.619052  -0.059198
     5  N   -0.112230   0.084006
     6  C    0.618782  -1.049064
     7  N   -0.010113   0.069276
     8  C   -0.511258  -0.190282
     9  C    1.199112  -0.798302
    10  C   -0.407050  -0.355253
    11  C    1.203168  -1.638288
    12  C   -1.014508   2.006722
    13  S    0.183177  -0.739166
    14  C    1.081648  -1.102127
    15  C   -1.383707   0.829983
    16  H   -0.077501   0.249680
    17  H   -0.200159   0.342567
    18  H   -0.119578   0.253629
    19  H    0.268699  -0.167376
    20  H   -0.789598   0.977483
    21  H   -0.061758   0.326686
    22  H   -0.236706   0.394060
    23  H   -0.169845   0.297751
    24  H    0.018257   0.113177
    25  H    0.295880   0.000561
    26  H   -0.104083   0.279199
    27  H    0.009113   0.121567
    28  H    0.391832  -0.192255
    29  H   -0.024859   0.179279
    30  H    0.046864   0.103218
    31  H    0.174794  -0.013265
    32  H   -0.284590   0.574864
    33  H   -0.571037   0.833710
    34  H   -0.420474   0.569496
 Sum of Mulliken charges =  -1.00000   1.00000

 Dipole moment (field-independent basis, Debye):
    X=             -2.9494    Y=              2.0635    Z=             -1.1444  Tot=              3.7771
 Quadrupole moment (field-independent basis, Debye-Ang):
   XX=           -197.3565   YY=           -146.2880   ZZ=           -141.4103
   XY=             10.6220   XZ=            -18.3071   YZ=              4.3556

 Summary of Natural Population Analysis:

                                       Natural Population
                Natural  -----------------------------------------------
    Atom  No    Charge         Core      Valence    Rydberg      Total
 -----------------------------------------------------------------------
      C    1   -0.29255      0.99966     2.28784    0.00505     3.29255
      C    2   -0.08724      0.99962     2.07633    0.01128     3.08724
      N    3   -0.33536      0.99968     2.82310    0.01259     3.83536
      C    4    0.31049      0.99958     1.67107    0.01886     2.68951
      N    5   -0.29968      0.99964     2.78908    0.01097     3.79968
      C    6   -0.19577      0.99964     2.18685    0.00929     3.19577
      N    7   -0.33322      0.99969     2.82293    0.01060     3.83322
      C    8   -0.08042      0.99959     2.06967    0.01116     3.08042
      C    9   -0.12651      0.99956     2.11692    0.01004     3.12651
      C   10   -0.28936      0.99965     2.28420    0.00551     3.28936
      C   11   -0.03760      0.99947     2.02584    0.01229     3.03760
      C   12   -0.18808      0.99945     2.17875    0.00989     3.18808
      S   13    0.19385      4.99946     2.78491    0.02178     7.80615
      C   14   -0.19163      0.99955     2.17975    0.01233     3.19163
      C   15   -0.12584      0.99948     2.11561    0.01074     3.12584
      H   16    0.10006      0.00000     0.39882    0.00112     0.39994
      H   17    0.09970      0.00000     0.39935    0.00095     0.40030
      H   18    0.09844      0.00000     0.39984    0.00173     0.40156
      H   19    0.09535      0.00000     0.40301    0.00164     0.40465
      H   20    0.09703      0.00000     0.40072    0.00225     0.40297
      H   21    0.19139      0.00000     0.30395    0.00466     0.30861
      H   22    0.08998      0.00000     0.40873    0.00129     0.41002
      H   23    0.08468      0.00000     0.41367    0.00165     0.41532
      H   24    0.09372      0.00000     0.40507    0.00120     0.40628
      H   25    0.18795      0.00000     0.30934    0.00271     0.31205
      H   26    0.09529      0.00000     0.40360    0.00112     0.40471
      H   27    0.09838      0.00000     0.39994    0.00167     0.40162
      H   28    0.10555      0.00000     0.39216    0.00229     0.39445
      H   29    0.09390      0.00000     0.40498    0.00113     0.40610
      H   30    0.10148      0.00000     0.39765    0.00088     0.39852
      H   31    0.11127      0.00000     0.38731    0.00142     0.38873
      H   32    0.11322      0.00000     0.38554    0.00123     0.38678
      H   33    0.11169      0.00000     0.38667    0.00164     0.38831
      H   34    0.10986      0.00000     0.38860    0.00154     0.39014
 =======================================================================
   * Total *   -0.00000     18.99371    41.80179    0.20449    61.00000

 Normal termination of Gaussian 16 at Thu Dec 10 16:16:26 2020.
