 Gaussian 16, Revision A.03,

 -----------------------------------------------------------
 # opt freq B3LYP/6-31G(d) empiricaldispersion=gd3bj scf=xqc
 -----------------------------------------------------------

 -------------------------------
 CID_130528861_JID_1540_neutraal
 -------------------------------
 Symbolic Z-matrix:
 Charge =  0 Multiplicity = 1

 SCF Done:  E(RB3LYP) =  -460.878809254     A.U. after   14 cycles
 SCF Done:  E(RB3LYP) =  -460.881256408     A.U. after   11 cycles
 SCF Done:  E(RB3LYP) =  -460.881888133     A.U. after   11 cycles
 SCF Done:  E(RB3LYP) =  -460.882607464     A.U. after   13 cycles
 SCF Done:  E(RB3LYP) =  -460.883022629     A.U. after   12 cycles
 SCF Done:  E(RB3LYP) =  -460.883313479     A.U. after   10 cycles
 SCF Done:  E(RB3LYP) =  -460.883431868     A.U. after   12 cycles
 SCF Done:  E(RB3LYP) =  -460.883564167     A.U. after   11 cycles
 SCF Done:  E(RB3LYP) =  -460.883682349     A.U. after   11 cycles
 SCF Done:  E(RB3LYP) =  -460.883705514     A.U. after    9 cycles
 SCF Done:  E(RB3LYP) =  -460.883724221     A.U. after   10 cycles
 SCF Done:  E(RB3LYP) =  -460.883725741     A.U. after    8 cycles
 SCF Done:  E(RB3LYP) =  -460.883726049     A.U. after    7 cycles
 SCF Done:  E(RB3LYP) =  -460.883726255     A.U. after    7 cycles
 SCF Done:  E(RB3LYP) =  -460.883726329     A.U. after    7 cycles
 Optimization completed.
    -- Stationary point found.

 1\1\GINC-NODE119\FOpt\RB3LYP\6-31G(d)\C9H14N2\VSC10255\08-Dec-2020\0\\
 # opt freq B3LYP/6-31G(d) empiricaldispersion=gd3bj scf=xqc\\CID_13052
 8861_JID_1540_neutraal\\0,1\C,1.1112942813,-0.2563144904,-0.0874510228
 \C,0.7267039208,-0.828018308,1.2638170444\C,-0.554195626,-1.6039611491
 ,1.3662312236\C,0.7673748487,-2.3347635335,1.4462437321\C,1.1113763769
 ,0.0262698089,2.4744830331\C,2.6054708746,0.2418360965,2.5501251238\C,
 3.3476590459,1.3744091039,2.8268550317\C,4.7282282695,1.0170951257,2.7
 859095047\C,4.7949753127,-0.3246799057,2.4832610674\N,3.5043201952,-0.

 Normal termination of Gaussian 16 at Tue Dec  8 20:21:47 2020.

 --------------------------------------------------------------------
 #N Geom=AllCheck Guess=TCheck SCRF=Check GenChk RB3LYP/6-31G(d) Freq
 --------------------------------------------------------------------

 Structure from the checkpoint file:  "JID_1540.chk"
 -------------------------------
 CID_130528861_JID_1540_neutraal
 -------------------------------
 Charge =  0 Multiplicity = 1

 SCF Done:  E(RB3LYP) =  -460.883726329     A.U. after    1 cycles

  Exact polarizability: 122.096   0.342 102.843  -6.464   1.989  72.069
 Approx polarizability: 164.497   0.120 163.717 -12.547   5.719 107.075

                      1                      2                      3
                      A                      A                      A
 Frequencies --     45.9037                79.1607               114.6737
 Red. masses --      3.6793                 3.0931                 3.6633
 Frc consts  --      0.0046                 0.0114                 0.0284
 IR Inten    --      0.3350                 0.2345                 0.4747

                      4                      5                      6
                      A                      A                      A
 Frequencies --    187.8756               217.8370               250.7717
 Red. masses --      3.7939                 1.0758                 2.9269
 Frc consts  --      0.0789                 0.0301                 0.1084
 IR Inten    --      1.7991                 2.3601                 3.1535

                      7                      8                      9
                      A                      A                      A
 Frequencies --    280.4428               294.0099               306.3462
 Red. masses --      2.1666                 1.3600                 3.0907
 Frc consts  --      0.1004                 0.0693                 0.1709
 IR Inten    --      5.8145                49.7298                 0.9746

                     10                     11                     12
                      A                      A                      A
 Frequencies --    328.8313               409.0434               442.9609
 Red. masses --      2.0613                 3.1418                 2.8270
 Frc consts  --      0.1313                 0.3097                 0.3268
 IR Inten    --      2.2607                 4.2709                12.4965

                     13                     14                     15
                      A                      A                      A
 Frequencies --    489.2854               546.7689               631.0527
 Red. masses --      1.4426                 3.4887                 3.4385
 Frc consts  --      0.2035                 0.6145                 0.8068
 IR Inten    --     44.8973                 1.5617                 0.2917

                     16                     17                     18
                      A                      A                      A
 Frequencies --    643.1649               700.0782               749.3785
 Red. masses --      2.7889                 1.2668                 2.6582
 Frc consts  --      0.6797                 0.3658                 0.8795
 IR Inten    --      1.3685                40.1978                15.0107

                     19                     20                     21
                      A                      A                      A
 Frequencies --    761.0510               797.4858               809.5367
 Red. masses --      2.0727                 1.2056                 1.2535
 Frc consts  --      0.7073                 0.4517                 0.4840
 IR Inten    --     32.9918                13.6480                10.2018

                     22                     23                     24
                      A                      A                      A
 Frequencies --    856.4978               881.6910               904.4233
 Red. masses --      1.2765                 2.2739                 5.0884
 Frc consts  --      0.5517                 1.0415                 2.4523
 IR Inten    --      0.2855                 7.6803                 1.9392

                     25                     26                     27
                      A                      A                      A
 Frequencies --    912.1163               933.5971               960.2351
 Red. masses --      1.8870                 1.7894                 1.8375
 Frc consts  --      0.9250                 0.9189                 0.9982
 IR Inten    --     29.1031               120.8666                21.1311

                     28                     29                     30
                      A                      A                      A
 Frequencies --    963.9751              1018.5070              1042.2511
 Red. masses --      1.7246                 1.9633                 1.2500
 Frc consts  --      0.9442                 1.1999                 0.8000
 IR Inten    --      4.6155                26.5457                 4.3703

                     31                     32                     33
                      A                      A                      A
 Frequencies --   1059.0631              1068.5213              1083.0249
 Red. masses --      1.3982                 1.8005                 1.4159
 Frc consts  --      0.9240                 1.2112                 0.9785
 IR Inten    --     25.8416                 9.9305                 1.0729

                     34                     35                     36
                      A                      A                      A
 Frequencies --   1121.9807              1128.1644              1140.6533
 Red. masses --      2.0092                 1.7975                 1.7618
 Frc consts  --      1.4902                 1.3479                 1.3506
 IR Inten    --     11.6641                49.3813                 1.8396

                     37                     38                     39
                      A                      A                      A
 Frequencies --   1148.6554              1197.5827              1205.8441
 Red. masses --      1.4303                 1.4017                 1.4575
 Frc consts  --      1.1119                 1.1845                 1.2487
 IR Inten    --      2.3816                 0.5186                 0.6544

                     40                     41                     42
                      A                      A                      A
 Frequencies --   1258.6069              1287.9355              1304.3123
 Red. masses --      2.5262                 1.5448                 1.9798
 Frc consts  --      2.3578                 1.5097                 1.9844
 IR Inten    --      3.7517                 1.2397                47.3771

                     43                     44                     45
                      A                      A                      A
 Frequencies --   1341.4543              1385.5410              1429.3492
 Red. masses --      2.5453                 1.6487                 1.3974
 Frc consts  --      2.6986                 1.8647                 1.6820
 IR Inten    --      4.6900                23.9894                 4.2963

                     46                     47                     48
                      A                      A                      A
 Frequencies --   1447.5944              1453.4010              1467.0813
 Red. masses --      1.4848                 2.7605                 3.0508
 Frc consts  --      1.8332                 3.4356                 3.8688
 IR Inten    --      8.9251                13.9612                 5.7110

                     49                     50                     51
                      A                      A                      A
 Frequencies --   1495.4733              1514.0173              1522.2760
 Red. masses --      1.1006                 4.2785                 1.0480
 Frc consts  --      1.4502                 5.7784                 1.4308
 IR Inten    --      3.1839                 4.0653                 1.5169

                     52                     53                     54
                      A                      A                      A
 Frequencies --   1532.7893              1541.3095              1622.6436
 Red. masses --      1.1533                 1.2350                 3.7489
 Frc consts  --      1.5965                 1.7285                 5.8157
 IR Inten    --      4.5785                 2.0618                 4.9297

                     55                     56                     57
                      A                      A                      A
 Frequencies --   1703.1675              3006.4938              3046.3193
 Red. masses --      1.0883                 1.0835                 1.0354
 Frc consts  --      1.8601                 5.7702                 5.6610
 IR Inten    --     17.7511                39.6692                25.0469

                     58                     59                     60
                      A                      A                      A
 Frequencies --   3108.2791              3119.0791              3128.9436
 Red. masses --      1.1013                 1.1024                 1.0539
 Frc consts  --      6.2687                 6.3187                 6.0789
 IR Inten    --     22.0446                27.7058                16.9405

                     61                     62                     63
                      A                      A                      A
 Frequencies --   3150.7625              3206.4925              3231.1411
 Red. masses --      1.0556                 1.1180                 1.1170
 Frc consts  --      6.1741                 6.7724                 6.8710
 IR Inten    --     17.8602                 8.3585                16.6117

                     64                     65                     66
                      A                      A                      A
 Frequencies --   3249.4363              3261.8191              3280.0447
 Red. masses --      1.0896                 1.0949                 1.1037
 Frc consts  --      6.7783                 6.8635                 6.9963
 IR Inten    --      6.3019                 8.0779                 6.6246

                     67                     68                     69
                      A                      A                      A
 Frequencies --   3460.4164              3542.8137              3671.6523
 Red. masses --      1.0497                 1.0913                 1.0798
 Frc consts  --      7.4055                 8.0705                 8.5770
 IR Inten    --      1.1601                 0.3864                50.1523

 - Thermochemistry -
 -------------------
 Temperature   298.150 Kelvin.  Pressure   1.00000 Atm.
 Atom     1 has atomic number  6 and mass  12.00000

 Molecular mass:   150.11570 amu.
 Principal axes and moments of inertia in atomic units:
                           1         2         3
     Eigenvalues --   877.405042257.648592645.34297
           X            0.99994  -0.01081   0.00124
           Y            0.01080   0.99994   0.00259
           Z           -0.00127  -0.00258   1.00000
 This molecule is an asymmetric top.
 Rotational symmetry number  1.
 Warning -- assumption of classical behavior for rotation
           may cause significant error
 Rotational temperatures (Kelvin)      0.09872     0.03836     0.03274
 Rotational constants (GHZ):           2.05691     0.79939     0.68223
 Zero-point vibrational energy     577097.0 (Joules/Mol)
                                  137.92950 (Kcal/Mol)
 Warning -- explicit consideration of  14 degrees of freedom as
           vibrations may cause significant error
 Vibrational temperatures:     66.05   113.89   164.99   270.31   313.42
          (Kelvin)            360.80   403.49   423.01   440.76   473.11
                              588.52   637.32   703.97   786.68   907.94
                              925.37  1007.26  1078.19  1094.98  1147.40
                             1164.74  1232.31  1268.56  1301.26  1312.33
                             1343.24  1381.56  1386.95  1465.40  1499.57
                             1523.76  1537.36  1558.23  1614.28  1623.18
                             1641.15  1652.66  1723.05  1734.94  1810.85
                             1853.05  1876.61  1930.05  1993.48  2056.51
                             2082.77  2091.12  2110.80  2151.65  2178.33
                             2190.22  2205.34  2217.60  2334.62  2450.48
                             4325.67  4382.97  4472.12  4487.66  4501.85
                             4533.24  4613.43  4648.89  4675.21  4693.03
                             4719.25  4978.77  5097.32  5282.69

 Zero-point correction=                           0.219805 (Hartree/Particle)
 Thermal correction to Energy=                    0.230694
 Thermal correction to Enthalpy=                  0.231638
 Thermal correction to Gibbs Free Energy=         0.183429
 Sum of electronic and zero-point Energies=           -460.663922
 Sum of electronic and thermal Energies=              -460.653032
 Sum of electronic and thermal Enthalpies=            -460.652088
 Sum of electronic and thermal Free Energies=         -460.700297

                     E (Thermal)             CV                S
                      KCal/Mol        Cal/Mol-Kelvin    Cal/Mol-Kelvin
 Total                  144.763             42.565            101.464
 Electronic               0.000              0.000              0.000
 Translational            0.889              2.981             40.929
 Rotational               0.889              2.981             30.039
 Vibrational            142.985             36.604             30.496
 Vibration     1          0.595              1.979              4.986
 Vibration     2          0.600              1.963              3.912
 Vibration     3          0.608              1.937              3.188
 Vibration     4          0.633              1.857              2.249
 Vibration     5          0.646              1.814              1.977
 Vibration     6          0.663              1.761              1.725
 Vibration     7          0.680              1.710              1.531
 Vibration     8          0.689              1.685              1.451
 Vibration     9          0.697              1.662              1.382
 Vibration    10          0.712              1.618              1.266
 Vibration    11          0.773              1.451              0.930
 Vibration    12          0.803              1.376              0.817
 Vibration    13          0.845              1.274              0.685
 Vibration    14          0.902              1.147              0.551

 Optimization completed.
    -- Stationary point found.

 1\1\GINC-NODE119\Freq\RB3LYP\6-31G(d)\C9H14N2\VSC10255\08-Dec-2020\0\\
 #N Geom=AllCheck Guess=TCheck SCRF=Check GenChk RB3LYP/6-31G(d) Freq\\
 CID_130528861_JID_1540_neutraal\\0,1\C,1.1112942813,-0.2563144904,-0.0
 874510228\C,0.7267039208,-0.828018308,1.2638170444\C,-0.554195626,-1.6
 039611491,1.3662312236\C,0.7673748487,-2.3347635335,1.4462437321\C,1.1
 113763769,0.0262698089,2.4744830331\C,2.6054708746,0.2418360965,2.5501
 251238\C,3.3476590459,1.3744091039,2.8268550317\C,4.7282282695,1.01709
 51257,2.7859095047\C,4.7949753127,-0.3246799057,2.4832610674\N,3.50432

 Normal termination of Gaussian 16 at Tue Dec  8 20:27:58 2020.

 ----------------------------------------------------------------------
 # B3LYP/6-311++G(d,p) empiricaldispersion=gd3bj scf=xqc pop=npa geom=c
 heck
 ----------------------------------------------------------------------

 ---------------------------------------
 CID_130528861_JID_1540_Energie_neutraal
 ---------------------------------------
 Structure from the checkpoint file:  "JID_1540.chk"
 Charge =  0 Multiplicity = 1

 SCF Done:  E(RB3LYP) =  -461.020473441     A.U. after   15 cycles
 Normal termination of Gaussian 16 at Tue Dec  8 20:31:15 2020.

 ----------------------------------------------------------------------
 # B3LYP/6-311++G(d,p) empiricaldispersion=gd3bj scf=xqc pop=npa geom=c
 heck
 ----------------------------------------------------------------------

 -------------------------------------
 CID_130528861_JID_1540_Energie_kation
 -------------------------------------
 Structure from the checkpoint file:  "JID_1540.chk"
 Charge =  1 Multiplicity = 2

 SCF Done:  E(UB3LYP) =  -460.734362971     A.U. after   25 cycles
 Normal termination of Gaussian 16 at Tue Dec  8 20:37:57 2020.
 Gaussian 16:  ES64L-G16RevA.03 25-Dec-2016

 ------------------------------------
 CID_130528861_JID_1540_Energie_anion
 ------------------------------------
 Structure from the checkpoint file:  "JID_1540.chk"
 Charge = -1 Multiplicity = 2

                         Standard orientation:
 ---------------------------------------------------------------------
 Center     Atomic      Atomic             Coordinates (Angstroms)
 Number     Number       Type             X           Y           Z
 ---------------------------------------------------------------------
      1          6           0        1.420119   -0.180267    1.683957
      2          6           0        1.530859   -0.146914    0.171573
      3          6           0        2.900172   -0.210878   -0.440121
      4          6           0        1.981090   -1.407211   -0.545476
      5          6           0        0.497801    0.725850   -0.545761
      6          6           0       -0.912818    0.260993   -0.265458
      7          6           0       -2.060521    0.969652    0.035747
      8          6           0       -3.127460    0.035151    0.189599
      9          6           0       -2.604365   -1.221432   -0.019641
     10          7           0       -1.264863   -1.072115   -0.300614
     11          7           0        0.719896    2.141891   -0.222741
     12          1           0        1.598661    0.814320    2.109836
     13          1           0        2.166030   -0.857306    2.114012
     14          1           0        0.428012   -0.516133    2.005339
     15          1           0        3.083303    0.378047   -1.334062
     16          1           0        3.753765   -0.281478    0.228282
     17          1           0        2.209856   -2.285765    0.052878
     18          1           0        1.561864   -1.632118   -1.524282
     19          1           0        0.698340    0.631084   -1.623405
     20          1           0       -2.127865    2.044701    0.130796
     21          1           0       -4.157971    0.262135    0.426216
     22          1           0       -3.063678   -2.198868    0.008855
     23          1           0       -0.604659   -1.821357   -0.438100
     24          1           0        0.114302    2.712050   -0.811713
     25          1           0        0.405546    2.312598    0.732323
 ---------------------------------------------------------------------

 SCF Done:  E(UB3LYP) =  -461.004787465     A.U. after   33 cycles
 SCF Done:  E(UB3LYP) =  -461.004787465     a.u. after    1 cycles

 The electronic state is 2-A.
 Alpha  occ. eigenvalues --  -14.24493 -14.19287 -10.10749 -10.08676 -10.08432
 Alpha  occ. eigenvalues --  -10.08315 -10.06877 -10.06707 -10.05831 -10.04995
 Alpha  occ. eigenvalues --  -10.04782  -0.86920  -0.79733  -0.75543  -0.66580
 Alpha  occ. eigenvalues --   -0.63503  -0.60945  -0.56131  -0.50368  -0.48075
 Alpha  occ. eigenvalues --   -0.46000  -0.44992  -0.41916  -0.40057  -0.37897
 Alpha  occ. eigenvalues --   -0.34274  -0.33137  -0.32528  -0.31626  -0.30650
 Alpha  occ. eigenvalues --   -0.29266  -0.28642  -0.28197  -0.26807  -0.26190
 Alpha  occ. eigenvalues --   -0.23936  -0.19116  -0.17980  -0.15209  -0.14170
 Alpha  occ. eigenvalues --   -0.10553   0.04662
 Alpha virt. eigenvalues --    0.06901   0.07378   0.08017   0.09111   0.09487
 Alpha virt. eigenvalues --    0.10117   0.10402   0.11419   0.12080   0.12680
 Alpha virt. eigenvalues --    0.12909   0.13530   0.13807   0.14205   0.15775

  Beta  occ. eigenvalues --  -14.24470 -14.19262 -10.10737 -10.08677 -10.08432
  Beta  occ. eigenvalues --  -10.08295 -10.06840 -10.06694 -10.05802 -10.04991
  Beta  occ. eigenvalues --  -10.04764  -0.86890  -0.79699  -0.75515  -0.66542
  Beta  occ. eigenvalues --   -0.63466  -0.60903  -0.56081  -0.50293  -0.48021
  Beta  occ. eigenvalues --   -0.45958  -0.44948  -0.41869  -0.40010  -0.37855
  Beta  occ. eigenvalues --   -0.34233  -0.33100  -0.32487  -0.31592  -0.30618
  Beta  occ. eigenvalues --   -0.29239  -0.28612  -0.28166  -0.26769  -0.26161
  Beta  occ. eigenvalues --   -0.23909  -0.19084  -0.17957  -0.15185  -0.14149
  Beta  occ. eigenvalues --   -0.10535
  Beta virt. eigenvalues --    0.06974   0.07958   0.08167   0.08667   0.09512
  Beta virt. eigenvalues --    0.10136   0.10536   0.10982   0.11856   0.12327
  Beta virt. eigenvalues --    0.12730   0.13609   0.13817   0.14240   0.14579

 Mulliken charges and spin densities:
               1          2
     1  C    0.835560  -1.487110
     2  C   -2.534895   3.436960
     3  C    0.140816  -0.621798
     4  C    1.300255  -1.872504
     5  C    5.633229  -6.551930
     6  C   -1.547843   1.129177
     7  C   -2.213884   2.673698
     8  C    2.017916  -2.610693
     9  C   -1.039679   1.052916
    10  N   -0.115446   0.106973
    11  N   -0.382954   0.128898
    12  H   -0.116448   0.253124
    13  H   -0.241851   0.395044
    14  H    0.168370  -0.002449
    15  H    0.014100   0.113093
    16  H   -0.013212   0.155211
    17  H   -0.492324   0.660867
    18  H   -0.085984   0.242023
    19  H   -0.132821   0.364988
    20  H   -0.618568   0.782331
    21  H   -0.061490   0.195140
    22  H   -1.159698   1.324002
    23  H   -0.412322   0.738413
    24  H    0.027845   0.212652
    25  H    0.031328   0.180976
 Sum of Mulliken charges =  -1.00000   1.00000

 Dipole moment (field-independent basis, Debye):
    X=              1.1463    Y=              3.3896    Z=              0.2441  Tot=              3.5865
 Quadrupole moment (field-independent basis, Debye-Ang):
   XX=           -118.5891   YY=           -120.5061   ZZ=           -100.2276
   XY=             -2.5052   XZ=             -1.7524   YZ=              0.3701

 Summary of Natural Population Analysis:

                                       Natural Population
                Natural  -----------------------------------------------
    Atom  No    Charge         Core      Valence    Rydberg      Total
 -----------------------------------------------------------------------
      C    1   -0.28463      0.99961     2.27865    0.00637     3.28463
      C    2   -0.04675      0.99954     2.03189    0.01533     3.04675
      C    3   -0.18789      0.99957     2.18007    0.00825     3.18789
      C    4   -0.20295      0.99958     2.19337    0.00999     3.20295
      C    5   -0.01971      0.99949     2.00592    0.01429     3.01971
      C    6    0.06105      0.99952     1.92335    0.01608     2.93895
      C    7   -0.14792      0.99950     2.13960    0.00882     3.14792
      C    8   -0.14852      0.99956     2.13949    0.00946     3.14852
      C    9   -0.02086      0.99957     2.00729    0.01400     3.02086
      N   10   -0.26904      0.99965     2.75872    0.01067     3.76904
      N   11   -0.41565      0.99978     2.90590    0.00998     3.91565
      H   12    0.09882      0.00000     0.40005    0.00113     0.40118
      H   13    0.10173      0.00000     0.39712    0.00115     0.39827
      H   14    0.10578      0.00000     0.39305    0.00117     0.39422
      H   15    0.10378      0.00000     0.39514    0.00109     0.39622
      H   16    0.10091      0.00000     0.39813    0.00095     0.39909
      H   17    0.10541      0.00000     0.39278    0.00182     0.39459
      H   18    0.10331      0.00000     0.39474    0.00194     0.39669
      H   19    0.09906      0.00000     0.39884    0.00210     0.40094
      H   20    0.10330      0.00000     0.39525    0.00145     0.39670
      H   21    0.10151      0.00000     0.39775    0.00073     0.39849
      H   22    0.10133      0.00000     0.39656    0.00211     0.39867
      H   23    0.20885      0.00000     0.28465    0.00650     0.29115
      H   24    0.17584      0.00000     0.32232    0.00184     0.32416
      H   25    0.17322      0.00000     0.32465    0.00213     0.32678
 =======================================================================
   * Total *   -0.00000     10.99538    29.85526    0.14936    41.00000

 Normal termination of Gaussian 16 at Tue Dec  8 20:47:54 2020.
