 Gaussian 16, Revision A.03,

 -----------------------------------------------------------
 # opt freq B3LYP/6-31G(d) empiricaldispersion=gd3bj scf=xqc
 -----------------------------------------------------------

 ------------------------------
 CID_139952399_JID_920_neutraal
 ------------------------------
 Symbolic Z-matrix:
 Charge =  0 Multiplicity = 1

 SCF Done:  E(RB3LYP) =  -462.517954112     A.U. after   14 cycles
 SCF Done:  E(RB3LYP) =  -462.520702045     A.U. after   12 cycles
 SCF Done:  E(RB3LYP) =  -462.520532629     A.U. after   12 cycles
 SCF Done:  E(RB3LYP) =  -462.521436716     A.U. after   11 cycles
 SCF Done:  E(RB3LYP) =  -462.521596804     A.U. after   12 cycles
 SCF Done:  E(RB3LYP) =  -462.521916499     A.U. after   13 cycles
 SCF Done:  E(RB3LYP) =  -462.522293186     A.U. after   12 cycles
 SCF Done:  E(RB3LYP) =  -462.523336615     A.U. after   13 cycles
 SCF Done:  E(RB3LYP) =  -462.525175565     A.U. after   15 cycles
 SCF Done:  E(RB3LYP) =  -462.526172876     A.U. after   14 cycles
 SCF Done:  E(RB3LYP) =  -462.528880139     A.U. after   11 cycles
 SCF Done:  E(RB3LYP) =  -462.528895603     A.U. after   11 cycles
 SCF Done:  E(RB3LYP) =  -462.528900649     A.U. after    9 cycles
 SCF Done:  E(RB3LYP) =  -462.528901111     A.U. after    9 cycles
 SCF Done:  E(RB3LYP) =  -462.528901222     A.U. after    7 cycles
 SCF Done:  E(RB3LYP) =  -462.528901296     A.U. after    7 cycles
 Optimization completed.
    -- Stationary point found.

 1\1\GINC-NODE200\FOpt\RB3LYP\6-31G(d)\C8H12O2\VSC10255\08-Dec-2020\0\\
 # opt freq B3LYP/6-31G(d) empiricaldispersion=gd3bj scf=xqc\\CID_13995
 2399_JID_920_neutraal\\0,1\C,0.9236787787,-0.1682063055,0.1464014475\C
 ,0.2926034354,-0.0930901645,1.5044912874\C,-0.0886095543,1.0353669409,
 2.1068774514\C,-0.6880571347,1.1063049319,3.4724950231\C,-2.0395644088
 ,1.8003283059,3.6599984593\C,-1.9588683351,0.3234493711,3.8453810546\C
 ,-2.6263955801,-0.6214693835,2.8739160273\C,0.2354687818,1.3179501039,
 4.6288147076\O,-0.1113618073,1.4124272559,5.7908327631\O,1.5370483266,

 Normal termination of Gaussian 16 at Tue Dec  8 13:53:41 2020.

 --------------------------------------------------------------------
 #N Geom=AllCheck Guess=TCheck SCRF=Check GenChk RB3LYP/6-31G(d) Freq
 --------------------------------------------------------------------

 Structure from the checkpoint file:  "JID_920.chk"
 ------------------------------
 CID_139952399_JID_920_neutraal
 ------------------------------
 Charge =  0 Multiplicity = 1

 SCF Done:  E(RB3LYP) =  -462.528901296     A.U. after    1 cycles

  Exact polarizability: 103.067   3.725  87.089  -4.944  -0.114  72.219
 Approx polarizability: 143.699   6.939 116.630  -9.667  -0.066 113.227

                      1                      2                      3
                      A                      A                      A
 Frequencies --     50.8675                61.1829               119.2522
 Red. masses --      5.5189                 2.5330                 2.3101
 Frc consts  --      0.0084                 0.0056                 0.0194
 IR Inten    --      2.1788                 0.1461                 0.3564

                      4                      5                      6
                      A                      A                      A
 Frequencies --    149.7592               173.8574               212.0963
 Red. masses --      2.2811                 3.0757                 1.3232
 Frc consts  --      0.0301                 0.0548                 0.0351
 IR Inten    --      0.1912                 0.0695                 0.7768

                      7                      8                      9
                      A                      A                      A
 Frequencies --    215.7923               235.8353               305.5736
 Red. masses --      1.4583                 1.9007                 2.9567
 Frc consts  --      0.0400                 0.0623                 0.1627
 IR Inten    --      0.5348                 0.3015                 2.5805

                     10                     11                     12
                      A                      A                      A
 Frequencies --    363.1104               373.6089               411.3850
 Red. masses --      3.8672                 3.2521                 2.8318
 Frc consts  --      0.3004                 0.2675                 0.2824
 IR Inten    --      1.2741                 2.7696                 1.7953

                     13                     14                     15
                      A                      A                      A
 Frequencies --    458.2025               495.9967               629.5655
 Red. masses --      2.9363                 4.0162                 1.5334
 Frc consts  --      0.3632                 0.5821                 0.3581
 IR Inten    --      9.0295                14.7009                59.2050

                     16                     17                     18
                      A                      A                      A
 Frequencies --    653.6978               732.9902               766.4373
 Red. masses --      2.6697                 2.8197                 3.7827
 Frc consts  --      0.6722                 0.8926                 1.3092
 IR Inten    --     41.7472                20.2631                32.2541

                     19                     20                     21
                      A                      A                      A
 Frequencies --    801.2735               841.1989               893.2709
 Red. masses --      1.8070                 3.4908                 1.7349
 Frc consts  --      0.6835                 1.4554                 0.8156
 IR Inten    --     16.3929                 3.9700                10.4603

                     22                     23                     24
                      A                      A                      A
 Frequencies --    929.0244               940.8938               985.7420
 Red. masses --      1.4032                 1.8299                 1.8869
 Frc consts  --      0.7135                 0.9544                 1.0803
 IR Inten    --      8.1548                 6.1273                11.5541

                     25                     26                     27
                      A                      A                      A
 Frequencies --   1009.7244              1053.2264              1067.4371
 Red. masses --      1.1028                 1.3454                 1.9279
 Frc consts  --      0.6625                 0.8793                 1.2943
 IR Inten    --     25.3308                 6.2497                 6.8933

                     28                     29                     30
                      A                      A                      A
 Frequencies --   1082.0813              1090.3827              1139.5860
 Red. masses --      1.5311                 1.6173                 2.1703
 Frc consts  --      1.0562                 1.1329                 1.6606
 IR Inten    --      0.5524                 4.5949                10.4278

                     31                     32                     33
                      A                      A                      A
 Frequencies --   1153.0387              1187.6181              1215.2803
 Red. masses --      1.7512                 2.5017                 1.5702
 Frc consts  --      1.3717                 2.0789                 1.3663
 IR Inten    --     25.5283               250.7257                 2.5028

                     34                     35                     36
                      A                      A                      A
 Frequencies --   1242.8391              1310.6037              1348.8903
 Red. masses --      1.7678                 1.4572                 1.2947
 Frc consts  --      1.6088                 1.4747                 1.3880
 IR Inten    --     57.8118                 8.6906                 3.2132

                     37                     38                     39
                      A                      A                      A
 Frequencies --   1354.9574              1397.3453              1421.5885
 Red. masses --      1.9879                 2.4896                 1.4897
 Frc consts  --      2.1503                 2.8641                 1.7738
 IR Inten    --     16.1901                47.6100                24.3576

                     40                     41                     42
                      A                      A                      A
 Frequencies --   1441.7154              1451.8944              1502.2032
 Red. masses --      1.2619                 1.4697                 1.3158
 Frc consts  --      1.5454                 1.8254                 1.7495
 IR Inten    --      1.5132                12.8323                 7.9246

                     43                     44                     45
                      A                      A                      A
 Frequencies --   1509.3335              1520.6136              1522.4787
 Red. masses --      1.0454                 1.0568                 1.0585
 Frc consts  --      1.4032                 1.4398                 1.4456
 IR Inten    --      5.8594                 7.3957                 5.7183

                     46                     47                     48
                      A                      A                      A
 Frequencies --   1530.6596              1753.7041              1816.1860
 Red. masses --      1.0709                 6.0068                 9.3192
 Frc consts  --      1.4783                10.8844                18.1114
 IR Inten    --      7.7526                 0.5214               256.1031

                     49                     50                     51
                      A                      A                      A
 Frequencies --   3033.1822              3050.2787              3080.1384
 Red. masses --      1.0373                 1.0374                 1.1000
 Frc consts  --      5.6227                 5.6869                 6.1488
 IR Inten    --     35.5171                29.3303                22.6435

                     52                     53                     54
                      A                      A                      A
 Frequencies --   3106.4732              3118.4341              3137.8101
 Red. masses --      1.1020                 1.0997                 1.0987
 Frc consts  --      6.2658                 6.3009                 6.3736
 IR Inten    --     27.3456                12.6112                 6.4935

                     55                     56                     57
                      A                      A                      A
 Frequencies --   3138.4660              3148.4030              3159.0675
 Red. masses --      1.0896                 1.0556                 1.0886
 Frc consts  --      6.3235                 6.1647                 6.4009
 IR Inten    --     21.0832                11.1442                34.4887

                     58                     59                     60
                      A                      A                      A
 Frequencies --   3178.6398              3242.2112              3684.6888
 Red. masses --      1.0884                 1.1173                 1.0638
 Frc consts  --      6.4790                 6.9199                 8.5095
 IR Inten    --      9.0028                 4.6372                51.7244

 - Thermochemistry -
 -------------------
 Temperature   298.150 Kelvin.  Pressure   1.00000 Atm.
 Atom     1 has atomic number  6 and mass  12.00000

 Molecular mass:   140.08373 amu.
 Principal axes and moments of inertia in atomic units:
                           1         2         3
     Eigenvalues --  1115.899981658.984512438.95141
           X            0.99901   0.04393  -0.00656
           Y           -0.04386   0.99898   0.01083
           Z            0.00703  -0.01053   0.99992
 This molecule is an asymmetric top.
 Rotational symmetry number  1.
 Warning -- assumption of classical behavior for rotation
           may cause significant error
 Rotational temperatures (Kelvin)      0.07762     0.05221     0.03551
 Rotational constants (GHZ):           1.61730     1.08786     0.73997
 Zero-point vibrational energy     490479.7 (Joules/Mol)
                                  117.22745 (Kcal/Mol)
 Warning -- explicit consideration of  14 degrees of freedom as
           vibrations may cause significant error
 Vibrational temperatures:     73.19    88.03   171.58   215.47   250.14
          (Kelvin)            305.16   310.48   339.31   439.65   522.43
                              537.54   591.89   659.25   713.63   905.80
                              940.53  1054.61  1102.73  1152.85  1210.30
                             1285.22  1336.66  1353.74  1418.26  1452.77
                             1515.36  1535.80  1556.87  1568.82  1639.61
                             1658.97  1708.72  1748.52  1788.17  1885.67
                             1940.75  1949.48  2010.47  2045.35  2074.31
                             2088.95  2161.34  2171.59  2187.82  2190.51
                             2202.28  2523.19  2613.09  4364.07  4388.67
                             4431.63  4469.52  4486.73  4514.61  4515.55
                             4529.85  4545.19  4573.35  4664.82  5301.45

 Zero-point correction=                           0.186814 (Hartree/Particle)
 Thermal correction to Energy=                    0.197817
 Thermal correction to Enthalpy=                  0.198761
 Thermal correction to Gibbs Free Energy=         0.149966
 Sum of electronic and zero-point Energies=           -462.342087
 Sum of electronic and thermal Energies=              -462.331085
 Sum of electronic and thermal Enthalpies=            -462.330140
 Sum of electronic and thermal Free Energies=         -462.378936

                     E (Thermal)             CV                S
                      KCal/Mol        Cal/Mol-Kelvin    Cal/Mol-Kelvin
 Total                  124.132             40.082            102.698
 Electronic               0.000              0.000              0.000
 Translational            0.889              2.981             40.723
 Rotational               0.889              2.981             29.891
 Vibrational            122.354             34.121             32.084
 Vibration     1          0.595              1.977              4.783
 Vibration     2          0.597              1.973              4.419
 Vibration     3          0.609              1.933              3.112
 Vibration     4          0.618              1.903              2.675
 Vibration     5          0.627              1.875              2.393
 Vibration     6          0.643              1.822              2.026
 Vibration     7          0.645              1.817              1.994
 Vibration     8          0.655              1.786              1.834
 Vibration     9          0.696              1.663              1.386
 Vibration    10          0.737              1.548              1.109
 Vibration    11          0.745              1.526              1.065
 Vibration    12          0.775              1.446              0.922
 Vibration    13          0.816              1.343              0.771
 Vibration    14          0.852              1.259              0.668

 Optimization completed.
    -- Stationary point found.

 1\1\GINC-NODE200\Freq\RB3LYP\6-31G(d)\C8H12O2\VSC10255\08-Dec-2020\0\\
 #N Geom=AllCheck Guess=TCheck SCRF=Check GenChk RB3LYP/6-31G(d) Freq\\
 CID_139952399_JID_920_neutraal\\0,1\C,0.9236787787,-0.1682063055,0.146
 4014475\C,0.2926034354,-0.0930901645,1.5044912874\C,-0.0886095543,1.03
 53669409,2.1068774514\C,-0.6880571347,1.1063049319,3.4724950231\C,-2.0
 395644088,1.8003283059,3.6599984593\C,-1.9588683351,0.3234493711,3.845
 3810546\C,-2.6263955801,-0.6214693835,2.8739160273\C,0.2354687818,1.31
 79501039,4.6288147076\O,-0.1113618073,1.4124272559,5.7908327631\O,1.53

 Normal termination of Gaussian 16 at Tue Dec  8 13:58:11 2020.

 ----------------------------------------------------------------------
 # B3LYP/6-311++G(d,p) empiricaldispersion=gd3bj scf=xqc pop=npa geom=c
 heck
 ----------------------------------------------------------------------

 --------------------------------------
 CID_139952399_JID_920_Energie_neutraal
 --------------------------------------
 Structure from the checkpoint file:  "JID_920.chk"
 Charge =  0 Multiplicity = 1

 SCF Done:  E(RB3LYP) =  -462.669843947     A.U. after   14 cycles
 Normal termination of Gaussian 16 at Tue Dec  8 14:01:50 2020.

 ----------------------------------------------------------------------
 # B3LYP/6-311++G(d,p) empiricaldispersion=gd3bj scf=xqc pop=npa geom=c
 heck
 ----------------------------------------------------------------------

 ------------------------------------
 CID_139952399_JID_920_Energie_kation
 ------------------------------------
 Structure from the checkpoint file:  "JID_920.chk"
 Charge =  1 Multiplicity = 2

 SCF Done:  E(UB3LYP) =  -462.345928589     A.U. after   21 cycles
 Normal termination of Gaussian 16 at Tue Dec  8 14:08:22 2020.
 Gaussian 16:  ES64L-G16RevA.03 25-Dec-2016

 -----------------------------------
 CID_139952399_JID_920_Energie_anion
 -----------------------------------
 Structure from the checkpoint file:  "JID_920.chk"
 Charge = -1 Multiplicity = 2

                         Standard orientation:
 ---------------------------------------------------------------------
 Center     Atomic      Atomic             Coordinates (Angstroms)
 Number     Number       Type             X           Y           Z
 ---------------------------------------------------------------------
      1          6           0       -3.358209   -0.780595   -0.007440
      2          6           0       -1.958787   -0.327369    0.283265
      3          6           0       -0.959848   -0.321087   -0.601997
      4          6           0        0.439323    0.102193   -0.297965
      5          6           0        1.090917    1.194995   -1.149205
      6          6           0        0.762923    1.493237    0.274004
      7          6           0       -0.323570    2.479543    0.633087
      8          6           0        1.408978   -0.952112    0.129794
      9          8           0        2.580535   -0.757571    0.392680
     10          8           0        0.857613   -2.188420    0.195030
     11          1           0       -3.467397   -1.099815   -1.049172
     12          1           0       -4.085092    0.020233    0.183493
     13          1           0       -3.641423   -1.622607    0.638118
     14          1           0       -1.760830    0.011962    1.300039
     15          1           0       -1.146495   -0.676045   -1.616515
     16          1           0        2.129479    1.046837   -1.426120
     17          1           0        0.454588    1.628823   -1.916748
     18          1           0        1.615176    1.478662    0.948566
     19          1           0       -0.730698    2.285329    1.632078
     20          1           0        0.085359    3.496932    0.629936
     21          1           0       -1.152134    2.442844   -0.078823
     22          1           0        1.583924   -2.778053    0.472206
 ---------------------------------------------------------------------

 SCF Done:  E(UB3LYP) =  -462.652332498     A.U. after   32 cycles

 The electronic state is 2-A.
 Alpha  occ. eigenvalues --  -19.06396 -19.00745 -10.20185 -10.09979 -10.08867
 Alpha  occ. eigenvalues --  -10.08013 -10.06806 -10.06499 -10.06102 -10.05941
 Alpha  occ. eigenvalues --   -1.00498  -0.91416  -0.78147  -0.68547  -0.62844
 Alpha  occ. eigenvalues --   -0.59529  -0.56043  -0.49030  -0.47391  -0.43823
 Alpha  occ. eigenvalues --   -0.41826  -0.38681  -0.36442  -0.34933  -0.33407
 Alpha  occ. eigenvalues --   -0.32495  -0.31200  -0.30585  -0.30348  -0.29163
 Alpha  occ. eigenvalues --   -0.26753  -0.26060  -0.24698  -0.22067  -0.20727
 Alpha  occ. eigenvalues --   -0.18938  -0.18465  -0.14257   0.04824
 Alpha virt. eigenvalues --    0.06883   0.07444   0.08293   0.09498   0.09780
 Alpha virt. eigenvalues --    0.10110   0.10353   0.10667   0.10956   0.12142
 Alpha virt. eigenvalues --    0.13138   0.13433   0.13722   0.14848   0.16473

  Beta  occ. eigenvalues --  -19.06353 -19.00730 -10.20181 -10.09973 -10.08861
  Beta  occ. eigenvalues --  -10.08001 -10.06790 -10.06491 -10.06065 -10.05898
  Beta  occ. eigenvalues --   -1.00440  -0.91368  -0.78123  -0.68512  -0.62796
  Beta  occ. eigenvalues --   -0.59473  -0.55972  -0.48976  -0.47320  -0.43763
  Beta  occ. eigenvalues --   -0.41783  -0.38651  -0.36403  -0.34892  -0.33370
  Beta  occ. eigenvalues --   -0.32449  -0.31162  -0.30533  -0.30301  -0.29123
  Beta  occ. eigenvalues --   -0.26713  -0.26018  -0.24648  -0.22029  -0.20702
  Beta  occ. eigenvalues --   -0.18893  -0.18447  -0.14223
  Beta virt. eigenvalues --    0.07219   0.08133   0.08358   0.08774   0.09622
  Beta virt. eigenvalues --    0.10216   0.10538   0.10823   0.11015   0.11549
  Beta virt. eigenvalues --    0.12443   0.13566   0.13939   0.14086   0.15091

 Mulliken charges and spin densities:
               1          2
     1  C    2.783376  -3.473231
     2  C   -1.878903   2.072328
     3  C    1.521415  -2.081112
     4  C    0.324421   0.015515
     5  C   -0.423747  -0.099516
     6  C   -2.025156   2.174791
     7  C    1.632427  -2.360040
     8  C    0.138618  -0.045939
     9  O   -0.307703   0.027882
    10  O   -0.164257   0.024352
    11  H   -0.348612   0.486760
    12  H   -0.413645   0.563945
    13  H   -0.246174   0.388473
    14  H   -0.421897   0.587223
    15  H   -0.110296   0.294713
    16  H    0.137894   0.054912
    17  H   -0.212725   0.369995
    18  H   -0.001738   0.263159
    19  H   -0.263858   0.409813
    20  H   -0.285063   0.418294
    21  H   -0.067520   0.233371
    22  H   -0.366858   0.674312
 Sum of Mulliken charges =  -1.00000   1.00000

 Dipole moment (field-independent basis, Debye):
    X=              3.5283    Y=              0.7630    Z=             -2.1134  Tot=              4.1830
 Quadrupole moment (field-independent basis, Debye-Ang):
   XX=           -121.4728   YY=           -111.1651   ZZ=            -88.1074
   XY=              4.5183   XZ=             -0.8609   YZ=             -0.7394

 Summary of Natural Population Analysis:

                                       Natural Population
                Natural  -----------------------------------------------
    Atom  No    Charge         Core      Valence    Rydberg      Total
 -----------------------------------------------------------------------
      C    1   -0.29744      0.99965     2.29272    0.00508     3.29744
      C    2   -0.06731      0.99951     2.05797    0.00982     3.06731
      C    3   -0.09983      0.99949     2.08864    0.01170     3.09983
      C    4   -0.10446      0.99947     2.08955    0.01543     3.10446
      C    5   -0.17668      0.99958     2.16882    0.00828     3.17668
      C    6   -0.09119      0.99957     2.08105    0.01057     3.09119
      C    7   -0.28880      0.99965     2.28295    0.00620     3.28880
      C    8    0.41217      0.99962     1.56254    0.02567     2.58783
      O    9   -0.32174      0.99987     3.31595    0.00592     4.32174
      O   10   -0.33648      0.99988     3.32978    0.00682     4.33648
      H   11    0.09931      0.00000     0.39920    0.00149     0.40069
      H   12    0.10520      0.00000     0.39240    0.00240     0.39480
      H   13    0.10384      0.00000     0.39461    0.00156     0.39616
      H   14    0.09266      0.00000     0.40563    0.00170     0.40734
      H   15    0.09433      0.00000     0.40445    0.00122     0.40567
      H   16    0.10989      0.00000     0.38898    0.00113     0.39011
      H   17    0.10344      0.00000     0.39542    0.00115     0.39656
      H   18    0.11171      0.00000     0.38700    0.00128     0.38829
      H   19    0.10261      0.00000     0.39579    0.00160     0.39739
      H   20    0.10160      0.00000     0.39721    0.00120     0.39840
      H   21    0.10560      0.00000     0.39268    0.00172     0.39440
      H   22    0.24158      0.00000     0.24695    0.01147     0.25842
 =======================================================================
   * Total *    0.00000      9.99630    27.87031    0.13339    38.00000

 Normal termination of Gaussian 16 at Tue Dec  8 14:16:40 2020.
