 Gaussian 16, Revision A.03,

 -----------------------------------------------------------
 # opt freq B3LYP/6-31G(d) empiricaldispersion=gd3bj scf=xqc
 -----------------------------------------------------------

 ------------------------------
 CID_81162300_JID_9217_neutraal
 ------------------------------
 Symbolic Z-matrix:
 Charge =  0 Multiplicity = 1

 SCF Done:  E(RB3LYP) =  -896.817137016     A.U. after   14 cycles
 SCF Done:  E(RB3LYP) =  -896.809283053     A.U. after   13 cycles
 SCF Done:  E(RB3LYP) =  -896.827539265     A.U. after   12 cycles
 SCF Done:  E(RB3LYP) =  -896.828963370     A.U. after   13 cycles
 SCF Done:  E(RB3LYP) =  -896.829398825     A.U. after   13 cycles
 SCF Done:  E(RB3LYP) =  -896.830838207     A.U. after   12 cycles
 SCF Done:  E(RB3LYP) =  -896.830761829     A.U. after   12 cycles
 SCF Done:  E(RB3LYP) =  -896.831222792     A.U. after   11 cycles
 SCF Done:  E(RB3LYP) =  -896.831310784     A.U. after   11 cycles
 SCF Done:  E(RB3LYP) =  -896.831327813     A.U. after   11 cycles
 SCF Done:  E(RB3LYP) =  -896.831351271     A.U. after    7 cycles
 SCF Done:  E(RB3LYP) =  -896.831351647     A.U. after    7 cycles
 SCF Done:  E(RB3LYP) =  -896.831351902     A.U. after    7 cycles
 SCF Done:  E(RB3LYP) =  -896.831352018     A.U. after    7 cycles
 SCF Done:  E(RB3LYP) =  -896.831352039     A.U. after    6 cycles
 Optimization completed.
    -- Stationary point found.
 Normal termination of Gaussian 16 at Thu Dec 17 20:18:14 2020.

 --------------------------------------------------------------------
 #N Geom=AllCheck Guess=TCheck SCRF=Check GenChk RB3LYP/6-31G(d) Freq
 --------------------------------------------------------------------

 Structure from the checkpoint file:  "JID_9217.chk"
 ------------------------------
 CID_81162300_JID_9217_neutraal
 ------------------------------
 Charge =  0 Multiplicity = 1

 SCF Done:  E(RB3LYP) =  -896.831352039     A.U. after    1 cycles

  Exact polarizability: 212.505  -9.836 161.632 -17.774  -5.216 113.634
 Approx polarizability: 276.325 -13.296 249.859 -38.933  -5.185 181.389

                      1                      2                      3
                      A                      A                      A
 Frequencies --     24.7092                33.4306                64.5739
 Red. masses --      5.7054                 4.6021                 4.3049
 Frc consts  --      0.0021                 0.0030                 0.0106
 IR Inten    --      1.6405                 0.1558                 0.9996

                      4                      5                      6
                      A                      A                      A
 Frequencies --     93.4459               101.7744               107.8048
 Red. masses --      3.5211                 5.7980                 2.1715
 Frc consts  --      0.0181                 0.0354                 0.0149
 IR Inten    --      1.1805                 2.9402                 0.2593

                      7                      8                      9
                      A                      A                      A
 Frequencies --    112.3497               122.3938               149.9560
 Red. masses --      2.0929                 1.8813                 3.3134
 Frc consts  --      0.0156                 0.0166                 0.0439
 IR Inten    --      0.4608                 0.4611                 0.2584

                     10                     11                     12
                      A                      A                      A
 Frequencies --    159.8351               179.3718               196.7554
 Red. masses --      1.2391                 3.1632                 3.5180
 Frc consts  --      0.0187                 0.0600                 0.0802
 IR Inten    --      0.1238                 0.5726                 4.8826

                     13                     14                     15
                      A                      A                      A
 Frequencies --    204.5863               226.2039               240.7375
 Red. masses --      3.1698                 3.0294                 5.3824
 Frc consts  --      0.0782                 0.0913                 0.1838
 IR Inten    --      7.2826                 1.8578                 4.3686

                     16                     17                     18
                      A                      A                      A
 Frequencies --    247.6466               279.8834               320.2584
 Red. masses --      3.3467                 4.1005                 2.7233
 Frc consts  --      0.1209                 0.1893                 0.1646
 IR Inten    --      3.5781                 0.4607                 3.6054

                     19                     20                     21
                      A                      A                      A
 Frequencies --    334.4525               365.8979               394.7072
 Red. masses --      2.6732                 3.5628                 2.5151
 Frc consts  --      0.1762                 0.2810                 0.2309
 IR Inten    --      0.3741                 2.0184                18.4819

                     22                     23                     24
                      A                      A                      A
 Frequencies --    438.5163               456.9031               488.2439
 Red. masses --      1.2165                 3.2147                 2.1338
 Frc consts  --      0.1378                 0.3954                 0.2997
 IR Inten    --     93.9244                 4.4301                 6.5967

                     25                     26                     27
                      A                      A                      A
 Frequencies --    524.7503               544.3895               599.4607
 Red. masses --      2.5544                 4.2354                 4.6035
 Frc consts  --      0.4144                 0.7395                 0.9747
 IR Inten    --     17.5102                 9.9625                 3.3444

                     28                     29                     30
                      A                      A                      A
 Frequencies --    612.7527               616.8280               642.4289
 Red. masses --      3.0465                 2.9967                 3.8593
 Frc consts  --      0.6739                 0.6718                 0.9384
 IR Inten    --     41.3295                 1.6292                 6.2017

                     31                     32                     33
                      A                      A                      A
 Frequencies --    661.3357               673.8559               690.4249
 Red. masses --      3.2071                 1.9126                 1.7855
 Frc consts  --      0.8264                 0.5117                 0.5015
 IR Inten    --     10.9806                16.8057               112.9721

                     34                     35                     36
                      A                      A                      A
 Frequencies --    702.3428               761.9225               770.7663
 Red. masses --     10.9724                 1.9983                 1.9022
 Frc consts  --      3.1890                 0.6835                 0.6658
 IR Inten    --      0.6791                 1.6296                 0.1970

                     37                     38                     39
                      A                      A                      A
 Frequencies --    809.9021               816.4089               851.5937
 Red. masses --      1.3383                 2.7421                 3.5605
 Frc consts  --      0.5172                 1.0768                 1.5213
 IR Inten    --      0.7311                47.4514                 2.4895

                     40                     41                     42
                      A                      A                      A
 Frequencies --    878.2334               897.8117               934.6601
 Red. masses --      2.3330                 2.2298                 3.0012
 Frc consts  --      1.0602                 1.0590                 1.5447
 IR Inten    --      4.6829                19.7981                 2.0951

                     43                     44                     45
                      A                      A                      A
 Frequencies --    946.2964               957.0072               976.0331
 Red. masses --      2.3321                 2.3634                 2.1610
 Frc consts  --      1.2304                 1.2753                 1.2129
 IR Inten    --      3.7379                 1.3913                10.3527

                     46                     47                     48
                      A                      A                      A
 Frequencies --    989.5840              1003.8012              1028.7763
 Red. masses --      2.6094                 8.5854                 2.9349
 Frc consts  --      1.5056                 5.0969                 1.8302
 IR Inten    --      1.0932                 6.6851                15.5272

                     49                     50                     51
                      A                      A                      A
 Frequencies --   1055.1947              1078.4788              1083.7223
 Red. masses --      1.9798                 1.3860                 1.6135
 Frc consts  --      1.2988                 0.9498                 1.1165
 IR Inten    --      6.2203                 3.3702                 6.5471

                     52                     53                     54
                      A                      A                      A
 Frequencies --   1091.9404              1109.9908              1130.6669
 Red. masses --      3.5239                 2.8942                 2.0943
 Frc consts  --      2.4756                 2.1010                 1.5775
 IR Inten    --     38.2681                 7.2351                12.7206

                     55                     56                     57
                      A                      A                      A
 Frequencies --   1156.1320              1184.4572              1204.9217
 Red. masses --      2.4437                 1.2638                 2.2476
 Frc consts  --      1.9245                 1.0446                 1.9226
 IR Inten    --      8.5267                 0.5568               219.6331

                     58                     59                     60
                      A                      A                      A
 Frequencies --   1213.9111              1215.6192              1223.2351
 Red. masses --      1.5461                 1.6251                 1.4364
 Frc consts  --      1.3423                 1.4149                 1.2663
 IR Inten    --     27.9315                 0.2018                 4.5645

                     61                     62                     63
                      A                      A                      A
 Frequencies --   1231.2255              1262.6099              1274.4030
 Red. masses --      1.9857                 1.3438                 1.2730
 Frc consts  --      1.7736                 1.2622                 1.2181
 IR Inten    --    227.7614                47.3904                 7.2650

                     64                     65                     66
                      A                      A                      A
 Frequencies --   1281.2564              1293.0789              1319.3400
 Red. masses --      1.3881                 1.4045                 2.2547
 Frc consts  --      1.3426                 1.3837                 2.3124
 IR Inten    --     40.2807                 3.1296                95.4285

                     67                     68                     69
                      A                      A                      A
 Frequencies --   1336.5766              1344.1657              1370.0870
 Red. masses --      2.3503                 1.6848                 1.9260
 Frc consts  --      2.4738                 1.7935                 2.1301
 IR Inten    --     83.3180                 7.8097                 9.1795

                     70                     71                     72
                      A                      A                      A
 Frequencies --   1392.1692              1402.1909              1406.9513
 Red. masses --      2.4047                 1.4547                 1.6884
 Frc consts  --      2.7460                 1.6852                 1.9692
 IR Inten    --     30.5692                16.0623                 9.0253

                     73                     74                     75
                      A                      A                      A
 Frequencies --   1430.1266              1450.6844              1484.0445
 Red. masses --      2.0181                 2.2052                 1.9286
 Frc consts  --      2.4319                 2.7343                 2.5026
 IR Inten    --     70.2567                45.0903                30.7561

                     76                     77                     78
                      A                      A                      A
 Frequencies --   1487.8031              1495.1207              1507.4768
 Red. masses --      1.1280                 1.3402                 1.1261
 Frc consts  --      1.4711                 1.7651                 1.5077
 IR Inten    --     13.0191                24.3480                 8.4939

                     79                     80                     81
                      A                      A                      A
 Frequencies --   1508.7527              1509.9306              1513.0680
 Red. masses --      1.0672                 1.0561                 1.1146
 Frc consts  --      1.4313                 1.4186                 1.5034
 IR Inten    --      8.6489                 0.8387                11.6714

                     82                     83                     84
                      A                      A                      A
 Frequencies --   1517.4984              1526.2969              1533.9973
 Red. masses --      1.0873                 1.0576                 1.4160
 Frc consts  --      1.4752                 1.4516                 1.9632
 IR Inten    --      6.4302                29.8117                92.3314

                     85                     86                     87
                      A                      A                      A
 Frequencies --   1540.7780              1561.8742              1633.4531
 Red. masses --      1.1323                 3.1375                 4.7260
 Frc consts  --      1.5837                 4.5095                 7.4294
 IR Inten    --      3.5817               140.7792                97.9615

                     88                     89                     90
                      A                      A                      A
 Frequencies --   1654.3380              1838.8345              3046.7469
 Red. masses --      5.5911                 9.5525                 1.0697
 Frc consts  --      9.0156                19.0305                 5.8503
 IR Inten    --   1010.7995               289.4280                13.5650

                     91                     92                     93
                      A                      A                      A
 Frequencies --   3051.4945              3055.8960              3062.4947
 Red. masses --      1.0653                 1.0665                 1.0368
 Frc consts  --      5.8443                 5.8678                 5.7294
 IR Inten    --     40.0929                36.5283                 8.6845

                     94                     95                     96
                      A                      A                      A
 Frequencies --   3069.7583              3073.3633              3076.6726
 Red. masses --      1.0291                 1.0644                 1.0629
 Frc consts  --      5.7138                 5.9237                 5.9282
 IR Inten    --     52.4921                33.3747                45.9280

                     97                     98                     99
                      A                      A                      A
 Frequencies --   3102.2066              3114.1593              3123.3066
 Red. masses --      1.1052                 1.0909                 1.1006
 Frc consts  --      6.2665                 6.2335                 6.3260
 IR Inten    --     19.0614                11.7315                 7.7347

                    100                    101                    102
                      A                      A                      A
 Frequencies --   3123.9768              3142.1017              3142.8000
 Red. masses --      1.1062                 1.1033                 1.1072
 Frc consts  --      6.3604                 6.4179                 6.4433
 IR Inten    --     36.9800                35.4828                25.4274

                    103                    104                    105
                      A                      A                      A
 Frequencies --   3167.3041              3169.2737              3169.6997
 Red. masses --      1.1023                 1.0924                 1.1071
 Frc consts  --      6.5153                 6.4649                 6.5537
 IR Inten    --     13.0549                 0.8174                29.3219

                    106                    107                    108
                      A                      A                      A
 Frequencies --   3222.7682              3625.9216              3686.5905
 Red. masses --      1.0924                 1.0762                 1.0639
 Frc consts  --      6.6847                 8.3368                 8.5192
 IR Inten    --      4.8653                21.8640                44.2939

 - Thermochemistry -
 -------------------
 Temperature   298.150 Kelvin.  Pressure   1.00000 Atm.
 Atom     1 has atomic number  6 and mass  12.00000

 Molecular mass:   265.14264 amu.
 Principal axes and moments of inertia in atomic units:
                           1         2         3
     Eigenvalues --  2587.363037842.577289342.09142
           X            0.99983  -0.01838  -0.00218
           Y            0.01833   0.99960  -0.02135
           Z            0.00258   0.02130   0.99977
 This molecule is an asymmetric top.
 Rotational symmetry number  1.
 Warning -- assumption of classical behavior for rotation
           may cause significant error
 Rotational temperatures (Kelvin)      0.03348     0.01104     0.00927
 Rotational constants (GHZ):           0.69752     0.23012     0.19318
 Zero-point vibrational energy     839292.5 (Joules/Mol)
                                  200.59571 (Kcal/Mol)
 Warning -- explicit consideration of  29 degrees of freedom as
           vibrations may cause significant error
 Vibrational temperatures:     35.55    48.10    92.91   134.45   146.43
          (Kelvin)            155.11   161.65   176.10   215.75   229.97
                              258.08   283.09   294.35   325.46   346.37
                              356.31   402.69   460.78   481.20   526.45
                              567.90   630.93   657.38   702.47   755.00
                              783.26   862.49   881.61   887.48   924.31
                              951.51   969.53   993.37  1010.51  1096.24
                             1108.96  1165.27  1174.63  1225.25  1263.58
                             1291.75  1344.77  1361.51  1376.92  1404.29
                             1423.79  1444.25  1480.18  1518.19  1551.69
                             1559.23  1571.06  1597.03  1626.78  1663.42
                             1704.17  1733.61  1746.55  1749.00  1759.96
                             1771.46  1816.61  1833.58  1843.44  1860.45
                             1898.24  1923.04  1933.95  1971.25  2003.02
                             2017.44  2024.29  2057.63  2087.21  2135.21
                             2140.62  2151.15  2168.92  2170.76  2172.45
                             2176.97  2183.34  2196.00  2207.08  2216.84
                             2247.19  2350.17  2380.22  2645.67  4383.59
                             4390.42  4396.75  4406.25  4416.70  4421.88
                             4426.65  4463.38  4480.58  4493.74  4494.71
                             4520.78  4521.79  4557.04  4559.88  4560.49
                             4636.84  5216.89  5304.18

 Zero-point correction=                           0.319670 (Hartree/Particle)
 Thermal correction to Energy=                    0.338531
 Thermal correction to Enthalpy=                  0.339476
 Thermal correction to Gibbs Free Energy=         0.271995
 Sum of electronic and zero-point Energies=           -896.511682
 Sum of electronic and thermal Energies=              -896.492821
 Sum of electronic and thermal Enthalpies=            -896.491876
 Sum of electronic and thermal Free Energies=         -896.559357

                     E (Thermal)             CV                S
                      KCal/Mol        Cal/Mol-Kelvin    Cal/Mol-Kelvin
 Total                  212.432             70.944            142.024
 Electronic               0.000              0.000              0.000
 Translational            0.889              2.981             42.625
 Rotational               0.889              2.981             33.605
 Vibrational            210.654             64.983             65.795
 Vibration     1          0.593              1.985              6.214
 Vibration     2          0.594              1.983              5.615
 Vibration     3          0.597              1.971              4.312
 Vibration     4          0.602              1.954              3.587
 Vibration     5          0.604              1.948              3.420
 Vibration     6          0.606              1.943              3.308
 Vibration     7          0.607              1.939              3.228
 Vibration     8          0.610              1.930              3.062
 Vibration     9          0.618              1.903              2.673
 Vibration    10          0.622              1.892              2.552
 Vibration    11          0.629              1.868              2.335
 Vibration    12          0.636              1.844              2.163
 Vibration    13          0.640              1.833              2.091
 Vibration    14          0.650              1.801              1.909
 Vibration    15          0.658              1.778              1.797
 Vibration    16          0.661              1.767              1.747
 Vibration    17          0.680              1.711              1.534
 Vibration    18          0.706              1.635              1.309
 Vibration    19          0.716              1.607              1.238
 Vibration    20          0.739              1.542              1.097
 Vibration    21          0.762              1.481              0.982
 Vibration    22          0.799              1.386              0.831
 Vibration    23          0.815              1.346              0.775
 Vibration    24          0.844              1.276              0.688
 Vibration    25          0.880              1.195              0.599
 Vibration    26          0.900              1.152              0.556
 Vibration    27          0.958              1.033              0.451
 Vibration    28          0.972              1.005              0.428
 Vibration    29          0.977              0.996              0.422

                           ! Non-Optimized Parameters !
 Normal termination of Gaussian 16 at Thu Dec 17 20:37:34 2020.

 ----------------------------------------------------------------------
 # B3LYP/6-311++G(d,p) empiricaldispersion=gd3bj scf=xqc pop=npa geom=c
 heck
 ----------------------------------------------------------------------

 --------------------------------------
 CID_81162300_JID_9217_Energie_neutraal
 --------------------------------------
 Structure from the checkpoint file:  "JID_9217.chk"
 Charge =  0 Multiplicity = 1

 SCF Done:  E(RB3LYP) =  -897.089543339     A.U. after   15 cycles
 Normal termination of Gaussian 16 at Thu Dec 17 20:46:18 2020.

 ----------------------------------------------------------------------
 # B3LYP/6-311++G(d,p) empiricaldispersion=gd3bj scf=xqc pop=npa geom=c
 heck
 ----------------------------------------------------------------------

 ------------------------------------
 CID_81162300_JID_9217_Energie_kation
 ------------------------------------
 Structure from the checkpoint file:  "JID_9217.chk"
 Charge =  1 Multiplicity = 2

 SCF Done:  E(UB3LYP) =  -896.801762029     A.U. after   24 cycles
 Normal termination of Gaussian 16 at Thu Dec 17 21:06:03 2020.
 Gaussian 16:  ES64L-G16RevA.03 25-Dec-2016

 ----------------------------------------------------------------------
 # B3LYP/6-311++G(d,p) empiricaldispersion=gd3bj scf=xqc pop=npa geom=c
 heck
 ----------------------------------------------------------------------

 -----------------------------------
 CID_81162300_JID_9217_Energie_anion
 -----------------------------------
 Structure from the checkpoint file:  "JID_9217.chk"
 Charge = -1 Multiplicity = 2

                         Standard orientation:
 ---------------------------------------------------------------------
 Center     Atomic      Atomic             Coordinates (Angstroms)
 Number     Number       Type             X           Y           Z
 ---------------------------------------------------------------------
      1          6           0       -1.958087    2.579998   -0.635979
      2          6           0       -1.948555    1.083549   -0.496121
      3          7           0       -0.802032    0.464821   -0.789512
      4          6           0       -0.771811   -0.875912   -0.637342
      5          6           0       -1.895322   -1.590565   -0.195063
      6          6           0       -3.028066   -0.830406    0.074447
      7          7           0       -3.076732    0.499486   -0.068569
      8          8           0       -4.126424   -1.481966    0.502734
      9          6           0       -5.284231   -0.688220    0.783956
     10          7           0        0.396995   -1.514838   -0.945224
     11          6           0        1.642290   -0.828433   -1.251086
     12          6           0        2.533456   -0.587042   -0.026112
     13          6           0        3.090961   -1.883084    0.648798
     14          6           0        4.503455   -1.244663    0.669262
     15          6           0        4.007509   -0.179989   -0.341638
     16          6           0        1.871160    0.311436    1.024996
     17          6           0        1.486785    1.723541    0.632032
     18          8           0        0.768786    2.438611    1.296769
     19          8           0        2.075491    2.156954   -0.509451
     20          1           0       -1.310938    3.018232    0.132281
     21          1           0       -1.555347    2.871501   -1.611663
     22          1           0       -2.972088    2.967071   -0.522525
     23          1           0       -1.898631   -2.667079   -0.069452
     24          1           0       -5.077356    0.042441    1.570636
     25          1           0       -5.620330   -0.154473   -0.109232
     26          1           0       -6.043326   -1.399900    1.112511
     27          1           0        0.454393   -2.491433   -0.695179
     28          1           0        2.195731   -1.443558   -1.970929
     29          1           0        1.392598    0.115446   -1.735071
     30          1           0        2.651246   -2.170871    1.609708
     31          1           0        3.040448   -2.745230   -0.026719
     32          1           0        5.337834   -1.879079    0.357140
     33          1           0        4.750463   -0.812398    1.643870
     34          1           0        4.278305   -0.428604   -1.373552
     35          1           0        4.277640    0.862195   -0.159134
     36          1           0        0.958007   -0.153518    1.408512
     37          1           0        2.538158    0.412760    1.892413
     38          1           0        1.735484    3.060168   -0.651808
 ---------------------------------------------------------------------

 SCF Done:  E(UB3LYP) =  -897.078477569     A.U. after   33 cycles
 SCF Done:  E(UB3LYP) =  -897.078477569     a.u. after    1 cycles

 The electronic state is 2-A.
 Alpha  occ. eigenvalues --  -19.07774 -19.07426 -19.01937 -14.23741 -14.20753
 Alpha  occ. eigenvalues --  -14.20316 -10.21457 -10.17857 -10.16074 -10.15257
 Alpha  occ. eigenvalues --  -10.13870 -10.10107 -10.09209 -10.09017 -10.07593
 Alpha  occ. eigenvalues --  -10.07187 -10.07036 -10.06923 -10.06895  -1.01775
 Alpha  occ. eigenvalues --   -0.99774  -0.92681  -0.89546  -0.84599  -0.77625
 Alpha  occ. eigenvalues --   -0.76021  -0.70429  -0.66815  -0.64385  -0.63150
 Alpha  occ. eigenvalues --   -0.60272  -0.56884  -0.54256  -0.53475  -0.52087
 Alpha  occ. eigenvalues --   -0.50926  -0.45994  -0.44735  -0.43511  -0.41398
 Alpha  occ. eigenvalues --   -0.40175  -0.40059  -0.39201  -0.38872  -0.37372
 Alpha  occ. eigenvalues --   -0.36488  -0.36399  -0.36048  -0.34752  -0.33443
 Alpha  occ. eigenvalues --   -0.32305  -0.31709  -0.31004  -0.30546  -0.30141
 Alpha  occ. eigenvalues --   -0.29550  -0.28859  -0.28364  -0.26981  -0.26349
 Alpha  occ. eigenvalues --   -0.25244  -0.23384  -0.22874  -0.22457  -0.21179
 Alpha  occ. eigenvalues --   -0.20925  -0.20603  -0.18498  -0.16691  -0.16568
 Alpha  occ. eigenvalues --   -0.12886   0.04114
 Alpha virt. eigenvalues --    0.05882   0.06064   0.06747   0.07298   0.07654
 Alpha virt. eigenvalues --    0.08319   0.08709   0.09184   0.09523   0.09613
 Alpha virt. eigenvalues --    0.09971   0.10076   0.10586   0.11118   0.11209

  Beta  occ. eigenvalues --  -19.07748 -19.07424 -19.01932 -14.23714 -14.20748
  Beta  occ. eigenvalues --  -14.20308 -10.21454 -10.17858 -10.16073 -10.15253
  Beta  occ. eigenvalues --  -10.13858 -10.10091 -10.09211 -10.08998 -10.07578
  Beta  occ. eigenvalues --  -10.07168 -10.07023 -10.06912 -10.06855  -1.01739
  Beta  occ. eigenvalues --   -0.99769  -0.92656  -0.89530  -0.84567  -0.77608
  Beta  occ. eigenvalues --   -0.75999  -0.70411  -0.66782  -0.64367  -0.63123
  Beta  occ. eigenvalues --   -0.60241  -0.56821  -0.54217  -0.53441  -0.52049
  Beta  occ. eigenvalues --   -0.50871  -0.45969  -0.44682  -0.43477  -0.41365
  Beta  occ. eigenvalues --   -0.40149  -0.40028  -0.39189  -0.38843  -0.37328
  Beta  occ. eigenvalues --   -0.36459  -0.36365  -0.36012  -0.34735  -0.33418
  Beta  occ. eigenvalues --   -0.32284  -0.31688  -0.30984  -0.30525  -0.30124
  Beta  occ. eigenvalues --   -0.29526  -0.28826  -0.28340  -0.26967  -0.26326
  Beta  occ. eigenvalues --   -0.25217  -0.23360  -0.22854  -0.22433  -0.21148
  Beta  occ. eigenvalues --   -0.20900  -0.20588  -0.18475  -0.16680  -0.16554
  Beta  occ. eigenvalues --   -0.12861
  Beta virt. eigenvalues --    0.05892   0.06497   0.06788   0.07261   0.07871
  Beta virt. eigenvalues --    0.08324   0.08428   0.08736   0.09470   0.09563
  Beta virt. eigenvalues --    0.09836   0.10123   0.10320   0.10891   0.11225

 Mulliken charges and spin densities:
               1          2
     1  C    0.575554  -0.943353
     2  C   -0.762749   0.420489
     3  N   -0.125200   0.055937
     4  C   -0.033025   0.058604
     5  C    0.162162  -0.361596
     6  C    0.377618  -0.442711
     7  N   -0.115761   0.046138
     8  O   -0.173704   0.019586
     9  C    0.052345  -0.366361
    10  N   -0.117243   0.176114
    11  C    0.564191  -1.422814
    12  C   -1.194942   2.155414
    13  C    1.250742  -1.519229
    14  C    0.151508  -0.514372
    15  C    0.132282  -0.478246
    16  C    0.274112  -0.679740
    17  C   -0.675158   0.150428
    18  O   -0.212351   0.018639
    19  O   -0.069750  -0.017226
    20  H    0.131398   0.075358
    21  H    0.008559   0.147033
    22  H    0.097155   0.040318
    23  H   -0.514895   0.693564
    24  H    0.089088   0.088184
    25  H    0.062726   0.112098
    26  H    0.015031   0.132212
    27  H   -0.160300   0.461571
    28  H   -0.518537   0.706906
    29  H    0.490709  -0.226462
    30  H   -0.165453   0.343437
    31  H   -0.557067   0.693351
    32  H   -0.186156   0.346398
    33  H    0.027794   0.084580
    34  H   -0.124087   0.266173
    35  H    0.096486   0.048308
    36  H    0.188515   0.055294
    37  H    0.013398   0.211705
    38  H   -0.054993   0.364273
 Sum of Mulliken charges =  -1.00000   1.00000

 Dipole moment (field-independent basis, Debye):
    X=             -3.9198    Y=              4.4545    Z=              0.4836  Tot=              5.9533
 Quadrupole moment (field-independent basis, Debye-Ang):
   XX=           -179.6115   YY=           -176.3517   ZZ=           -145.9275
   XY=             10.3606   XZ=              3.7949   YZ=             -4.5821

 Summary of Natural Population Analysis:

                                       Natural Population
                Natural  -----------------------------------------------
    Atom  No    Charge         Core      Valence    Rydberg      Total
 -----------------------------------------------------------------------
      C    1   -0.30674      0.99962     2.30184    0.00528     3.30674
      C    2    0.24049      0.99964     1.74361    0.01626     2.75951
      N    3   -0.29494      0.99963     2.78521    0.01009     3.79494
      C    4    0.22114      0.99953     1.76450    0.01482     2.77886
      C    5   -0.18550      0.99947     2.17665    0.00937     3.18550
      C    6    0.28547      0.99946     1.69903    0.01604     2.71453
      N    7   -0.30549      0.99963     2.79636    0.00950     3.80549
      O    8   -0.27099      0.99985     3.26238    0.00876     4.27099
      C    9   -0.10143      0.99959     2.09380    0.00803     3.10143
      N   10   -0.30141      0.99966     2.79029    0.01146     3.80141
      C   11   -0.08941      0.99953     2.07702    0.01285     3.08941
      C   12   -0.04432      0.99956     2.02905    0.01571     3.04432
      C   13   -0.18565      0.99960     2.17612    0.00992     3.18565
      C   14   -0.19194      0.99965     2.18380    0.00849     3.19194
      C   15   -0.18216      0.99959     2.17529    0.00728     3.18216
      C   16   -0.24198      0.99951     2.23164    0.01083     3.24198
      C   17    0.41924      0.99971     1.55445    0.02661     2.58076
      O   18   -0.31398      0.99986     3.30788    0.00624     4.31398
      O   19   -0.34523      0.99987     3.33871    0.00665     4.34523
      H   20    0.12021      0.00000     0.37851    0.00128     0.37979
      H   21    0.10542      0.00000     0.39338    0.00121     0.39458
      H   22    0.10347      0.00000     0.39560    0.00093     0.39653
      H   23    0.11316      0.00000     0.38506    0.00178     0.38684
      H   24    0.09073      0.00000     0.40785    0.00142     0.40927
      H   25    0.08974      0.00000     0.40879    0.00147     0.41026
      H   26    0.08775      0.00000     0.41120    0.00105     0.41225
      H   27    0.19623      0.00000     0.29797    0.00580     0.30377
      H   28    0.09967      0.00000     0.39858    0.00175     0.40033
      H   29    0.11592      0.00000     0.38163    0.00246     0.38408
      H   30    0.09878      0.00000     0.39977    0.00145     0.40122
      H   31    0.10312      0.00000     0.39339    0.00349     0.39688
      H   32    0.09805      0.00000     0.40086    0.00109     0.40195
      H   33    0.09358      0.00000     0.40520    0.00122     0.40642
      H   34    0.09978      0.00000     0.39893    0.00129     0.40022
      H   35    0.10103      0.00000     0.39761    0.00136     0.39897
      H   36    0.12026      0.00000     0.37847    0.00127     0.37974
      H   37    0.11636      0.00000     0.38244    0.00120     0.38364
      H   38    0.24157      0.00000     0.25414    0.00429     0.25843
 =======================================================================
   * Total *   -0.00000     18.99299    51.75700    0.25001    71.00000

 Normal termination of Gaussian 16 at Thu Dec 17 21:32:38 2020.
