 Gaussian 16, Revision A.03,

 -----------------------------------------------------------
 # opt freq B3LYP/6-31G(d) empiricaldispersion=gd3bj scf=xqc
 -----------------------------------------------------------

 -------------------------------
 CID_116425123_JID_5905_neutraal
 -------------------------------
 Symbolic Z-matrix:
 Charge =  0 Multiplicity = 1

 SCF Done:  E(RB3LYP) =  -748.198904601     A.U. after   14 cycles
 SCF Done:  E(RB3LYP) =  -748.204203697     A.U. after   12 cycles
 SCF Done:  E(RB3LYP) =  -748.205022164     A.U. after   11 cycles
 SCF Done:  E(RB3LYP) =  -748.205353362     A.U. after   12 cycles
 SCF Done:  E(RB3LYP) =  -748.205588024     A.U. after   12 cycles
 SCF Done:  E(RB3LYP) =  -748.206120441     A.U. after   12 cycles
 SCF Done:  E(RB3LYP) =  -748.206212562     A.U. after   10 cycles
 SCF Done:  E(RB3LYP) =  -748.206255863     A.U. after   11 cycles
 SCF Done:  E(RB3LYP) =  -748.206322750     A.U. after   11 cycles
 SCF Done:  E(RB3LYP) =  -748.206456599     A.U. after   12 cycles
 SCF Done:  E(RB3LYP) =  -748.206593951     A.U. after    9 cycles
 SCF Done:  E(RB3LYP) =  -748.206594369     A.U. after    9 cycles
 SCF Done:  E(RB3LYP) =  -748.206594896     A.U. after    8 cycles
 SCF Done:  E(RB3LYP) =  -748.206594923     A.U. after    7 cycles
 SCF Done:  E(RB3LYP) =  -748.206594954     A.U. after    7 cycles
 Optimization completed.
    -- Stationary point found.
 Normal termination of Gaussian 16 at Thu Dec 10 17:38:28 2020.

 --------------------------------------------------------------------
 #N Geom=AllCheck Guess=TCheck SCRF=Check GenChk RB3LYP/6-31G(d) Freq
 --------------------------------------------------------------------

 Structure from the checkpoint file:  "JID_5905.chk"
 -------------------------------
 CID_116425123_JID_5905_neutraal
 -------------------------------
 Charge =  0 Multiplicity = 1

 SCF Done:  E(RB3LYP) =  -748.206594954     A.U. after    1 cycles

  Exact polarizability: 144.169   1.997 121.879   4.437   1.667 101.794
 Approx polarizability: 175.986   5.521 185.754  10.669  -0.714 154.414

                      1                      2                      3
                      A                      A                      A
 Frequencies --     31.3020                49.4738                70.1852
 Red. masses --      4.8306                 9.3477                 4.4722
 Frc consts  --      0.0028                 0.0135                 0.0130
 IR Inten    --      0.3999                 0.8282                 0.3797

                      4                      5                      6
                      A                      A                      A
 Frequencies --     88.2079               149.3613               155.8676
 Red. masses --      3.7270                 3.1525                 4.1476
 Frc consts  --      0.0171                 0.0414                 0.0594
 IR Inten    --      3.0004                 0.7297                 0.7929

                      7                      8                      9
                      A                      A                      A
 Frequencies --    186.1406               214.9728               247.7999
 Red. masses --      3.1041                 1.2980                 2.6674
 Frc consts  --      0.0634                 0.0353                 0.0965
 IR Inten    --      0.8791                 1.0510                 3.3579

                     10                     11                     12
                      A                      A                      A
 Frequencies --    260.5278               267.7572               288.3208
 Red. masses --      1.9966                 2.8495                 1.2079
 Frc consts  --      0.0798                 0.1204                 0.0592
 IR Inten    --      2.1313                 0.8448                 0.2747

                     13                     14                     15
                      A                      A                      A
 Frequencies --    305.0210               318.3640               333.8098
 Red. masses --      1.4191                 2.0525                 2.3862
 Frc consts  --      0.0778                 0.1226                 0.1567
 IR Inten    --     86.4307                31.7986                 3.9789

                     16                     17                     18
                      A                      A                      A
 Frequencies --    348.9577               376.3288               390.0083
 Red. masses --      1.9690                 2.1566                 2.2916
 Frc consts  --      0.1413                 0.1799                 0.2054
 IR Inten    --     29.4971                23.9207                15.3148

                     19                     20                     21
                      A                      A                      A
 Frequencies --    409.2467               443.4907               452.9584
 Red. masses --      1.9493                 2.3031                 2.3581
 Frc consts  --      0.1924                 0.2669                 0.2851
 IR Inten    --     21.0741                12.8535                13.0157

                     22                     23                     24
                      A                      A                      A
 Frequencies --    472.9277               488.1378               494.3338
 Red. masses --      2.4197                 2.6956                 4.2063
 Frc consts  --      0.3189                 0.3784                 0.6056
 IR Inten    --      0.5747                 3.6163                 5.4772

                     25                     26                     27
                      A                      A                      A
 Frequencies --    521.4587               587.5441               617.5734
 Red. masses --      4.0764                 2.5903                 1.3473
 Frc consts  --      0.6531                 0.5268                 0.3028
 IR Inten    --      9.7039                14.7553                85.7240

                     28                     29                     30
                      A                      A                      A
 Frequencies --    674.9013               734.8859               750.0601
 Red. masses --      3.7009                 3.1744                 3.2399
 Frc consts  --      0.9932                 1.0101                 1.0739
 IR Inten    --     26.4585                11.2511                 3.1962

                     31                     32                     33
                      A                      A                      A
 Frequencies --    776.2736               830.1325               868.4198
 Red. masses --      4.2900                 2.8449                 2.3085
 Frc consts  --      1.5231                 1.1551                 1.0258
 IR Inten    --     41.1403                 0.1501                31.4658

                     34                     35                     36
                      A                      A                      A
 Frequencies --    896.9146               909.3390               920.6933
 Red. masses --      1.4652                 2.1254                 1.9872
 Frc consts  --      0.6945                 1.0355                 0.9925
 IR Inten    --      4.8181                 5.9457                 9.6238

                     37                     38                     39
                      A                      A                      A
 Frequencies --    952.8894               968.6308               984.5428
 Red. masses --      2.4405                 1.9603                 1.5704
 Frc consts  --      1.3056                 1.0837                 0.8969
 IR Inten    --     11.5447                14.7632                 5.5976

                     40                     41                     42
                      A                      A                      A
 Frequencies --    987.1576              1023.9718              1054.9638
 Red. masses --      2.1241                 1.8758                 1.9156
 Frc consts  --      1.2195                 1.1588                 1.2561
 IR Inten    --     14.4831                20.5634                10.5729

                     43                     44                     45
                      A                      A                      A
 Frequencies --   1060.9913              1125.7693              1136.2024
 Red. masses --      1.8264                 2.3862                 1.8493
 Frc consts  --      1.2113                 1.7818                 1.4066
 IR Inten    --     10.0611                97.8486                 7.8682

                     46                     47                     48
                      A                      A                      A
 Frequencies --   1143.5405              1164.9752              1173.1102
 Red. masses --      2.0678                 1.6300                 2.3752
 Frc consts  --      1.5932                 1.3034                 1.9259
 IR Inten    --     99.6953                 9.7499               206.9042

                     49                     50                     51
                      A                      A                      A
 Frequencies --   1182.6488              1198.1093              1219.2887
 Red. masses --      2.5949                 2.3249                 1.5541
 Frc consts  --      2.1384                 1.9663                 1.3613
 IR Inten    --     74.9100                41.1528                24.6180

                     52                     53                     54
                      A                      A                      A
 Frequencies --   1240.8140              1249.9258              1280.4305
 Red. masses --      1.8658                 1.7911                 1.9935
 Frc consts  --      1.6925                 1.6487                 1.9257
 IR Inten    --     33.1883                23.2671                 0.8975

                     55                     56                     57
                      A                      A                      A
 Frequencies --   1331.8963              1355.0965              1357.6088
 Red. masses --      1.5269                 1.4521                 1.4281
 Frc consts  --      1.5959                 1.5711                 1.5508
 IR Inten    --     10.7336                98.2585                17.1411

                     58                     59                     60
                      A                      A                      A
 Frequencies --   1372.6562              1383.1101              1396.4027
 Red. masses --      1.4528                 1.4821                 1.4830
 Frc consts  --      1.6127                 1.6705                 1.7037
 IR Inten    --     16.0836                 7.0777                11.8060

                     61                     62                     63
                      A                      A                      A
 Frequencies --   1399.4671              1405.5176              1423.6557
 Red. masses --      1.3680                 1.6366                 1.4958
 Frc consts  --      1.5785                 1.9048                 1.7862
 IR Inten    --      5.9527                28.6368                 3.8147

                     64                     65                     66
                      A                      A                      A
 Frequencies --   1429.7672              1436.6623              1440.5757
 Red. masses --      1.4190                 1.4559                 1.3353
 Frc consts  --      1.7090                 1.7704                 1.6327
 IR Inten    --     26.1615                19.1344                 7.0745

                     67                     68                     69
                      A                      A                      A
 Frequencies --   1456.2420              1493.3118              1508.7317
 Red. masses --      1.4974                 1.1011                 1.0701
 Frc consts  --      1.8709                 1.4467                 1.4351
 IR Inten    --     15.6465                 4.9998                 0.8212

                     70                     71                     72
                      A                      A                      A
 Frequencies --   1514.6531              1518.1050              1519.6988
 Red. masses --      1.0831                 1.0845                 1.0919
 Frc consts  --      1.4640                 1.4727                 1.4858
 IR Inten    --      4.3064                27.2532                 4.3618

                     73                     74                     75
                      A                      A                      A
 Frequencies --   1527.8422              1531.9182              1536.8122
 Red. masses --      1.0944                 1.0561                 1.0645
 Frc consts  --      1.5051                 1.4603                 1.4813
 IR Inten    --      3.7690                 5.3964                 1.6300

                     76                     77                     78
                      A                      A                      A
 Frequencies --   1540.4598              1818.8275              2949.9407
 Red. masses --      1.1038                 9.8467                 1.0714
 Frc consts  --      1.5433                19.1922                 5.4933
 IR Inten    --      3.7693               268.7646                63.9095

                     79                     80                     81
                      A                      A                      A
 Frequencies --   2982.6979              3025.6686              3039.8106
 Red. masses --      1.0712                 1.0645                 1.0445
 Frc consts  --      5.6150                 5.7415                 5.6864
 IR Inten    --     50.6339                31.1728                30.1940

                     82                     83                     84
                      A                      A                      A
 Frequencies --   3046.7497              3051.9934              3075.0587
 Red. masses --      1.0611                 1.0622                 1.0367
 Frc consts  --      5.8035                 5.8297                 5.7760
 IR Inten    --     21.1490                25.7494                12.3838

                     85                     86                     87
                      A                      A                      A
 Frequencies --   3079.2481              3087.1766              3091.8959
 Red. masses --      1.0894                 1.1005                 1.0917
 Frc consts  --      6.0857                 6.1798                 6.1491
 IR Inten    --     27.6126                38.5579                 2.8128

                     88                     89                     90
                      A                      A                      A
 Frequencies --   3093.4222              3098.3689              3109.6136
 Red. masses --      1.0978                 1.1035                 1.0938
 Frc consts  --      6.1894                 6.2418                 6.2318
 IR Inten    --     38.2275                57.1473                38.5936

                     91                     92                     93
                      A                      A                      A
 Frequencies --   3145.5704              3146.0179              3168.7681
 Red. masses --      1.1014                 1.1018                 1.1027
 Frc consts  --      6.4208                 6.4250                 6.5239
 IR Inten    --     23.0826                21.5512                14.2190

                     94                     95                     96
                      A                      A                      A
 Frequencies --   3655.5409              3679.1098              3724.0081
 Red. masses --      1.0649                 1.0641                 1.0658
 Frc consts  --      8.3846                 8.4866                 8.7085
 IR Inten    --     87.3969                61.1403                 4.2620

 - Thermochemistry -
 -------------------
 Temperature   298.150 Kelvin.  Pressure   1.00000 Atm.
 Atom     1 has atomic number  6 and mass  12.00000

 Molecular mass:   217.13141 amu.
 Principal axes and moments of inertia in atomic units:
                           1         2         3
     Eigenvalues --  1488.221515743.626396243.85943
           X            0.99994  -0.00204  -0.01035
           Y            0.00253   0.99890   0.04691
           Z            0.01025  -0.04693   0.99885
 This molecule is an asymmetric top.
 Rotational symmetry number  1.
 Warning -- assumption of classical behavior for rotation
           may cause significant error
 Rotational temperatures (Kelvin)      0.05820     0.01508     0.01387
 Rotational constants (GHZ):           1.21268     0.31422     0.28904
 Zero-point vibrational energy     777748.2 (Joules/Mol)
                                  185.88627 (Kcal/Mol)
 Warning -- explicit consideration of  27 degrees of freedom as
           vibrations may cause significant error
 Vibrational temperatures:     45.04    71.18   100.98   126.91   214.90
          (Kelvin)            224.26   267.81   309.30   356.53   374.84
                              385.24   414.83   438.86   458.05   480.28
                              502.07   541.45   561.14   588.81   638.08
                              651.71   680.44   702.32   711.24   750.26
                              845.34   888.55   971.03  1057.34  1079.17
                             1116.88  1194.38  1249.46  1290.46  1308.34
                             1324.67  1371.00  1393.64  1416.54  1420.30
                             1473.27  1517.86  1526.53  1619.73  1634.74
                             1645.30  1676.14  1687.84  1701.57  1723.81
                             1754.28  1785.25  1798.36  1842.25  1916.30
                             1949.68  1953.30  1974.95  1989.99  2009.11
                             2013.52  2022.23  2048.32  2057.12  2067.04
                             2072.67  2095.21  2148.54  2170.73  2179.25
                             2184.21  2186.51  2198.22  2204.09  2211.13
                             2216.38  2616.89  4244.31  4291.44  4353.26
                             4373.61  4383.59  4391.14  4424.32  4430.35
                             4441.76  4448.55  4450.74  4457.86  4474.04
                             4525.77  4526.42  4559.15  5259.51  5293.42
                             5358.02

 Zero-point correction=                           0.296229 (Hartree/Particle)
 Thermal correction to Energy=                    0.312128
 Thermal correction to Enthalpy=                  0.313072
 Thermal correction to Gibbs Free Energy=         0.253470
 Sum of electronic and zero-point Energies=           -747.910366
 Sum of electronic and thermal Energies=              -747.894467
 Sum of electronic and thermal Enthalpies=            -747.893523
 Sum of electronic and thermal Free Energies=         -747.953125

                     E (Thermal)             CV                S
                      KCal/Mol        Cal/Mol-Kelvin    Cal/Mol-Kelvin
 Total                  195.863             61.722            125.443
 Electronic               0.000              0.000              0.000
 Translational            0.889              2.981             42.029
 Rotational               0.889              2.981             32.345
 Vibrational            194.086             55.760             51.068
 Vibration     1          0.594              1.983              5.745
 Vibration     2          0.595              1.978              4.838
 Vibration     3          0.598              1.968              4.148
 Vibration     4          0.601              1.957              3.699
 Vibration     5          0.618              1.903              2.680
 Vibration     6          0.620              1.896              2.599
 Vibration     7          0.632              1.859              2.266
 Vibration     8          0.645              1.818              2.001
 Vibration     9          0.661              1.766              1.746
 Vibration    10          0.669              1.745              1.658
 Vibration    11          0.673              1.732              1.611
 Vibration    12          0.685              1.695              1.484
 Vibration    13          0.696              1.664              1.389
 Vibration    14          0.705              1.638              1.318
 Vibration    15          0.715              1.608              1.242
 Vibration    16          0.726              1.577              1.171
 Vibration    17          0.747              1.521              1.054
 Vibration    18          0.758              1.492              1.000
 Vibration    19          0.774              1.450              0.929
 Vibration    20          0.803              1.375              0.816
 Vibration    21          0.812              1.354              0.787
 Vibration    22          0.830              1.310              0.729
 Vibration    23          0.844              1.276              0.688
 Vibration    24          0.850              1.263              0.672
 Vibration    25          0.876              1.202              0.607
 Vibration    26          0.945              1.058              0.472
 Vibration    27          0.977              0.995              0.420

 Optimization completed.
    -- Stationary point found.
 Normal termination of Gaussian 16 at Thu Dec 10 17:50:05 2020.

 ----------------------------------------------------------------------
 # B3LYP/6-311++G(d,p) empiricaldispersion=gd3bj scf=xqc pop=npa geom=c
 heck
 ----------------------------------------------------------------------

 ---------------------------------------
 CID_116425123_JID_5905_Energie_neutraal
 ---------------------------------------
 Structure from the checkpoint file:  "JID_5905.chk"
 Charge =  0 Multiplicity = 1

 SCF Done:  E(RB3LYP) =  -748.449119733     A.U. after   14 cycles
 Normal termination of Gaussian 16 at Thu Dec 10 17:55:12 2020.

 ----------------------------------------------------------------------
 # B3LYP/6-311++G(d,p) empiricaldispersion=gd3bj scf=xqc pop=npa geom=c
 heck
 ----------------------------------------------------------------------

 -------------------------------------
 CID_116425123_JID_5905_Energie_kation
 -------------------------------------
 Structure from the checkpoint file:  "JID_5905.chk"
 Charge =  1 Multiplicity = 2

 SCF Done:  E(UB3LYP) =  -748.168114124     A.U. after   19 cycles
 Normal termination of Gaussian 16 at Thu Dec 10 18:03:48 2020.
 Gaussian 16:  ES64L-G16RevA.03 25-Dec-2016

 ----------------------------------------------------------------------
 # B3LYP/6-311++G(d,p) empiricaldispersion=gd3bj scf=xqc pop=npa geom=c
 heck
 ----------------------------------------------------------------------

 ------------------------------------
 CID_116425123_JID_5905_Energie_anion
 ------------------------------------
 Structure from the checkpoint file:  "JID_5905.chk"
 Charge = -1 Multiplicity = 2

                         Standard orientation:
 ---------------------------------------------------------------------
 Center     Atomic      Atomic             Coordinates (Angstroms)
 Number     Number       Type             X           Y           Z
 ---------------------------------------------------------------------
      1          6           0        3.019794   -0.863186   -1.501079
      2          6           0        2.693537   -0.601363   -0.028608
      3          6           0        3.191597    0.769858    0.443545
      4          6           0        2.377152    1.919184   -0.161801
      5          6           0        0.880639    1.711380    0.089312
      6          7           0        0.473095    0.405721   -0.414671
      7          6           0        1.175897   -0.698092    0.225963
      8          6           0       -0.910353    0.206467   -0.772193
      9          6           0       -1.933406   -0.154665    0.360005
     10          6           0       -1.923246    0.835988    1.526578
     11          6           0       -3.308356   -0.209789   -0.297711
     12          8           0       -3.900903   -1.248468   -0.517486
     13          8           0       -3.784632    0.996970   -0.661970
     14          8           0       -1.654096   -1.447717    0.874754
     15          8           0        3.370865   -1.554127    0.801178
     16          1           0        2.739845   -1.889718   -1.773462
     17          1           0        4.092358   -0.742281   -1.684519
     18          1           0        2.462887   -0.187462   -2.155563
     19          1           0        3.097923    0.789737    1.537230
     20          1           0        4.257898    0.873030    0.211974
     21          1           0        2.553151    1.984517   -1.241940
     22          1           0        2.693305    2.873238    0.277310
     23          1           0        0.295301    2.480715   -0.426680
     24          1           0        0.688017    1.827442    1.171920
     25          1           0        0.784844   -1.639336   -0.174497
     26          1           0        1.016754   -0.728895    1.317216
     27          1           0       -1.259329    1.111650   -1.281776
     28          1           0       -0.964423   -0.621509   -1.492822
     29          1           0       -2.034384    1.866333    1.179907
     30          1           0       -2.733869    0.605240    2.224421
     31          1           0       -0.978435    0.737956    2.063985
     32          1           0       -4.641731    0.836219   -1.100588
     33          1           0       -2.305809   -2.047111    0.465775
     34          1           0        3.094637   -2.437777    0.508925
 ---------------------------------------------------------------------

 SCF Done:  E(UB3LYP) =  -748.440161842     A.U. after   33 cycles
 SCF Done:  E(UB3LYP) =  -748.440161842     a.u. after    1 cycles

 The electronic state is 2-A.
 Alpha  occ. eigenvalues --  -19.07500 -19.03035 -19.02802 -19.02380 -14.21016
 Alpha  occ. eigenvalues --  -10.21025 -10.14480 -10.13207 -10.10221 -10.09787
 Alpha  occ. eigenvalues --  -10.09150 -10.07412 -10.07209 -10.06844 -10.06554
 Alpha  occ. eigenvalues --   -1.02008  -0.94394  -0.93395  -0.92033  -0.83414
 Alpha  occ. eigenvalues --   -0.71289  -0.68151  -0.66628  -0.60964  -0.60016
 Alpha  occ. eigenvalues --   -0.57113  -0.53569  -0.51339  -0.48528  -0.44826
 Alpha  occ. eigenvalues --   -0.44580  -0.41420  -0.40222  -0.39656  -0.37876
 Alpha  occ. eigenvalues --   -0.37327  -0.36585  -0.35530  -0.33927  -0.33434
 Alpha  occ. eigenvalues --   -0.32573  -0.31996  -0.31043  -0.30347  -0.29769
 Alpha  occ. eigenvalues --   -0.28669  -0.28013  -0.27753  -0.26317  -0.25696
 Alpha  occ. eigenvalues --   -0.25364  -0.24189  -0.24129  -0.23437  -0.21797
 Alpha  occ. eigenvalues --   -0.19909  -0.19074  -0.18607  -0.11243   0.04166
 Alpha virt. eigenvalues --    0.06013   0.06747   0.07692   0.08428   0.08676
 Alpha virt. eigenvalues --    0.09085   0.09622   0.09865   0.10473   0.10989
 Alpha virt. eigenvalues --    0.11491   0.12212   0.12617   0.13171   0.13726

  Beta  occ. eigenvalues --  -19.07419 -19.03021 -19.02770 -19.02372 -14.21019
  Beta  occ. eigenvalues --  -10.20990 -10.14473 -10.13207 -10.10203 -10.09769
  Beta  occ. eigenvalues --  -10.09137 -10.07398 -10.07199 -10.06814 -10.06530
  Beta  occ. eigenvalues --   -1.01895  -0.94329  -0.93369  -0.91977  -0.83402
  Beta  occ. eigenvalues --   -0.71262  -0.68102  -0.66601  -0.60923  -0.59977
  Beta  occ. eigenvalues --   -0.57009  -0.53516  -0.51277  -0.48461  -0.44780
  Beta  occ. eigenvalues --   -0.44511  -0.41379  -0.40158  -0.39611  -0.37850
  Beta  occ. eigenvalues --   -0.37281  -0.36559  -0.35442  -0.33894  -0.33390
  Beta  occ. eigenvalues --   -0.32522  -0.31954  -0.31010  -0.30317  -0.29742
  Beta  occ. eigenvalues --   -0.28639  -0.27983  -0.27731  -0.26289  -0.25669
  Beta  occ. eigenvalues --   -0.25330  -0.24161  -0.24103  -0.23316  -0.21773
  Beta  occ. eigenvalues --   -0.19846  -0.19056  -0.18589  -0.11235
  Beta virt. eigenvalues --    0.06171   0.07091   0.07512   0.08106   0.08826
  Beta virt. eigenvalues --    0.09125   0.09469   0.09920   0.10023   0.10659
  Beta virt. eigenvalues --    0.11325   0.11597   0.12450   0.12825   0.13260

 Mulliken charges and spin densities:
               1          2
     1  C    0.365194  -0.850308
     2  C   -1.112887   1.058285
     3  C    0.320111  -0.524515
     4  C    0.007606  -0.421795
     5  C   -0.125442  -0.091255
     6  N    0.064475   0.156283
     7  C   -0.008759  -0.573074
     8  C    0.666116  -1.200691
     9  C   -0.229752   0.280406
    10  C    0.430498  -1.006854
    11  C   -0.055750   0.088510
    12  O   -0.275756   0.007394
    13  O   -0.176360   0.059555
    14  O   -0.194806   0.015354
    15  O   -0.168563   0.005388
    16  H   -0.100824   0.239111
    17  H   -0.047822   0.211676
    18  H    0.021175   0.128862
    19  H    0.089745   0.086303
    20  H    0.042737   0.115351
    21  H    0.042198   0.096345
    22  H   -0.110607   0.281893
    23  H   -0.277396   0.436154
    24  H    0.100466  -0.004233
    25  H    0.053180   0.144216
    26  H    0.136911   0.083469
    27  H   -0.165922   0.349078
    28  H    0.038245   0.148729
    29  H    0.046158   0.146390
    30  H   -0.100504   0.284464
    31  H    0.048343   0.104064
    32  H   -0.654336   0.976678
    33  H    0.205278   0.050423
    34  H    0.127048   0.118340
 Sum of Mulliken charges =  -1.00000   1.00000

 Dipole moment (field-independent basis, Debye):
    X=              5.3108    Y=             -1.5198    Z=              2.0834  Tot=              5.9038
 Quadrupole moment (field-independent basis, Debye-Ang):
   XX=           -184.1442   YY=           -128.9135   ZZ=           -125.2822
   XY=              9.2903   XZ=            -11.0191   YZ=              4.0706

 Summary of Natural Population Analysis:

                                       Natural Population
                Natural  -----------------------------------------------
    Atom  No    Charge         Core      Valence    Rydberg      Total
 -----------------------------------------------------------------------
      C    1   -0.29947      0.99961     2.29265    0.00721     3.29947
      C    2    0.12511      0.99952     1.86096    0.01441     2.87489
      C    3   -0.19388      0.99957     2.18539    0.00891     3.19388
      C    4   -0.19311      0.99962     2.18494    0.00854     3.19311
      C    5   -0.07941      0.99960     2.06873    0.01108     3.07941
      N    6   -0.28645      0.99970     2.77310    0.01365     3.78645
      C    7   -0.09404      0.99955     2.08165    0.01284     3.09404
      C    8   -0.07994      0.99956     2.06664    0.01374     3.07994
      C    9    0.08194      0.99951     1.90162    0.01693     2.91806
      C   10   -0.29056      0.99962     2.28315    0.00779     3.29056
      C   11    0.40688      0.99964     1.56746    0.02603     2.59312
      O   12   -0.31546      0.99987     3.30893    0.00666     4.31546
      O   13   -0.33801      0.99987     3.33024    0.00790     4.33801
      O   14   -0.38097      0.99989     3.37370    0.00737     4.38097
      O   15   -0.37624      0.99989     3.36969    0.00666     4.37624
      H   16    0.09710      0.00000     0.40185    0.00106     0.40290
      H   17    0.10034      0.00000     0.39874    0.00092     0.39966
      H   18    0.10896      0.00000     0.38956    0.00148     0.39104
      H   19    0.10160      0.00000     0.39712    0.00128     0.39840
      H   20    0.10148      0.00000     0.39755    0.00097     0.39852
      H   21    0.09673      0.00000     0.40187    0.00140     0.40327
      H   22    0.09858      0.00000     0.40052    0.00090     0.40142
      H   23    0.10054      0.00000     0.39802    0.00144     0.39946
      H   24    0.07891      0.00000     0.41948    0.00160     0.42109
      H   25    0.10293      0.00000     0.39568    0.00139     0.39707
      H   26    0.09134      0.00000     0.40714    0.00152     0.40866
      H   27    0.10569      0.00000     0.39231    0.00200     0.39431
      H   28    0.09699      0.00000     0.40149    0.00152     0.40301
      H   29    0.10782      0.00000     0.39088    0.00129     0.39218
      H   30    0.10412      0.00000     0.39494    0.00094     0.39588
      H   31    0.10427      0.00000     0.39438    0.00135     0.39573
      H   32    0.24883      0.00000     0.21331    0.03787     0.25117
      H   33    0.24108      0.00000     0.25571    0.00321     0.25892
      H   34    0.22631      0.00000     0.27114    0.00255     0.27369
 =======================================================================
   * Total *    0.00000     14.99502    43.77054    0.23444    59.00000

 Normal termination of Gaussian 16 at Thu Dec 10 18:17:07 2020.
