 Gaussian 16, Revision A.03,

 -----------------------------------------------------------
 # opt freq B3LYP/6-31G(d) empiricaldispersion=gd3bj scf=xqc
 -----------------------------------------------------------

 ------------------------------
 CID_45792743_JID_8587_neutraal
 ------------------------------
 Symbolic Z-matrix:
 Charge =  0 Multiplicity = 1

 SCF Done:  E(RB3LYP) =  -752.345843123     A.U. after   13 cycles
 SCF Done:  E(RB3LYP) =  -752.350915989     A.U. after   11 cycles
 SCF Done:  E(RB3LYP) =  -752.351493265     A.U. after   11 cycles
 SCF Done:  E(RB3LYP) =  -752.351965562     A.U. after   13 cycles
 SCF Done:  E(RB3LYP) =  -752.352168001     A.U. after   14 cycles
 SCF Done:  E(RB3LYP) =  -752.353234694     A.U. after   11 cycles
 SCF Done:  E(RB3LYP) =  -752.354214553     A.U. after   11 cycles
 SCF Done:  E(RB3LYP) =  -752.355637895     A.U. after   14 cycles
 SCF Done:  E(RB3LYP) =  -752.356116812     A.U. after   12 cycles
 SCF Done:  E(RB3LYP) =  -752.356819544     A.U. after   13 cycles
 SCF Done:  E(RB3LYP) =  -752.357105314     A.U. after   11 cycles
 SCF Done:  E(RB3LYP) =  -752.357113607     A.U. after   10 cycles
 SCF Done:  E(RB3LYP) =  -752.357114938     A.U. after    9 cycles
 SCF Done:  E(RB3LYP) =  -752.357114948     A.U. after    7 cycles
 SCF Done:  E(RB3LYP) =  -752.357114951     A.U. after    6 cycles
 Optimization completed.
    -- Stationary point found.
 Normal termination of Gaussian 16 at Sun Dec 13 20:23:16 2020.

 --------------------------------------------------------------------
 #N Geom=AllCheck Guess=TCheck SCRF=Check GenChk RB3LYP/6-31G(d) Freq
 --------------------------------------------------------------------

 Structure from the checkpoint file:  "JID_8587.chk"
 ------------------------------
 CID_45792743_JID_8587_neutraal
 ------------------------------
 Charge =  0 Multiplicity = 1

 SCF Done:  E(RB3LYP) =  -752.357114951     A.U. after    1 cycles

  Exact polarizability: 212.803   0.954 163.390  -2.152   2.226 117.815
 Approx polarizability: 277.088  -1.718 265.078  -4.334   6.296 182.359

                      1                      2                      3
                      A                      A                      A
 Frequencies --     43.4965                53.6770                75.3964
 Red. masses --      3.9480                 4.2332                 2.8627
 Frc consts  --      0.0044                 0.0072                 0.0096
 IR Inten    --      0.4061                 0.0878                 0.0406

                      4                      5                      6
                      A                      A                      A
 Frequencies --     99.6524               139.4998               158.9257
 Red. masses --      3.6704                 3.7299                 2.7976
 Frc consts  --      0.0215                 0.0428                 0.0416
 IR Inten    --      0.3626                 0.1290                 0.1568

                      7                      8                      9
                      A                      A                      A
 Frequencies --    202.6166               231.6554               255.4958
 Red. masses --      2.3874                 5.0659                 2.7062
 Frc consts  --      0.0577                 0.1602                 0.1041
 IR Inten    --      0.5396                 1.3740                 0.1676

                     10                     11                     12
                      A                      A                      A
 Frequencies --    266.9109               293.0568               323.6162
 Red. masses --      4.0546                 3.7049                 2.3179
 Frc consts  --      0.1702                 0.1875                 0.1430
 IR Inten    --      2.7141                 0.5294                 3.3856

                     13                     14                     15
                      A                      A                      A
 Frequencies --    357.7654               384.9917               421.4494
 Red. masses --      2.3757                 1.5006                 2.3677
 Frc consts  --      0.1792                 0.1310                 0.2478
 IR Inten    --     18.1231               109.2699                 0.9542

                     16                     17                     18
                      A                      A                      A
 Frequencies --    424.7998               443.7145               463.8499
 Red. masses --      2.6417                 2.2928                 2.7566
 Frc consts  --      0.2809                 0.2660                 0.3495
 IR Inten    --     11.3245                 2.8155                 3.9883

                     19                     20                     21
                      A                      A                      A
 Frequencies --    477.1620               518.7396               529.3909
 Red. masses --      3.3319                 3.1193                 3.4324
 Frc consts  --      0.4470                 0.4945                 0.5668
 IR Inten    --      7.6347                 9.5472                12.0597

                     22                     23                     24
                      A                      A                      A
 Frequencies --    555.6008               637.4216               667.7258
 Red. masses --      3.1699                 6.3588                 4.4061
 Frc consts  --      0.5765                 1.5222                 1.1574
 IR Inten    --      4.4239                 0.1447                 7.6631

                     25                     26                     27
                      A                      A                      A
 Frequencies --    717.4178               720.6275               744.5046
 Red. masses --      4.5849                 1.9626                 2.2852
 Frc consts  --      1.3904                 0.6005                 0.7463
 IR Inten    --      5.5465                20.0575                 5.0486

                     28                     29                     30
                      A                      A                      A
 Frequencies --    754.8378               775.7512               790.8474
 Red. masses --      2.9092                 2.0915                 1.4575
 Frc consts  --      0.9766                 0.7416                 0.5371
 IR Inten    --     14.8717                14.3967                 4.1801

                     31                     32                     33
                      A                      A                      A
 Frequencies --    810.9904               831.2359               834.0585
 Red. masses --      1.4570                 1.5025                 2.4961
 Frc consts  --      0.5646                 0.6117                 1.0231
 IR Inten    --      9.3450                 4.8958                 4.2198

                     34                     35                     36
                      A                      A                      A
 Frequencies --    859.2181               867.7344               900.4752
 Red. masses --      2.1582                 1.2526                 3.0485
 Frc consts  --      0.9387                 0.5557                 1.4564
 IR Inten    --      2.7191                 0.1164                24.5474

                     37                     38                     39
                      A                      A                      A
 Frequencies --    900.6523               902.9023               934.5034
 Red. masses --      1.9554                 2.6143                 1.4123
 Frc consts  --      0.9345                 1.2557                 0.7267
 IR Inten    --      4.3330                 1.5541                 1.8078

                     40                     41                     42
                      A                      A                      A
 Frequencies --    957.7195               966.8570               976.2217
 Red. masses --      2.8356                 2.9845                 1.3538
 Frc consts  --      1.5324                 1.6438                 0.7601
 IR Inten    --      3.5885                 1.3561                 0.2202

                     43                     44                     45
                      A                      A                      A
 Frequencies --    981.9360               994.2767               996.7258
 Red. masses --      3.6540                 2.3646                 1.2768
 Frc consts  --      2.0758                 1.3773                 0.7474
 IR Inten    --      5.4031                 0.9786                 0.2492

                     46                     47                     48
                      A                      A                      A
 Frequencies --   1010.1581              1022.3200              1051.8315
 Red. masses --      2.1034                 5.6392                 2.1819
 Frc consts  --      1.2646                 3.4725                 1.4223
 IR Inten    --      1.1638                 0.7035                12.0274

                     49                     50                     51
                      A                      A                      A
 Frequencies --   1058.4900              1061.7896              1065.5595
 Red. masses --      1.3522                 2.2644                 2.0202
 Frc consts  --      0.8926                 1.5041                 1.3515
 IR Inten    --      1.5072                10.6183                29.5093

                     52                     53                     54
                      A                      A                      A
 Frequencies --   1075.0007              1079.2433              1105.6773
 Red. masses --      2.0528                 1.3954                 1.9191
 Frc consts  --      1.3977                 0.9576                 1.3823
 IR Inten    --     10.7812                 0.2405                27.0582

                     55                     56                     57
                      A                      A                      A
 Frequencies --   1123.7665              1125.8033              1140.2033
 Red. masses --      1.7261                 2.5015                 1.3971
 Frc consts  --      1.2843                 1.8680                 1.0701
 IR Inten    --     21.2138                13.9320                 1.7324

                     58                     59                     60
                      A                      A                      A
 Frequencies --   1145.9110              1185.2074              1193.5231
 Red. masses --      1.5957                 1.3045                 1.0941
 Frc consts  --      1.2345                 1.0797                 0.9183
 IR Inten    --      3.7714                 4.7912                 0.1034

                     61                     62                     63
                      A                      A                      A
 Frequencies --   1208.3057              1210.5713              1216.8514
 Red. masses --      1.3541                 2.0871                 1.1419
 Frc consts  --      1.1648                 1.8021                 0.9962
 IR Inten    --      0.4462                10.7571                 3.4626

                     64                     65                     66
                      A                      A                      A
 Frequencies --   1228.7075              1235.9946              1250.8101
 Red. masses --      1.7519                 1.4016                 1.9169
 Frc consts  --      1.5583                 1.2616                 1.7670
 IR Inten    --      4.1056                 5.1346                 8.2610

                     67                     68                     69
                      A                      A                      A
 Frequencies --   1260.3613              1278.6846              1304.2185
 Red. masses --      1.1734                 1.7182                 1.4756
 Frc consts  --      1.0983                 1.6552                 1.4789
 IR Inten    --      5.1454                11.8190                 7.8688

                     70                     71                     72
                      A                      A                      A
 Frequencies --   1320.2540              1325.1294              1342.2604
 Red. masses --      1.4520                 1.6060                 1.6612
 Frc consts  --      1.4912                 1.6616                 1.7633
 IR Inten    --      9.4077                 0.0131                18.2163

                     73                     74                     75
                      A                      A                      A
 Frequencies --   1349.2336              1357.1316              1368.2689
 Red. masses --      1.5955                 1.4586                 2.3450
 Frc consts  --      1.7113                 1.5828                 2.5866
 IR Inten    --      2.8178                 7.9325                 1.0272

                     76                     77                     78
                      A                      A                      A
 Frequencies --   1374.2258              1398.3482              1403.8302
 Red. masses --      1.5476                 1.5085                 1.7456
 Frc consts  --      1.7220                 1.7379                 2.0269
 IR Inten    --     25.5093                20.4166                40.4048

                     79                     80                     81
                      A                      A                      A
 Frequencies --   1416.1155              1426.6093              1480.3712
 Red. masses --      1.5364                 1.4412                 1.0927
 Frc consts  --      1.8154                 1.7281                 1.4109
 IR Inten    --     28.5740                17.2586                 1.3952

                     82                     83                     84
                      A                      A                      A
 Frequencies --   1493.4582              1494.7547              1506.4921
 Red. masses --      1.1504                 1.9489                 1.1284
 Frc consts  --      1.5117                 2.5656                 1.5089
 IR Inten    --      3.4472                 7.6388                 1.2503

                     85                     86                     87
                      A                      A                      A
 Frequencies --   1513.2055              1527.7181              1537.3824
 Red. masses --      1.0802                 1.4047                 1.1258
 Frc consts  --      1.4573                 1.9316                 1.5678
 IR Inten    --      2.8358                11.0728                17.9450

                     88                     89                     90
                      A                      A                      A
 Frequencies --   1545.4996              1644.3313              1666.4951
 Red. masses --      2.1318                 5.6192                 5.5666
 Frc consts  --      3.0001                 8.9517                 9.1086
 IR Inten    --     11.0744                 0.7903                 5.7289

                     91                     92                     93
                      A                      A                      A
 Frequencies --   3031.5716              3063.5812              3064.8348
 Red. masses --      1.0714                 1.0840                 1.0711
 Frc consts  --      5.8016                 5.9944                 5.9279
 IR Inten    --     41.2302                12.8739                10.2313

                     94                     95                     96
                      A                      A                      A
 Frequencies --   3071.2630              3077.8918              3091.2881
 Red. masses --      1.0630                 1.0718                 1.0846
 Frc consts  --      5.9076                 5.9825                 6.1068
 IR Inten    --     10.8676                62.9253                71.4825

                     97                     98                     99
                      A                      A                      A
 Frequencies --   3097.2367              3119.7922              3122.5984
 Red. masses --      1.0845                 1.0918                 1.1021
 Frc consts  --      6.1295                 6.2608                 6.3316
 IR Inten    --     38.3375                 7.4426                20.6790

                    100                    101                    102
                      A                      A                      A
 Frequencies --   3132.2814              3150.9387              3151.1060
 Red. masses --      1.0968                 1.0981                 1.0506
 Frc consts  --      6.3401                 6.4233                 6.1461
 IR Inten    --     16.0836                31.4012                18.5992

                    103                    104                    105
                      A                      A                      A
 Frequencies --   3155.6299              3178.5995              3185.7843
 Red. masses --      1.0588                 1.0847                 1.0877
 Frc consts  --      6.2121                 6.4571                 6.5043
 IR Inten    --     11.2141                 4.5687                 4.2178

                    106                    107                    108
                      A                      A                      A
 Frequencies --   3195.6488              3207.7139              3223.4766
 Red. masses --      1.0924                 1.0966                 1.0917
 Frc consts  --      6.5727                 6.6477                 6.6837
 IR Inten    --     33.8070                29.4912                 8.9433

                    109                    110                    111
                      A                      A                      A
 Frequencies --   3230.9763              3243.5936              3724.1631
 Red. masses --      1.1198                 1.1167                 1.0658
 Frc consts  --      6.8877                 6.9222                 8.7092
 IR Inten    --      0.3378                24.3459                 8.0642

 - Thermochemistry -
 -------------------
 Temperature   298.150 Kelvin.  Pressure   1.00000 Atm.
 Atom     1 has atomic number  6 and mass  12.00000

 Molecular mass:   243.16231 amu.
 Principal axes and moments of inertia in atomic units:
                           1         2         3
     Eigenvalues --  2021.638806980.717748038.05766
           X            1.00000  -0.00220   0.00010
           Y            0.00220   0.99999  -0.00251
           Z           -0.00009   0.00251   1.00000
 This molecule is an asymmetric top.
 Rotational symmetry number  1.
 Warning -- assumption of classical behavior for rotation
           may cause significant error
 Rotational temperatures (Kelvin)      0.04284     0.01241     0.01078
 Rotational constants (GHZ):           0.89271     0.25853     0.22452
 Zero-point vibrational energy     902559.6 (Joules/Mol)
                                  215.71692 (Kcal/Mol)
 Warning -- explicit consideration of  22 degrees of freedom as
           vibrations may cause significant error
 Vibrational temperatures:     62.58    77.23   108.48   143.38   200.71
          (Kelvin)            228.66   291.52   333.30   367.60   384.03
                              421.64   465.61   514.74   553.92   606.37
                              611.19   638.41   667.38   686.53   746.35
                              761.68   799.39   917.11   960.71  1032.20
                             1036.82  1071.18  1086.04  1116.13  1137.85
                             1166.83  1195.96  1200.02  1236.22  1248.48
                             1295.58  1295.84  1299.08  1344.54  1377.94
                             1391.09  1404.57  1412.79  1430.54  1434.07
                             1453.39  1470.89  1513.35  1522.93  1527.68
                             1533.10  1546.69  1552.79  1590.82  1616.85
                             1619.78  1640.50  1648.71  1705.25  1717.21
                             1738.48  1741.74  1750.78  1767.84  1778.32
                             1799.64  1813.38  1839.74  1876.48  1899.55
                             1906.57  1931.21  1941.25  1952.61  1968.63
                             1977.20  2011.91  2019.80  2037.47  2052.57
                             2129.92  2148.75  2150.62  2167.51  2177.17
                             2198.05  2211.95  2223.63  2365.83  2397.71
                             4361.76  4407.81  4409.61  4418.86  4428.40
                             4447.67  4456.23  4488.69  4492.72  4506.65
                             4533.50  4533.74  4540.25  4573.30  4583.63
                             4597.83  4615.18  4637.86  4648.65  4666.81
                             5358.24

 Zero-point correction=                           0.343767 (Hartree/Particle)
 Thermal correction to Energy=                    0.358800
 Thermal correction to Enthalpy=                  0.359744
 Thermal correction to Gibbs Free Energy=         0.301806
 Sum of electronic and zero-point Energies=           -752.013348
 Sum of electronic and thermal Energies=              -751.998315
 Sum of electronic and thermal Enthalpies=            -751.997371
 Sum of electronic and thermal Free Energies=         -752.055309

                     E (Thermal)             CV                S
                      KCal/Mol        Cal/Mol-Kelvin    Cal/Mol-Kelvin
 Total                  225.150             62.910            121.941
 Electronic               0.000              0.000              0.000
 Translational            0.889              2.981             42.367
 Rotational               0.889              2.981             33.095
 Vibrational            223.373             56.949             46.480
 Vibration     1          0.595              1.980              5.093
 Vibration     2          0.596              1.976              4.677
 Vibration     3          0.599              1.965              4.007
 Vibration     4          0.604              1.949              3.461
 Vibration     5          0.615              1.914              2.811
 Vibration     6          0.621              1.893              2.563
 Vibration     7          0.639              1.836              2.109
 Vibration     8          0.653              1.793              1.866
 Vibration     9          0.666              1.754              1.692
 Vibration    10          0.672              1.734              1.616
 Vibration    11          0.688              1.687              1.456
 Vibration    12          0.708              1.628              1.292
 Vibration    13          0.733              1.559              1.132
 Vibration    14          0.754              1.502              1.019
 Vibration    15          0.784              1.424              0.887
 Vibration    16          0.787              1.416              0.876
 Vibration    17          0.803              1.375              0.815
 Vibration    18          0.821              1.330              0.755
 Vibration    19          0.834              1.301              0.718
 Vibration    20          0.874              1.208              0.613
 Vibration    21          0.884              1.185              0.589
 Vibration    22          0.911              1.127              0.533

 Optimization completed.
    -- Stationary point found.
 Normal termination of Gaussian 16 at Sun Dec 13 20:43:57 2020.

 ----------------------------------------------------------------------
 # B3LYP/6-311++G(d,p) empiricaldispersion=gd3bj scf=xqc pop=npa geom=c
 heck
 ----------------------------------------------------------------------

 --------------------------------------
 CID_45792743_JID_8587_Energie_neutraal
 --------------------------------------
 Structure from the checkpoint file:  "JID_8587.chk"
 Charge =  0 Multiplicity = 1

 SCF Done:  E(RB3LYP) =  -752.560852146     A.U. after   14 cycles
 Normal termination of Gaussian 16 at Sun Dec 13 20:52:40 2020.

 ----------------------------------------------------------------------
 # B3LYP/6-311++G(d,p) empiricaldispersion=gd3bj scf=xqc pop=npa geom=c
 heck
 ----------------------------------------------------------------------

 ------------------------------------
 CID_45792743_JID_8587_Energie_kation
 ------------------------------------
 Structure from the checkpoint file:  "JID_8587.chk"
 Charge =  1 Multiplicity = 2

 SCF Done:  E(UB3LYP) =  -752.271229662     A.U. after   28 cycles
 Normal termination of Gaussian 16 at Sun Dec 13 21:17:13 2020.
 Gaussian 16:  ES64L-G16RevA.03 25-Dec-2016

 ----------------------------------------------------------------------
 # B3LYP/6-311++G(d,p) empiricaldispersion=gd3bj scf=xqc pop=npa geom=c
 heck
 ----------------------------------------------------------------------

 -----------------------------------
 CID_45792743_JID_8587_Energie_anion
 -----------------------------------
 Structure from the checkpoint file:  "JID_8587.chk"
 Charge = -1 Multiplicity = 2

                         Standard orientation:
 ---------------------------------------------------------------------
 Center     Atomic      Atomic             Coordinates (Angstroms)
 Number     Number       Type             X           Y           Z
 ---------------------------------------------------------------------
      1          6           0        3.806533   -1.902642    0.835531
      2          6           0        3.828321   -1.938105   -0.674968
      3          6           0        3.388984   -0.691807    0.045516
      4          7           0        1.982954   -0.386453    0.018999
      5          6           0        1.542115    0.476608    1.136454
      6          6           0        1.981959    1.913667    0.740936
      7          6           0        2.005607    1.875165   -0.810081
      8          6           0        1.574829    0.420824   -1.149458
      9          6           0        0.057539    0.236417   -1.299371
     10          6           0       -0.744310    0.660329   -0.041534
     11          6           0        0.021169    0.306305    1.254837
     12          6           0       -2.129671    0.006575   -0.023756
     13          6           0       -2.267483   -1.384503   -0.137550
     14          6           0       -3.524334   -1.983948   -0.109742
     15          6           0       -4.672575   -1.202071    0.035417
     16          6           0       -4.546353    0.179519    0.164214
     17          6           0       -3.284254    0.777175    0.139281
     18          8           0       -0.873079    2.093221   -0.022676
     19          1           0        4.751742   -1.872613    1.369729
     20          1           0        3.013635   -2.451735    1.333876
     21          1           0        4.788554   -1.932586   -1.182581
     22          1           0        3.049941   -2.510997   -1.169483
     23          1           0        4.092516    0.147019    0.036256
     24          1           0        2.011666    0.135523    2.063866
     25          1           0        1.296656    2.670415    1.124869
     26          1           0        2.978702    2.124735    1.142180
     27          1           0        3.013936    2.063827   -1.193149
     28          1           0        1.340047    2.618540   -1.252780
     29          1           0        2.070132    0.037308   -2.046497
     30          1           0       -0.121893   -0.820087   -1.513018
     31          1           0       -0.323971    0.802118   -2.161505
     32          1           0       -0.176909   -0.739583    1.505009
     33          1           0       -0.389279    0.926702    2.059183
     34          1           0       -1.382941   -2.007737   -0.238102
     35          1           0       -3.607713   -3.063599   -0.200656
     36          1           0       -5.653631   -1.668333    0.054589
     37          1           0       -5.430743    0.798377    0.290644
     38          1           0       -3.187687    1.849518    0.266442
     39          1           0       -1.257264    2.355546   -0.874822
 ---------------------------------------------------------------------

 SCF Done:  E(UB3LYP) =  -752.546625109     A.U. after   33 cycles
 SCF Done:  E(UB3LYP) =  -752.546625109     a.u. after    1 cycles

 The electronic state is 2-A.
 Alpha  occ. eigenvalues --  -19.02591 -14.20734 -10.14220 -10.10792 -10.10105
 Alpha  occ. eigenvalues --  -10.10011 -10.08767 -10.08348 -10.08203 -10.08140
 Alpha  occ. eigenvalues --  -10.08127 -10.08108 -10.08036 -10.07768 -10.07248
 Alpha  occ. eigenvalues --  -10.07160 -10.06317 -10.06284  -0.93344  -0.85290
 Alpha  occ. eigenvalues --   -0.76697  -0.76162  -0.69597  -0.66814  -0.66038
 Alpha  occ. eigenvalues --   -0.65421  -0.64021  -0.55816  -0.55008  -0.51518
 Alpha  occ. eigenvalues --   -0.51426  -0.50314  -0.48526  -0.47494  -0.44721
 Alpha  occ. eigenvalues --   -0.43651  -0.42718  -0.40127  -0.38731  -0.36664
 Alpha  occ. eigenvalues --   -0.36453  -0.35703  -0.34945  -0.34024  -0.33496
 Alpha  occ. eigenvalues --   -0.33369  -0.32945  -0.30601  -0.30027  -0.28319
 Alpha  occ. eigenvalues --   -0.28040  -0.27587  -0.27144  -0.26619  -0.25317
 Alpha  occ. eigenvalues --   -0.25151  -0.24456  -0.23419  -0.22392  -0.21468
 Alpha  occ. eigenvalues --   -0.21091  -0.19380  -0.18232  -0.16347  -0.15490
 Alpha  occ. eigenvalues --   -0.13255   0.04164
 Alpha virt. eigenvalues --    0.05654   0.06455   0.07026   0.07205   0.07648
 Alpha virt. eigenvalues --    0.07752   0.07954   0.08620   0.08973   0.09569
 Alpha virt. eigenvalues --    0.09861   0.10102   0.10955   0.11667   0.11765

  Beta  occ. eigenvalues --  -19.02563 -14.20727 -10.14218 -10.10781 -10.10103
  Beta  occ. eigenvalues --  -10.10006 -10.08769 -10.08336 -10.08187 -10.08127
  Beta  occ. eigenvalues --  -10.08114 -10.08098 -10.08022 -10.07756 -10.07231
  Beta  occ. eigenvalues --  -10.07153 -10.06306 -10.06266  -0.93285  -0.85275
  Beta  occ. eigenvalues --   -0.76673  -0.76141  -0.69570  -0.66795  -0.66015
  Beta  occ. eigenvalues --   -0.65387  -0.63994  -0.55781  -0.54984  -0.51475
  Beta  occ. eigenvalues --   -0.51385  -0.50285  -0.48486  -0.47461  -0.44683
  Beta  occ. eigenvalues --   -0.43614  -0.42685  -0.40082  -0.38690  -0.36636
  Beta  occ. eigenvalues --   -0.36426  -0.35672  -0.34918  -0.34006  -0.33471
  Beta  occ. eigenvalues --   -0.33346  -0.32916  -0.30575  -0.30002  -0.28292
  Beta  occ. eigenvalues --   -0.28018  -0.27561  -0.27113  -0.26592  -0.25295
  Beta  occ. eigenvalues --   -0.25125  -0.24430  -0.23391  -0.22368  -0.21448
  Beta  occ. eigenvalues --   -0.21070  -0.19363  -0.18206  -0.16306  -0.15464
  Beta  occ. eigenvalues --   -0.13222
  Beta virt. eigenvalues --    0.06108   0.06501   0.07261   0.07305   0.07565
  Beta virt. eigenvalues --    0.07856   0.07989   0.08192   0.09036   0.09405
  Beta virt. eigenvalues --    0.09836   0.10079   0.10231   0.11358   0.11810

 Mulliken charges and spin densities:
               1          2
     1  C    0.272040  -0.568305
     2  C    0.373847  -0.699574
     3  C   -0.674394   0.581491
     4  N    0.350274  -0.092220
     5  C    0.520376  -0.295615
     6  C   -0.532544  -0.041814
     7  C    0.698270  -1.320620
     8  C   -0.686247   0.898229
     9  C   -0.298407  -0.599860
    10  C    0.440606  -0.239499
    11  C   -0.555528  -0.252167
    12  C    0.774681  -0.043912
    13  C   -0.963738   0.692582
    14  C    0.146003  -0.419612
    15  C    1.459427  -1.827549
    16  C   -0.183612  -0.234771
    17  C   -0.290605   0.234643
    18  O   -0.131114  -0.042024
    19  H   -0.057911   0.200255
    20  H    0.102706   0.027005
    21  H   -0.105661   0.253705
    22  H    0.113056   0.018351
    23  H    0.004084   0.208644
    24  H    0.118354   0.094826
    25  H    0.161152   0.026456
    26  H   -0.162537   0.317593
    27  H   -0.257163   0.422775
    28  H   -0.133471   0.287751
    29  H   -0.252560   0.483927
    30  H   -0.090253   0.197720
    31  H   -0.158698   0.338807
    32  H   -0.044645   0.183705
    33  H    0.198717   0.005020
    34  H    0.342163  -0.189867
    35  H   -0.527582   0.705563
    36  H   -0.203573   0.347475
    37  H   -0.437296   0.615326
    38  H   -0.178797   0.334388
    39  H   -0.149422   0.391170
 Sum of Mulliken charges =  -1.00000   1.00000

 Dipole moment (field-independent basis, Debye):
    X=              1.9168    Y=             -1.1700    Z=              2.1206  Tot=              3.0887
 Quadrupole moment (field-independent basis, Debye-Ang):
   XX=           -210.1838   YY=           -157.1150   ZZ=           -142.4793
   XY=             -5.7255   XZ=              2.3346   YZ=              3.0817

 Summary of Natural Population Analysis:

                                       Natural Population
                Natural  -----------------------------------------------
    Atom  No    Charge         Core      Valence    Rydberg      Total
 -----------------------------------------------------------------------
      C    1   -0.19914      0.99962     2.19296    0.00657     3.19914
      C    2   -0.20011      0.99961     2.19114    0.00935     3.20011
      C    3   -0.01935      0.99955     2.00526    0.01454     3.01935
      N    4   -0.28633      0.99970     2.77321    0.01341     3.78633
      C    5   -0.00579      0.99959     1.99374    0.01245     3.00579
      C    6   -0.20501      0.99962     2.19710    0.00829     3.20501
      C    7   -0.20338      0.99962     2.19534    0.00841     3.20338
      C    8   -0.00660      0.99959     1.99319    0.01382     3.00660
      C    9   -0.19471      0.99956     2.18443    0.01072     3.19471
      C   10    0.13146      0.99948     1.85240    0.01666     2.86854
      C   11   -0.19043      0.99956     2.18147    0.00941     3.19043
      C   12   -0.02423      0.99946     2.01121    0.01356     3.02423
      C   13   -0.10078      0.99951     2.09220    0.00907     3.10078
      C   14   -0.09925      0.99956     2.08912    0.01057     3.09925
      C   15   -0.10555      0.99956     2.09614    0.00986     3.10555
      C   16   -0.09672      0.99956     2.08697    0.01019     3.09672
      C   17   -0.10213      0.99950     2.09224    0.01040     3.10213
      O   18   -0.37782      0.99989     3.37081    0.00712     4.37782
      H   19    0.10058      0.00000     0.39837    0.00105     0.39942
      H   20    0.10471      0.00000     0.39408    0.00121     0.39529
      H   21    0.10177      0.00000     0.39726    0.00098     0.39823
      H   22    0.10536      0.00000     0.39353    0.00111     0.39464
      H   23    0.09385      0.00000     0.40424    0.00191     0.40615
      H   24    0.10086      0.00000     0.39792    0.00122     0.39914
      H   25    0.10959      0.00000     0.38925    0.00116     0.39041
      H   26    0.09745      0.00000     0.40151    0.00104     0.40255
      H   27    0.09921      0.00000     0.39941    0.00138     0.40079
      H   28    0.10610      0.00000     0.39250    0.00139     0.39390
      H   29    0.10250      0.00000     0.39600    0.00150     0.39750
      H   30    0.10594      0.00000     0.39211    0.00194     0.39406
      H   31    0.10074      0.00000     0.39789    0.00137     0.39926
      H   32    0.10583      0.00000     0.39282    0.00135     0.39417
      H   33    0.10608      0.00000     0.39284    0.00109     0.39392
      H   34    0.10233      0.00000     0.39597    0.00170     0.39767
      H   35    0.10079      0.00000     0.39814    0.00107     0.39921
      H   36    0.10105      0.00000     0.39774    0.00122     0.39895
      H   37    0.10047      0.00000     0.39846    0.00107     0.39953
      H   38    0.10966      0.00000     0.38903    0.00131     0.39034
      H   39    0.23101      0.00000     0.26483    0.00415     0.26899
 =======================================================================
   * Total *    0.00000     17.99255    47.78284    0.22461    66.00000

 Normal termination of Gaussian 16 at Sun Dec 13 21:44:56 2020.
