 Gaussian 16, Revision A.03,

 -----------------------------------------------------------
 # opt freq B3LYP/6-31G(d) empiricaldispersion=gd3bj scf=xqc
 -----------------------------------------------------------

 -------------------------------
 CID_150575237_JID_1300_neutraal
 -------------------------------
 Symbolic Z-matrix:
 Charge =  0 Multiplicity = 1

 SCF Done:  E(RB3LYP) =  -888.905988347     A.U. after   17 cycles
 SCF Done:  E(RB3LYP) =  -888.909406649     A.U. after   17 cycles
 SCF Done:  E(RB3LYP) =  -888.910113287     A.U. after   14 cycles
 SCF Done:  E(RB3LYP) =  -888.906980438     A.U. after   16 cycles
 SCF Done:  E(RB3LYP) =  -888.909983899     A.U. after   15 cycles
 SCF Done:  E(RB3LYP) =  -888.910553401     A.U. after   12 cycles
 SCF Done:  E(RB3LYP) =  -888.911021654     A.U. after   14 cycles
 SCF Done:  E(RB3LYP) =  -888.911195530     A.U. after   14 cycles
 SCF Done:  E(RB3LYP) =  -888.911304251     A.U. after   13 cycles
 SCF Done:  E(RB3LYP) =  -888.911407534     A.U. after   14 cycles
 SCF Done:  E(RB3LYP) =  -888.916755770     A.U. after   12 cycles
 SCF Done:  E(RB3LYP) =  -888.916759635     A.U. after   11 cycles
 SCF Done:  E(RB3LYP) =  -888.916761192     A.U. after   10 cycles
 SCF Done:  E(RB3LYP) =  -888.916761790     A.U. after    8 cycles
 SCF Done:  E(RB3LYP) =  -888.916761935     A.U. after    8 cycles
 SCF Done:  E(RB3LYP) =  -888.916761962     A.U. after    8 cycles
 Optimization completed.
    -- Stationary point found.
 Normal termination of Gaussian 16 at Tue Dec  8 19:53:32 2020.

 --------------------------------------------------------------------
 #N Geom=AllCheck Guess=TCheck SCRF=Check GenChk RB3LYP/6-31G(d) Freq
 --------------------------------------------------------------------

 Structure from the checkpoint file:  "JID_1300.chk"
 -------------------------------
 CID_150575237_JID_1300_neutraal
 -------------------------------
 Charge =  0 Multiplicity = 1

 SCF Done:  E(RB3LYP) =  -888.916761962     A.U. after    1 cycles

  Exact polarizability:  90.819 -11.225 109.108  -3.179  -2.171  87.949
 Approx polarizability: 125.733 -24.681 208.255  -5.568  -3.577 130.964

                      1                      2                      3
                      A                      A                      A
 Frequencies --     28.7595                37.7874                60.1478
 Red. masses --      6.3630                 6.8798                 7.3079
 Frc consts  --      0.0031                 0.0058                 0.0156
 IR Inten    --      0.3424                 2.0163                 0.2347

                      4                      5                      6
                      A                      A                      A
 Frequencies --     83.9292               102.3393               124.5620
 Red. masses --      3.1588                10.7562                 3.0505
 Frc consts  --      0.0131                 0.0664                 0.0279
 IR Inten    --      0.1301                 3.4059                 1.1950

                      7                      8                      9
                      A                      A                      A
 Frequencies --    178.1291               247.4128               264.6654
 Red. masses --      2.5774                 2.6667                 7.3560
 Frc consts  --      0.0482                 0.0962                 0.3036
 IR Inten    --      1.1219                 1.4819                 2.6328

                     10                     11                     12
                      A                      A                      A
 Frequencies --    278.2162               296.7694               351.0877
 Red. masses --      1.3921                 3.2380                 3.5589
 Frc consts  --      0.0635                 0.1680                 0.2585
 IR Inten    --      2.7012                 9.5809                 3.0838

                     13                     14                     15
                      A                      A                      A
 Frequencies --    375.9534               463.7399               498.4293
 Red. masses --      2.6572                 2.0979                 8.0179
 Frc consts  --      0.2213                 0.2658                 1.1736
 IR Inten    --      2.9091                30.5020                 9.0571

                     16                     17                     18
                      A                      A                      A
 Frequencies --    549.9177               608.4450               628.8592
 Red. masses --      5.2842                 2.3787                 3.4076
 Frc consts  --      0.9415                 0.5188                 0.7940
 IR Inten    --     13.5146                89.5000                22.6676

                     19                     20                     21
                      A                      A                      A
 Frequencies --    674.8627               700.2591               739.6242
 Red. masses --      4.1817                 4.1437                 2.8335
 Frc consts  --      1.1221                 1.1972                 0.9133
 IR Inten    --      3.7841                 3.7917                17.6092

                     22                     23                     24
                      A                      A                      A
 Frequencies --    779.9735               803.5474               926.4193
 Red. masses --      1.7622                 2.0019                 2.4948
 Frc consts  --      0.6316                 0.7616                 1.2616
 IR Inten    --      3.1221                 3.7144                13.1357

                     25                     26                     27
                      A                      A                      A
 Frequencies --    976.7861               997.9566              1025.6208
 Red. masses --      1.8960                 1.9335                 3.8052
 Frc consts  --      1.0659                 1.1345                 2.3583
 IR Inten    --      3.3249                 5.9481                 9.4012

                     28                     29                     30
                      A                      A                      A
 Frequencies --   1033.8849              1075.8719              1093.9159
 Red. masses --      2.9310                 1.5067                 1.6656
 Frc consts  --      1.8459                 1.0275                 1.1743
 IR Inten    --     11.3748                 0.8757                10.3219

                     31                     32                     33
                      A                      A                      A
 Frequencies --   1172.1274              1196.2735              1234.0583
 Red. masses --      1.2651                 7.4843                 1.2508
 Frc consts  --      1.0240                 6.3105                 1.1223
 IR Inten    --     25.0810                51.7189                12.5057

                     34                     35                     36
                      A                      A                      A
 Frequencies --   1295.2121              1310.5643              1320.5740
 Red. masses --      1.1923                 1.8374                 1.2633
 Frc consts  --      1.1784                 1.8594                 1.2980
 IR Inten    --      4.1589                54.9640                26.8157

                     37                     38                     39
                      A                      A                      A
 Frequencies --   1344.1464              1410.0034              1429.6885
 Red. masses --      1.2791                 1.8912                 1.3496
 Frc consts  --      1.3616                 2.2153                 1.6254
 IR Inten    --     12.8020                87.3576                12.4821

                     40                     41                     42
                      A                      A                      A
 Frequencies --   1438.9220              1488.3143              1509.6052
 Red. masses --      1.2262                 1.0801                 1.1163
 Frc consts  --      1.4958                 1.4096                 1.4989
 IR Inten    --      4.1724                13.3464                11.5998

                     43                     44                     45
                      A                      A                      A
 Frequencies --   1512.4061              1523.2613              1543.0374
 Red. masses --      1.0856                 1.0474                 1.0451
 Frc consts  --      1.4631                 1.4319                 1.4662
 IR Inten    --      3.4104                 6.3318                 2.9684

                     46                     47                     48
                      A                      A                      A
 Frequencies --   1794.5149              2241.3064              3055.0404
 Red. masses --      9.0851                13.8873                 1.0380
 Frc consts  --     17.2375                41.1029                 5.7082
 IR Inten    --    236.1336               285.5903                24.8283

                     49                     50                     51
                      A                      A                      A
 Frequencies --   3066.6205              3076.6573              3092.2182
 Red. masses --      1.0672                 1.0622                 1.0607
 Frc consts  --      5.9134                 5.9240                 5.9754
 IR Inten    --     10.4755                12.7010                16.7803

                     52                     53                     54
                      A                      A                      A
 Frequencies --   3117.9857              3127.2101              3140.2311
 Red. masses --      1.1011                 1.0997                 1.1029
 Frc consts  --      6.3071                 6.3363                 6.4075
 IR Inten    --     14.0657                12.7780                 1.0066

                     55                     56                     57
                      A                      A                      A
 Frequencies --   3150.7306              3156.6205              3549.7996
 Red. masses --      1.1033                 1.0983                 1.0764
 Frc consts  --      6.4530                 6.4478                 7.9918
 IR Inten    --     15.5016                10.6629                29.0914

 - Thermochemistry -
 -------------------
 Temperature   298.150 Kelvin.  Pressure   1.00000 Atm.
 Atom     1 has atomic number  6 and mass  12.00000

 Molecular mass:   174.05753 amu.
 Principal axes and moments of inertia in atomic units:
                           1         2         3
     Eigenvalues --  1596.433512366.202892913.57226
           X            0.99949   0.01958  -0.02505
           Y           -0.02078   0.99861  -0.04852
           Z            0.02406   0.04902   0.99851
 This molecule is an asymmetric top.
 Rotational symmetry number  1.
 Warning -- assumption of classical behavior for rotation
           may cause significant error
 Rotational temperatures (Kelvin)      0.05425     0.03660     0.02973
 Rotational constants (GHZ):           1.13048     0.76272     0.61943
 Zero-point vibrational energy     432480.0 (Joules/Mol)
                                  103.36519 (Kcal/Mol)
 Warning -- explicit consideration of  17 degrees of freedom as
           vibrations may cause significant error
 Vibrational temperatures:     41.38    54.37    86.54   120.76   147.24
          (Kelvin)            179.22   256.29   355.97   380.79   400.29
                              426.98   505.14   540.91   667.22   717.13
                              791.21   875.42   904.79   970.98  1007.52
                             1064.15  1122.21  1156.13  1332.91  1405.38
                             1435.84  1475.64  1487.53  1547.94  1573.90
                             1686.43  1721.17  1775.53  1863.52  1885.61
                             1900.01  1933.93  2028.68  2057.00  2070.29
                             2141.35  2171.99  2176.02  2191.63  2220.09
                             2581.91  3224.74  4395.52  4412.18  4426.62
                             4449.01  4486.09  4499.36  4518.09  4533.20
                             4541.67  5107.37

 Zero-point correction=                           0.164723 (Hartree/Particle)
 Thermal correction to Energy=                    0.177257
 Thermal correction to Enthalpy=                  0.178202
 Thermal correction to Gibbs Free Energy=         0.123974
 Sum of electronic and zero-point Energies=           -888.752039
 Sum of electronic and thermal Energies=              -888.739505
 Sum of electronic and thermal Enthalpies=            -888.738560
 Sum of electronic and thermal Free Energies=         -888.792788

                     E (Thermal)             CV                S
                      KCal/Mol        Cal/Mol-Kelvin    Cal/Mol-Kelvin
 Total                  111.231             43.477            114.131
 Electronic               0.000              0.000              0.000
 Translational            0.889              2.981             41.370
 Rotational               0.889              2.981             30.777
 Vibrational            109.453             37.515             41.985
 Vibration     1          0.593              1.984              5.913
 Vibration     2          0.594              1.982              5.372
 Vibration     3          0.597              1.973              4.452
 Vibration     4          0.601              1.960              3.797
 Vibration     5          0.604              1.947              3.409
 Vibration     6          0.610              1.928              3.028
 Vibration     7          0.629              1.869              2.348
 Vibration     8          0.661              1.767              1.749
 Vibration     9          0.671              1.738              1.631
 Vibration    10          0.679              1.714              1.545
 Vibration    11          0.690              1.680              1.435
 Vibration    12          0.728              1.573              1.161
 Vibration    13          0.747              1.521              1.055
 Vibration    14          0.821              1.330              0.755
 Vibration    15          0.854              1.253              0.662
 Vibration    16          0.905              1.140              0.544
 Vibration    17          0.967              1.014              0.435

 Optimization completed.
    -- Stationary point found.
 Normal termination of Gaussian 16 at Tue Dec  8 19:57:56 2020.

 ----------------------------------------------------------------------
 # B3LYP/6-311++G(d,p) empiricaldispersion=gd3bj scf=xqc pop=npa geom=c
 heck
 ----------------------------------------------------------------------

 ---------------------------------------
 CID_150575237_JID_1300_Energie_neutraal
 ---------------------------------------
 Structure from the checkpoint file:  "JID_1300.chk"
 Charge =  0 Multiplicity = 1

 SCF Done:  E(RB3LYP) =  -889.089121184     A.U. after   16 cycles
 Normal termination of Gaussian 16 at Tue Dec  8 20:00:17 2020.

 ----------------------------------------------------------------------
 # B3LYP/6-311++G(d,p) empiricaldispersion=gd3bj scf=xqc pop=npa geom=c
 heck
 ----------------------------------------------------------------------

 -------------------------------------
 CID_150575237_JID_1300_Energie_kation
 -------------------------------------
 Structure from the checkpoint file:  "JID_1300.chk"
 Charge =  1 Multiplicity = 2

 SCF Done:  E(UB3LYP) =  -888.774763005     A.U. after   25 cycles
 Normal termination of Gaussian 16 at Tue Dec  8 20:05:02 2020.
 Gaussian 16:  ES64L-G16RevA.03 25-Dec-2016

 ----------------------------------------------------------------------
 # B3LYP/6-311++G(d,p) empiricaldispersion=gd3bj scf=xqc pop=npa geom=c
 heck
 ----------------------------------------------------------------------

 ------------------------------------
 CID_150575237_JID_1300_Energie_anion
 ------------------------------------
 Structure from the checkpoint file:  "JID_1300.chk"
 Charge = -1 Multiplicity = 2

                         Standard orientation:
 ---------------------------------------------------------------------
 Center     Atomic      Atomic             Coordinates (Angstroms)
 Number     Number       Type             X           Y           Z
 ---------------------------------------------------------------------
      1          6           0        2.737157    0.149718   -1.300018
      2          6           0        1.489129    0.986729   -1.038888
      3         16           0        1.144187    1.357129    0.734551
      4          6           0        1.164551   -0.291099    1.539243
      5          6           0       -0.135190   -1.097507    1.408523
      6          6           0       -0.351745   -1.563238   -0.016817
      7          8           0        0.389816   -2.353414   -0.579207
      8          7           0       -1.395756   -0.993055   -0.733273
      9          7           0       -2.501258   -0.371425   -0.088447
     10          7           0       -2.471904    0.881181   -0.250187
     11          7           0       -2.615113    2.005969   -0.291000
     12          1           0        3.612403    0.574876   -0.798569
     13          1           0        2.938384    0.116765   -2.377512
     14          1           0        2.599618   -0.882216   -0.965883
     15          1           0        1.596417    1.986434   -1.473421
     16          1           0        0.609621    0.526032   -1.495048
     17          1           0        2.010239   -0.874262    1.167686
     18          1           0        1.351124   -0.077975    2.595714
     19          1           0       -0.045277   -2.006593    2.015672
     20          1           0       -0.983052   -0.519868    1.778940
     21          1           0       -1.650187   -1.496246   -1.578642
 ---------------------------------------------------------------------

 SCF Done:  E(UB3LYP) =  -889.095309163     A.U. after   31 cycles

 The electronic state is 2-A.
 Alpha  occ. eigenvalues --  -88.72234 -18.97122 -14.27366 -14.22653 -14.21715
 Alpha  occ. eigenvalues --  -14.19479 -10.15040 -10.09054 -10.08690 -10.06177
 Alpha  occ. eigenvalues --  -10.06063  -7.80838  -5.77246  -5.76865  -5.76195
 Alpha  occ. eigenvalues --   -0.96707  -0.92333  -0.84852  -0.72638  -0.70364
 Alpha  occ. eigenvalues --   -0.66211  -0.59375  -0.53790  -0.48511  -0.46464
 Alpha  occ. eigenvalues --   -0.42779  -0.38209  -0.36415  -0.34961  -0.33719
 Alpha  occ. eigenvalues --   -0.32646  -0.32032  -0.30685  -0.29966  -0.28359
 Alpha  occ. eigenvalues --   -0.27657  -0.26996  -0.25918  -0.25319  -0.22787
 Alpha  occ. eigenvalues --   -0.20953  -0.18898  -0.14739  -0.12118  -0.11145
 Alpha  occ. eigenvalues --   -0.10225   0.05221
 Alpha virt. eigenvalues --    0.07604   0.08187   0.09925   0.10489   0.11079
 Alpha virt. eigenvalues --    0.11201   0.11882   0.12300   0.13649   0.14162
 Alpha virt. eigenvalues --    0.15304   0.15729   0.16155   0.16624   0.16829

  Beta  occ. eigenvalues --  -88.72233 -18.97101 -14.26834 -14.22443 -14.21772
  Beta  occ. eigenvalues --  -14.18719 -10.15018 -10.09034 -10.08686 -10.06156
  Beta  occ. eigenvalues --  -10.06056  -7.80838  -5.77245  -5.76864  -5.76195
  Beta  occ. eigenvalues --   -0.95726  -0.92210  -0.84376  -0.72178  -0.70313
  Beta  occ. eigenvalues --   -0.66179  -0.59333  -0.53719  -0.48180  -0.46251
  Beta  occ. eigenvalues --   -0.42578  -0.38143  -0.36130  -0.33690  -0.33566
  Beta  occ. eigenvalues --   -0.32096  -0.31592  -0.30607  -0.29723  -0.27593
  Beta  occ. eigenvalues --   -0.27023  -0.26532  -0.25899  -0.25021  -0.22763
  Beta  occ. eigenvalues --   -0.19633  -0.18791  -0.14582  -0.11763  -0.11126
  Beta  occ. eigenvalues --   -0.10027
  Beta virt. eigenvalues --    0.07626   0.08451   0.09810   0.10348   0.11221
  Beta virt. eigenvalues --    0.11421   0.11863   0.12352   0.13554   0.13819
  Beta virt. eigenvalues --    0.14588   0.15345   0.15735   0.16264   0.16833

 Mulliken charges and spin densities:
               1          2
     1  C   -0.467071  -0.226803
     2  C   -0.352925   0.142570
     3  S    0.136030  -0.024629
     4  C   -0.087204  -0.264045
     5  C    0.174818  -0.472970
     6  C    0.133649  -0.189614
     7  O   -0.347553   0.027737
     8  N   -0.166323  -0.015476
     9  N   -0.590142   0.028090
    10  N    0.457544   0.127888
    11  N   -0.236696   0.411502
    12  H    0.053085   0.067021
    13  H    0.075317   0.043059
    14  H    0.113460   0.066224
    15  H    0.196436   0.013765
    16  H    0.214558  -0.021215
    17  H    0.177544  -0.021092
    18  H   -0.182607   0.417893
    19  H   -0.257250   0.423221
    20  H    0.031189   0.117635
    21  H   -0.075860   0.349237
 Sum of Mulliken charges =  -1.00000   1.00000

 Dipole moment (field-independent basis, Debye):
    X=              4.6250    Y=              0.3887    Z=             -0.9619  Tot=              4.7400
 Quadrupole moment (field-independent basis, Debye-Ang):
   XX=           -109.8609   YY=           -107.7405   ZZ=            -89.8099
   XY=              7.5466   XZ=             -2.6324   YZ=             -2.6981

 Summary of Natural Population Analysis:

                                       Natural Population
                Natural  -----------------------------------------------
    Atom  No    Charge         Core      Valence    Rydberg      Total
 -----------------------------------------------------------------------
      C    1   -0.29453      0.99965     2.28989    0.00499     3.29453
      C    2   -0.25249      0.99960     2.24411    0.00878     3.25249
      S    3    0.08386      4.99963     2.89760    0.01891     7.91614
      C    4   -0.25241      0.99958     2.24020    0.01263     3.25241
      C    5   -0.24139      0.99956     2.23146    0.01037     3.24139
      C    6    0.34032      0.99966     1.63472    0.02530     2.65968
      O    7   -0.33164      0.99987     3.32554    0.00622     4.33164
      N    8   -0.22314      0.99965     2.71026    0.01323     3.72314
      N    9   -0.17580      0.99973     2.65939    0.01668     3.67580
      N   10    0.15180      0.99970     2.33312    0.01539     3.34820
      N   11    0.06447      0.99981     2.42226    0.01346     3.43553
      H   12    0.09473      0.00000     0.40388    0.00140     0.40527
      H   13    0.09652      0.00000     0.40234    0.00114     0.40348
      H   14    0.10923      0.00000     0.38960    0.00116     0.39077
      H   15    0.09955      0.00000     0.39928    0.00117     0.40045
      H   16    0.10965      0.00000     0.38862    0.00174     0.39035
      H   17    0.10496      0.00000     0.39346    0.00157     0.39504
      H   18    0.10587      0.00000     0.39286    0.00127     0.39413
      H   19    0.10958      0.00000     0.38856    0.00186     0.39042
      H   20    0.11633      0.00000     0.38191    0.00177     0.38367
      H   21    0.18453      0.00000     0.31149    0.00398     0.31547
 =======================================================================
   * Total *    0.00000     14.99646    30.84052    0.16302    46.00000

 Normal termination of Gaussian 16 at Tue Dec  8 20:10:50 2020.
