 Gaussian 16, Revision A.03,

 -----------------------------------------------------------
 # opt freq B3LYP/6-31G(d) empiricaldispersion=gd3bj scf=xqc
 -----------------------------------------------------------

 ------------------------------
 CID_83013397_JID_4118_neutraal
 ------------------------------
 Symbolic Z-matrix:
 Charge =  0 Multiplicity = 1

 SCF Done:  E(RB3LYP) =  -644.404460717     A.U. after   15 cycles
 SCF Done:  E(RB3LYP) =  -644.410223271     A.U. after   12 cycles
 SCF Done:  E(RB3LYP) =  -644.410733806     A.U. after   12 cycles
 SCF Done:  E(RB3LYP) =  -644.411004956     A.U. after   11 cycles
 SCF Done:  E(RB3LYP) =  -644.412216509     A.U. after   14 cycles
 SCF Done:  E(RB3LYP) =  -644.412609396     A.U. after   14 cycles
 SCF Done:  E(RB3LYP) =  -644.414137147     A.U. after   12 cycles
 SCF Done:  E(RB3LYP) =  -644.415633583     A.U. after   12 cycles
 SCF Done:  E(RB3LYP) =  -644.416088844     A.U. after   12 cycles
 SCF Done:  E(RB3LYP) =  -644.416163755     A.U. after   11 cycles
 SCF Done:  E(RB3LYP) =  -644.416227530     A.U. after   10 cycles
 SCF Done:  E(RB3LYP) =  -644.416231158     A.U. after    9 cycles
 SCF Done:  E(RB3LYP) =  -644.416232129     A.U. after    8 cycles
 SCF Done:  E(RB3LYP) =  -644.416232913     A.U. after    8 cycles
 SCF Done:  E(RB3LYP) =  -644.416233019     A.U. after    7 cycles
 Optimization completed.
    -- Stationary point found.
 Normal termination of Gaussian 16 at Thu Dec 10 09:18:55 2020.

 --------------------------------------------------------------------
 #N Geom=AllCheck Guess=TCheck SCRF=Check GenChk RB3LYP/6-31G(d) Freq
 --------------------------------------------------------------------

 Structure from the checkpoint file:  "JID_4118.chk"
 ------------------------------
 CID_83013397_JID_4118_neutraal
 ------------------------------
 Charge =  0 Multiplicity = 1

 SCF Done:  E(RB3LYP) =  -644.416233019     A.U. after    1 cycles

  Exact polarizability: 205.866   3.616 116.417   1.968  -5.354  64.540
 Approx polarizability: 275.319   9.634 208.295   7.564 -13.592  95.073

                      1                      2                      3
                      A                      A                      A
 Frequencies --     46.7972                50.7413               101.9467
 Red. masses --      4.1083                 3.0555                 3.7775
 Frc consts  --      0.0053                 0.0046                 0.0231
 IR Inten    --      1.7256                 2.2402                 2.5797

                      4                      5                      6
                      A                      A                      A
 Frequencies --    128.6528               203.4466               248.6043
 Red. masses --      4.8543                 5.2206                 1.7044
 Frc consts  --      0.0473                 0.1273                 0.0621
 IR Inten    --      0.7602                 1.9741                 2.3811

                      7                      8                      9
                      A                      A                      A
 Frequencies --    253.0255               258.5549               268.5415
 Red. masses --      1.0928                 1.7299                 1.0978
 Frc consts  --      0.0412                 0.0681                 0.0466
 IR Inten    --     21.4050                 0.2162                 0.9733

                     10                     11                     12
                      A                      A                      A
 Frequencies --    290.0073               334.2199               367.4659
 Red. masses --      5.4257                 2.8488                 3.8995
 Frc consts  --      0.2689                 0.1875                 0.3102
 IR Inten    --      2.8218                 3.7237                 2.2629

                     13                     14                     15
                      A                      A                      A
 Frequencies --    377.8197               427.1505               437.0914
 Red. masses --      4.5197                 2.4102                 2.8895
 Frc consts  --      0.3801                 0.2591                 0.3253
 IR Inten    --      2.7354                14.8273                 6.5738

                     16                     17                     18
                      A                      A                      A
 Frequencies --    457.2884               483.8446               564.2948
 Red. masses --      2.6917                 4.8211                 5.1730
 Frc consts  --      0.3316                 0.6650                 0.9705
 IR Inten    --      1.7202                 3.6899                 3.5212

                     19                     20                     21
                      A                      A                      A
 Frequencies --    611.4308               623.6700               658.2451
 Red. masses --      3.0126                 3.5208                 2.4439
 Frc consts  --      0.6636                 0.8069                 0.6239
 IR Inten    --    226.1317                11.9592               133.1952

                     22                     23                     24
                      A                      A                      A
 Frequencies --    681.1268               717.0527               738.4091
 Red. masses --      1.6131                 9.7256                 4.9035
 Frc consts  --      0.4409                 2.9462                 1.5753
 IR Inten    --    254.1548                16.2612                 4.4027

                     25                     26                     27
                      A                      A                      A
 Frequencies --    781.9126               805.3493               816.6507
 Red. masses --      4.7744                 3.1900                 1.5444
 Frc consts  --      1.7198                 1.2190                 0.6069
 IR Inten    --      7.5710                16.6422                30.4554

                     28                     29                     30
                      A                      A                      A
 Frequencies --    832.6216               890.5705               898.2924
 Red. masses --      1.6245                 6.0898                 3.8662
 Frc consts  --      0.6635                 2.8457                 1.8381
 IR Inten    --     66.3034                 4.2348                79.3479

                     31                     32                     33
                      A                      A                      A
 Frequencies --    928.7119               970.9133               999.3368
 Red. masses --      1.2758                 3.0748                 5.9733
 Frc consts  --      0.6483                 1.7077                 3.5147
 IR Inten    --      0.6852                 7.1249                41.2573

                     34                     35                     36
                      A                      A                      A
 Frequencies --   1049.7077              1091.9186              1116.5340
 Red. masses --      1.6637                 2.6297                 1.4464
 Frc consts  --      1.0801                 1.8473                 1.0624
 IR Inten    --     17.7715                34.6520                 0.9143

                     37                     38                     39
                      A                      A                      A
 Frequencies --   1134.2809              1156.5839              1172.2273
 Red. masses --      1.2416                 1.9272                 1.7248
 Frc consts  --      0.9412                 1.5189                 1.3964
 IR Inten    --      3.2613                50.9246                50.4792

                     40                     41                     42
                      A                      A                      A
 Frequencies --   1195.5324              1244.2271              1268.7270
 Red. masses --      1.4912                 2.2197                 3.5371
 Frc consts  --      1.2558                 2.0246                 3.3546
 IR Inten    --     15.4508                18.5749                91.0448

                     43                     44                     45
                      A                      A                      A
 Frequencies --   1280.3533              1301.6726              1317.7422
 Red. masses --      3.3210                 2.6821                 2.0552
 Frc consts  --      3.2076                 2.6775                 2.1027
 IR Inten    --     76.7945                 6.3686                14.1197

                     46                     47                     48
                      A                      A                      A
 Frequencies --   1339.5547              1407.1629              1460.8302
 Red. masses --      2.8009                 5.1983                 1.1654
 Frc consts  --      2.9612                 6.0645                 1.4653
 IR Inten    --     28.9847                 3.7623                 0.7283

                     49                     50                     51
                      A                      A                      A
 Frequencies --   1481.8294              1501.9170              1510.1596
 Red. masses --      1.2104                 3.4547                 1.0747
 Frc consts  --      1.5660                 4.5915                 1.4441
 IR Inten    --      3.2013                47.1824                15.1352

                     52                     53                     54
                      A                      A                      A
 Frequencies --   1517.0823              1520.2845              1535.0934
 Red. masses --      1.0515                 1.1203                 1.0592
 Frc consts  --      1.4258                 1.5255                 1.4707
 IR Inten    --      2.7160                 2.8227                 1.5688

                     55                     56                     57
                      A                      A                      A
 Frequencies --   1541.5155              1554.8216              1638.9829
 Red. masses --      2.6489                 1.5662                 7.6354
 Frc consts  --      3.7086                 2.2307                12.0846
 IR Inten    --     69.6827               115.1285               112.8398

                     58                     59                     60
                      A                      A                      A
 Frequencies --   1688.3327              1699.6231              1708.2496
 Red. masses --      1.8217                 2.1483                 9.9035
 Frc consts  --      3.0595                 3.6564                17.0272
 IR Inten    --     11.7586                68.9417               466.3249

                     61                     62                     63
                      A                      A                      A
 Frequencies --   2941.5466              2952.3072              3102.4730
 Red. masses --      1.0614                 1.0608                 1.0722
 Frc consts  --      5.4111                 5.4476                 6.0803
 IR Inten    --     46.8400               146.3473                13.1065

                     64                     65                     66
                      A                      A                      A
 Frequencies --   3107.5762              3154.3719              3159.7780
 Red. masses --      1.0716                 1.1040                 1.1042
 Frc consts  --      6.0972                 6.4723                 6.4957
 IR Inten    --     39.3695                14.2574                21.2067

                     67                     68                     69
                      A                      A                      A
 Frequencies --   3180.8837              3209.4686              3219.3865
 Red. masses --      1.0887                 1.0917                 1.0932
 Frc consts  --      6.4901                 6.6257                 6.6756
 IR Inten    --     20.3077                 9.7714                 8.8040

                     70                     71                     72
                      A                      A                      A
 Frequencies --   3393.4178              3540.4425              3637.5542
 Red. masses --      1.0737                 1.0482                 1.0972
 Frc consts  --      7.2849                 7.7414                 8.5538
 IR Inten    --     23.5200                 9.2916                 6.3709

 - Thermochemistry -
 -------------------
 Temperature   298.150 Kelvin.  Pressure   1.00000 Atm.
 Atom     1 has atomic number  6 and mass  12.00000

 Molecular mass:   192.10111 amu.
 Principal axes and moments of inertia in atomic units:
                           1         2         3
     Eigenvalues --   733.610015736.327016149.75491
           X            0.99999  -0.00004  -0.00462
           Y            0.00010   0.99993   0.01203
           Z            0.00462  -0.01203   0.99992
 This molecule is an asymmetric top.
 Rotational symmetry number  1.
 Warning -- assumption of classical behavior for rotation
           may cause significant error
 Rotational temperatures (Kelvin)      0.11807     0.01510     0.01408
 Rotational constants (GHZ):           2.46008     0.31462     0.29347
 Zero-point vibrational energy     557985.8 (Joules/Mol)
                                  133.36180 (Kcal/Mol)
 Warning -- explicit consideration of  19 degrees of freedom as
           vibrations may cause significant error
 Vibrational temperatures:     67.33    73.01   146.68   185.10   292.71
          (Kelvin)            357.69   364.05   372.00   386.37   417.26
                              480.87   528.70   543.60   614.57   628.88
                              657.94   696.14   811.89   879.71   897.32
                              947.07   979.99  1031.68  1062.41  1125.00
                             1158.72  1174.98  1197.96  1281.33  1292.44
                             1336.21  1396.93  1437.82  1510.30  1571.03
                             1606.44  1631.98  1664.07  1686.57  1720.10
                             1790.17  1825.42  1842.14  1872.82  1895.94
                             1927.32  2024.59  2101.81  2132.02  2160.92
                             2172.78  2182.74  2187.35  2208.66  2217.90
                             2237.04  2358.13  2429.13  2445.38  2457.79
                             4232.23  4247.71  4463.77  4471.11  4538.44
                             4546.22  4576.58  4617.71  4631.98  4882.37
                             5093.91  5233.63

 Zero-point correction=                           0.212526 (Hartree/Particle)
 Thermal correction to Energy=                    0.225209
 Thermal correction to Enthalpy=                  0.226153
 Thermal correction to Gibbs Free Energy=         0.173424
 Sum of electronic and zero-point Energies=           -644.203707
 Sum of electronic and thermal Energies=              -644.191024
 Sum of electronic and thermal Enthalpies=            -644.190080
 Sum of electronic and thermal Free Energies=         -644.242809

                     E (Thermal)             CV                S
                      KCal/Mol        Cal/Mol-Kelvin    Cal/Mol-Kelvin
 Total                  141.321             49.274            110.976
 Electronic               0.000              0.000              0.000
 Translational            0.889              2.981             41.664
 Rotational               0.889              2.981             31.626
 Vibrational            139.543             43.313             37.686
 Vibration     1          0.595              1.979              4.948
 Vibration     2          0.595              1.977              4.788
 Vibration     3          0.604              1.948              3.417
 Vibration     4          0.611              1.925              2.966
 Vibration     5          0.639              1.835              2.102
 Vibration     6          0.662              1.765              1.740
 Vibration     7          0.664              1.758              1.709
 Vibration     8          0.667              1.748              1.672
 Vibration     9          0.673              1.731              1.606
 Vibration    10          0.686              1.692              1.474
 Vibration    11          0.716              1.607              1.240
 Vibration    12          0.740              1.539              1.090
 Vibration    13          0.748              1.517              1.048
 Vibration    14          0.789              1.411              0.868
 Vibration    15          0.797              1.389              0.836
 Vibration    16          0.815              1.345              0.774
 Vibration    17          0.840              1.286              0.700
 Vibration    18          0.920              1.109              0.515
 Vibration    19          0.971              1.008              0.430

                           ! Non-Optimized Parameters !
 Normal termination of Gaussian 16 at Thu Dec 10 09:24:55 2020.

 ----------------------------------------------------------------------
 # B3LYP/6-311++G(d,p) empiricaldispersion=gd3bj scf=xqc pop=npa geom=c
 heck
 ----------------------------------------------------------------------

 --------------------------------------
 CID_83013397_JID_4118_Energie_neutraal
 --------------------------------------
 Structure from the checkpoint file:  "JID_4118.chk"
 Charge =  0 Multiplicity = 1

 SCF Done:  E(RB3LYP) =  -644.599415081     A.U. after   15 cycles
 Normal termination of Gaussian 16 at Thu Dec 10 09:27:14 2020.

 ----------------------------------------------------------------------
 # B3LYP/6-311++G(d,p) empiricaldispersion=gd3bj scf=xqc pop=npa geom=c
 heck
 ----------------------------------------------------------------------

 ------------------------------------
 CID_83013397_JID_4118_Energie_kation
 ------------------------------------
 Structure from the checkpoint file:  "JID_4118.chk"
 Charge =  1 Multiplicity = 2

 SCF Done:  E(UB3LYP) =  -644.341528364     A.U. after   21 cycles
 Normal termination of Gaussian 16 at Thu Dec 10 09:31:31 2020.
 Gaussian 16:  ES64L-G16RevA.03 25-Dec-2016

 ----------------------------------------------------------------------
 # B3LYP/6-311++G(d,p) empiricaldispersion=gd3bj scf=xqc pop=npa geom=c
 heck
 ----------------------------------------------------------------------

 -----------------------------------
 CID_83013397_JID_4118_Energie_anion
 -----------------------------------
 Structure from the checkpoint file:  "JID_4118.chk"
 Charge = -1 Multiplicity = 2

                         Standard orientation:
 ---------------------------------------------------------------------
 Center     Atomic      Atomic             Coordinates (Angstroms)
 Number     Number       Type             X           Y           Z
 ---------------------------------------------------------------------
      1          6           0       -4.547648   -0.252242   -0.774533
      2          7           0       -3.357628    0.231779   -0.093979
      3          6           0       -3.593124    0.605401    1.296503
      4          7           0       -2.337306   -0.730705   -0.209870
      5          6           0       -1.046759   -0.263927   -0.155991
      6          7           0       -0.589076    0.939558   -0.279202
      7          6           0        0.802973    0.771024   -0.189079
      8          6           0        1.094159   -0.585924    0.001919
      9          8           0       -0.110209   -1.265928    0.025641
     10          6           0        2.365439   -1.107889    0.134746
     11          6           0        3.426156   -0.184325    0.070925
     12          6           0        3.157315    1.187705   -0.119535
     13          6           0        1.857499    1.678587   -0.250070
     14          7           0        4.747396   -0.621729    0.259006
     15          1           0       -5.309460    0.532344   -0.748881
     16          1           0       -4.973296   -1.162122   -0.307991
     17          1           0       -4.297789   -0.475017   -1.813891
     18          1           0       -3.932751   -0.246779    1.916342
     19          1           0       -2.668515    1.011553    1.713437
     20          1           0       -4.359257    1.385454    1.328972
     21          1           0       -2.471986   -1.587588    0.335492
     22          1           0        2.541171   -2.168044    0.286131
     23          1           0        3.994912    1.879611   -0.159713
     24          1           0        1.672215    2.737167   -0.399236
     25          1           0        4.905169   -1.584938   -0.012778
     26          1           0        5.441504   -0.017000   -0.164015
 ---------------------------------------------------------------------

 SCF Done:  E(UB3LYP) =  -644.588118464     A.U. after   33 cycles
 SCF Done:  E(UB3LYP) =  -644.588118465     a.u. after    1 cycles

 The electronic state is 2-A.
 Alpha  occ. eigenvalues --  -19.09922 -14.27401 -14.25742 -14.21828 -14.20654
 Alpha  occ. eigenvalues --  -10.20111 -10.13750 -10.12180 -10.10167 -10.10164
 Alpha  occ. eigenvalues --  -10.10047 -10.08385 -10.08172 -10.07579  -1.03640
 Alpha  occ. eigenvalues --   -0.92355  -0.82995  -0.82213  -0.76979  -0.73280
 Alpha  occ. eigenvalues --   -0.65946  -0.62940  -0.62448  -0.56836  -0.52581
 Alpha  occ. eigenvalues --   -0.52145  -0.50154  -0.45776  -0.43828  -0.41552
 Alpha  occ. eigenvalues --   -0.40664  -0.39948  -0.39387  -0.37093  -0.35621
 Alpha  occ. eigenvalues --   -0.35163  -0.34623  -0.32001  -0.31188  -0.30812
 Alpha  occ. eigenvalues --   -0.30071  -0.28727  -0.28382  -0.26488  -0.24776
 Alpha  occ. eigenvalues --   -0.23044  -0.19706  -0.17541  -0.15466  -0.14807
 Alpha  occ. eigenvalues --   -0.09871   0.03954
 Alpha virt. eigenvalues --    0.05042   0.07268   0.07617   0.07717   0.07941
 Alpha virt. eigenvalues --    0.08598   0.09813   0.10097   0.10286   0.10935
 Alpha virt. eigenvalues --    0.11595   0.11851   0.12631   0.13248   0.13812

  Beta  occ. eigenvalues --  -19.09915 -14.27377 -14.25731 -14.21763 -14.20653
  Beta  occ. eigenvalues --  -10.20101 -10.13749 -10.12171 -10.10162 -10.10128
  Beta  occ. eigenvalues --  -10.10012 -10.08382 -10.08157 -10.07570  -1.03630
  Beta  occ. eigenvalues --   -0.92326  -0.82984  -0.82144  -0.76946  -0.73244
  Beta  occ. eigenvalues --   -0.65929  -0.62888  -0.62395  -0.56788  -0.52534
  Beta  occ. eigenvalues --   -0.52100  -0.50112  -0.45720  -0.43794  -0.41508
  Beta  occ. eigenvalues --   -0.40628  -0.39898  -0.39340  -0.37048  -0.35572
  Beta  occ. eigenvalues --   -0.35130  -0.34585  -0.31969  -0.31142  -0.30768
  Beta  occ. eigenvalues --   -0.30042  -0.28689  -0.28346  -0.26471  -0.24762
  Beta  occ. eigenvalues --   -0.23006  -0.19698  -0.17504  -0.15440  -0.14746
  Beta  occ. eigenvalues --   -0.09830
  Beta virt. eigenvalues --    0.06201   0.06683   0.07624   0.08020   0.08117
  Beta virt. eigenvalues --    0.08660   0.09135   0.09988   0.10490   0.10685
  Beta virt. eigenvalues --    0.11300   0.11995   0.12130   0.12853   0.13608

 Mulliken charges and spin densities:
               1          2
     1  C    0.737630  -1.063236
     2  N   -0.093082   0.271703
     3  C    0.422011  -0.813610
     4  N   -0.336540  -0.003157
     5  C    1.343060  -0.928231
     6  N   -0.091395  -0.014910
     7  C    1.075422  -0.643154
     8  C    2.401962  -1.638039
     9  O   -0.097228  -0.002265
    10  C   -3.587746   2.487390
    11  C    0.035687  -0.707128
    12  C    1.496238  -1.238837
    13  C   -2.097423   1.262693
    14  N   -0.231705  -0.055470
    15  H   -0.210710   0.365962
    16  H   -0.389965   0.511726
    17  H   -0.042090   0.210726
    18  H   -0.292395   0.422469
    19  H    0.022342   0.134148
    20  H   -0.132560   0.279490
    21  H    0.082161   0.166110
    22  H   -0.359249   0.539035
    23  H   -0.136989   0.293890
    24  H    0.080988   0.077138
    25  H   -0.377033   0.623374
    26  H   -0.221392   0.462185
 Sum of Mulliken charges =  -1.00000   1.00000

 Dipole moment (field-independent basis, Debye):
    X=             -1.3089    Y=              2.0344    Z=             -0.3546  Tot=              2.4450
 Quadrupole moment (field-independent basis, Debye-Ang):
   XX=           -206.5592   YY=           -114.2319   ZZ=           -108.9717
   XY=              6.9470   XZ=              3.5435   YZ=              1.5694

 Summary of Natural Population Analysis:

                                       Natural Population
                Natural  -----------------------------------------------
    Atom  No    Charge         Core      Valence    Rydberg      Total
 -----------------------------------------------------------------------
      C    1   -0.17663      0.99965     2.16816    0.00882     3.17663
      N    2   -0.17233      0.99973     2.65847    0.01412     3.67233
      C    3   -0.18383      0.99964     2.17576    0.00843     3.18383
      N    4   -0.22856      0.99964     2.71585    0.01306     3.72856
      C    5    0.35620      0.99960     1.62339    0.02081     2.64380
      N    6   -0.26830      0.99965     2.76016    0.00849     3.76830
      C    7    0.02976      0.99943     1.95847    0.01235     2.97024
      C    8    0.14553      0.99934     1.84230    0.01283     2.85447
      O    9   -0.25166      0.99985     3.24523    0.00657     4.25166
      C   10   -0.14487      0.99947     2.13602    0.00937     3.14487
      C   11    0.08570      0.99952     1.90365    0.01113     2.91430
      C   12   -0.12985      0.99954     2.12036    0.00995     3.12985
      C   13   -0.09668      0.99953     2.08888    0.00827     3.09668
      N   14   -0.39653      0.99972     2.88589    0.01091     3.89653
      H   15    0.09802      0.00000     0.40073    0.00125     0.40198
      H   16    0.08309      0.00000     0.41468    0.00222     0.41691
      H   17    0.10063      0.00000     0.39817    0.00120     0.39937
      H   18    0.08305      0.00000     0.41488    0.00207     0.41695
      H   19    0.10266      0.00000     0.39607    0.00127     0.39734
      H   20    0.09900      0.00000     0.39992    0.00107     0.40100
      H   21    0.18140      0.00000     0.31520    0.00340     0.31860
      H   22    0.10757      0.00000     0.39097    0.00146     0.39243
      H   23    0.09978      0.00000     0.39934    0.00088     0.40022
      H   24    0.10306      0.00000     0.39566    0.00128     0.39694
      H   25    0.18722      0.00000     0.30696    0.00582     0.31278
      H   26    0.18656      0.00000     0.30866    0.00477     0.31344
 =======================================================================
   * Total *    0.00000     13.99431    36.82384    0.18184    51.00000

 Normal termination of Gaussian 16 at Thu Dec 10 09:38:13 2020.
