 Gaussian 16, Revision A.03,

 -----------------------------------------------------------
 # opt freq B3LYP/6-31G(d) empiricaldispersion=gd3bj scf=xqc
 -----------------------------------------------------------

 ------------------------------
 CID_84107300_JID_1715_neutraal
 ------------------------------
 Symbolic Z-matrix:
 Charge =  0 Multiplicity = 1

 SCF Done:  E(RB3LYP) =  -478.165078722     A.U. after   14 cycles
 SCF Done:  E(RB3LYP) =  -478.168558291     A.U. after   12 cycles
 SCF Done:  E(RB3LYP) =  -478.168915316     A.U. after   11 cycles
 SCF Done:  E(RB3LYP) =  -478.169252753     A.U. after   11 cycles
 SCF Done:  E(RB3LYP) =  -478.169492935     A.U. after   12 cycles
 SCF Done:  E(RB3LYP) =  -478.169672487     A.U. after   10 cycles
 SCF Done:  E(RB3LYP) =  -478.169727175     A.U. after   10 cycles
 SCF Done:  E(RB3LYP) =  -478.169741306     A.U. after   10 cycles
 SCF Done:  E(RB3LYP) =  -478.169744821     A.U. after    9 cycles
 SCF Done:  E(RB3LYP) =  -478.169746849     A.U. after    9 cycles
 SCF Done:  E(RB3LYP) =  -478.169746985     A.U. after    6 cycles
 SCF Done:  E(RB3LYP) =  -478.169747163     A.U. after    7 cycles
 SCF Done:  E(RB3LYP) =  -478.169747265     A.U. after    7 cycles
 SCF Done:  E(RB3LYP) =  -478.169747401     A.U. after    7 cycles
 SCF Done:  E(RB3LYP) =  -478.169747477     A.U. after    6 cycles
 SCF Done:  E(RB3LYP) =  -478.169747519     A.U. after    6 cycles
 Optimization completed.
    -- Stationary point found.

 1\1\GINC-NODE313\FOpt\RB3LYP\6-31G(d)\C8H15N3\VSC10255\08-Dec-2020\0\\
 # opt freq B3LYP/6-31G(d) empiricaldispersion=gd3bj scf=xqc\\CID_84107
 300_JID_1715_neutraal\\0,1\C,1.0012049697,0.0975930438,-0.2406819051\C
 ,1.0186597857,-0.9183517361,-1.3960753485\C,1.2788594314,-2.3222610168
 ,-0.9477774652\N,0.3535444445,-3.2533282007,-0.811714066\C,1.008064049
 5,-4.369268517,-0.3367690125\C,2.3479757136,-4.1166147515,-0.173900987
 3\N,2.518847859,-2.7958639159,-0.5703108225\C,3.7774368824,-2.07524606
 68,-0.5737664137\C,3.4718139331,-4.9768783356,0.3095774149\N,2.9466332

 Normal termination of Gaussian 16 at Tue Dec  8 20:55:34 2020.

 --------------------------------------------------------------------
 #N Geom=AllCheck Guess=TCheck SCRF=Check GenChk RB3LYP/6-31G(d) Freq
 --------------------------------------------------------------------

 Structure from the checkpoint file:  "JID_1715.chk"
 ------------------------------
 CID_84107300_JID_1715_neutraal
 ------------------------------
 Charge =  0 Multiplicity = 1

 SCF Done:  E(RB3LYP) =  -478.169747519     A.U. after    1 cycles

  Exact polarizability: 135.501   0.040 101.160   0.233  -1.696  70.934
 Approx polarizability: 166.497   2.433 162.984   1.562  -3.970 103.744

                      1                      2                      3
                      A                      A                      A
 Frequencies --     49.5050                72.9739                92.7422
 Red. masses --      3.0321                 1.9603                 1.7468
 Frc consts  --      0.0044                 0.0062                 0.0089
 IR Inten    --      0.3322                 0.9391                 1.1183

                      4                      5                      6
                      A                      A                      A
 Frequencies --    105.9994               118.2545               129.7470
 Red. masses --      1.7865                 1.9089                 3.0422
 Frc consts  --      0.0118                 0.0157                 0.0302
 IR Inten    --      0.1396                 0.1941                 1.6758

                      7                      8                      9
                      A                      A                      A
 Frequencies --    198.0151               215.0339               252.7067
 Red. masses --      2.7322                 1.1428                 1.5928
 Frc consts  --      0.0631                 0.0311                 0.0599
 IR Inten    --      0.8608                 0.3197                 0.7657

                     10                     11                     12
                      A                      A                      A
 Frequencies --    259.3976               294.9869               326.6823
 Red. masses --      1.8613                 3.4834                 2.1755
 Frc consts  --      0.0738                 0.1786                 0.1368
 IR Inten    --      2.7175                 0.7582                 0.6488

                     13                     14                     15
                      A                      A                      A
 Frequencies --    339.8058               414.8891               502.1194
 Red. masses --      3.1179                 4.0741                 3.0426
 Frc consts  --      0.2121                 0.4132                 0.4520
 IR Inten    --      1.7534                 2.9053                 3.8335

                     16                     17                     18
                      A                      A                      A
 Frequencies --    622.7964               651.6897               713.1792
 Red. masses --      3.8272                 3.8688                 5.2171
 Frc consts  --      0.8746                 0.9681                 1.5634
 IR Inten    --      0.6360                 5.0594                 3.9011

                     19                     20                     21
                      A                      A                      A
 Frequencies --    739.5706               778.8668               804.4686
 Red. masses --      3.8289                 2.4050                 1.3438
 Frc consts  --      1.2339                 0.8596                 0.5124
 IR Inten    --      2.3039                15.7289                31.2301

                     22                     23                     24
                      A                      A                      A
 Frequencies --    816.2087               845.6941               966.8020
 Red. masses --      1.5168                 1.2828                 2.8078
 Frc consts  --      0.5953                 0.5406                 1.5463
 IR Inten    --     37.1246                13.9520                11.1668

                     25                     26                     27
                      A                      A                      A
 Frequencies --    989.1957              1002.8452              1019.3465
 Red. masses --      2.1995                 2.2243                 1.4490
 Frc consts  --      1.2681                 1.3180                 0.8871
 IR Inten    --      0.8190                 5.3866                13.2681

                     28                     29                     30
                      A                      A                      A
 Frequencies --   1073.3851              1094.2923              1151.3744
 Red. masses --      1.5712                 1.7566                 2.0381
 Frc consts  --      1.0666                 1.2393                 1.5919
 IR Inten    --     22.0195                 5.0429                 9.8830

                     31                     32                     33
                      A                      A                      A
 Frequencies --   1156.8885              1166.2239              1174.6950
 Red. masses --      1.3084                 1.7564                 1.5647
 Frc consts  --      1.0317                 1.4075                 1.2721
 IR Inten    --      0.7581                22.0427                 8.3409

                     34                     35                     36
                      A                      A                      A
 Frequencies --   1190.1620              1205.2785              1232.2414
 Red. masses --      2.0694                 2.0115                 3.3408
 Frc consts  --      1.7270                 1.7216                 2.9888
 IR Inten    --     10.8330                14.9423                 1.7035

                     37                     38                     39
                      A                      A                      A
 Frequencies --   1286.9873              1302.1082              1313.1967
 Red. masses --      1.4127                 1.3058                 2.3296
 Frc consts  --      1.3787                 1.3044                 2.3670
 IR Inten    --      2.9992                 4.8335                13.4722

                     40                     41                     42
                      A                      A                      A
 Frequencies --   1367.3933              1381.4935              1426.7080
 Red. masses --      1.5005                 2.2777                 2.5728
 Frc consts  --      1.6530                 2.5613                 3.0856
 IR Inten    --     17.3737                 6.9924                19.8725

                     43                     44                     45
                      A                      A                      A
 Frequencies --   1436.3042              1461.0144              1484.0286
 Red. masses --      1.2846                 1.7550                 1.1829
 Frc consts  --      1.5614                 2.2071                 1.5349
 IR Inten    --      3.2451                36.4555                 1.1408

                     46                     47                     48
                      A                      A                      A
 Frequencies --   1499.9516              1508.6186              1513.8163
 Red. masses --      1.3556                 1.2724                 1.1826
 Frc consts  --      1.7969                 1.7062                 1.5967
 IR Inten    --     18.1563                42.1784                 7.5796

                     49                     50                     51
                      A                      A                      A
 Frequencies --   1517.5419              1519.9612              1528.3839
 Red. masses --      1.0647                 1.1281                 1.0600
 Frc consts  --      1.4447                 1.5356                 1.4589
 IR Inten    --      2.2742                 6.8446                 3.2702

                     52                     53                     54
                      A                      A                      A
 Frequencies --   1533.2192              1539.5923              1541.6118
 Red. masses --      1.2182                 1.1263                 1.0737
 Frc consts  --      1.6873                 1.5729                 1.5035
 IR Inten    --     11.5413                 4.7102                19.8618

                     55                     56                     57
                      A                      A                      A
 Frequencies --   1549.2709              1556.9584              1619.0517
 Red. masses --      1.1299                 2.9704                 5.7549
 Frc consts  --      1.5979                 4.2425                 8.8880
 IR Inten    --      5.8635                15.6997                 5.4961

                     58                     59                     60
                      A                      A                      A
 Frequencies --   2889.4128              2947.1523              3001.5289
 Red. masses --      1.0750                 1.0618                 1.0819
 Frc consts  --      5.2879                 5.4336                 5.7428
 IR Inten    --     76.5040               110.2308                38.6233

                     61                     62                     63
                      A                      A                      A
 Frequencies --   3037.1990              3051.1222              3055.0853
 Red. masses --      1.0702                 1.0356                 1.0390
 Frc consts  --      5.8166                 5.6800                 5.7136
 IR Inten    --     32.0055                24.2002                48.2522

                     64                     65                     66
                      A                      A                      A
 Frequencies --   3073.9352              3107.2010              3113.7084
 Red. masses --      1.0731                 1.0976                 1.1026
 Frc consts  --      5.9744                 6.2437                 6.2983
 IR Inten    --     43.9435                11.2864                20.1008

                     67                     68                     69
                      A                      A                      A
 Frequencies --   3123.8043              3125.2776              3133.4958
 Red. masses --      1.0975                 1.1014                 1.1025
 Frc consts  --      6.3100                 6.3384                 6.3780
 IR Inten    --     41.6964                30.8693                28.6740

                     70                     71                     72
                      A                      A                      A
 Frequencies --   3170.1665              3272.7873              3499.6792
 Red. masses --      1.0993                 1.0966                 1.0741
 Frc consts  --      6.5093                 6.9202                 7.7509
 IR Inten    --     11.4520                 6.7823                 0.0770

 - Thermochemistry -
 -------------------
 Temperature   298.150 Kelvin.  Pressure   1.00000 Atm.
 Atom     1 has atomic number  6 and mass  12.00000

 Molecular mass:   153.12660 amu.
 Principal axes and moments of inertia in atomic units:
                           1         2         3
     Eigenvalues --   694.969083248.702823669.89520
           X            0.99999  -0.00398  -0.00251
           Y            0.00395   0.99991  -0.01298
           Z            0.00256   0.01297   0.99991
 This molecule is an asymmetric top.
 Rotational symmetry number  1.
 Warning -- assumption of classical behavior for rotation
           may cause significant error
 Rotational temperatures (Kelvin)      0.12463     0.02666     0.02360
 Rotational constants (GHZ):           2.59687     0.55553     0.49177
 Zero-point vibrational energy     605650.4 (Joules/Mol)
                                  144.75391 (Kcal/Mol)
 Warning -- explicit consideration of  15 degrees of freedom as
           vibrations may cause significant error
 Vibrational temperatures:     71.23   104.99   133.44   152.51   170.14
          (Kelvin)            186.68   284.90   309.39   363.59   373.22
                              424.42   470.02   488.90   596.93   722.44
                              896.07   937.64  1026.11  1064.08  1120.62
                             1157.45  1174.34  1216.77  1391.01  1423.23
                             1442.87  1466.61  1544.36  1574.44  1656.57
                             1664.50  1677.94  1690.12  1712.38  1734.13
                             1772.92  1851.69  1873.44  1889.40  1967.37
                             1987.66  2052.71  2066.52  2102.07  2135.19
                             2158.10  2170.57  2178.04  2183.40  2186.89
                             2199.00  2205.96  2215.13  2218.04  2229.06
                             2240.12  2329.45  4157.22  4240.29  4318.53
                             4369.85  4389.88  4395.59  4422.71  4470.57
                             4479.93  4494.46  4496.58  4508.40  4561.16
                             4708.81  5035.26

 Zero-point correction=                           0.230680 (Hartree/Particle)
 Thermal correction to Energy=                    0.242994
 Thermal correction to Enthalpy=                  0.243938
 Thermal correction to Gibbs Free Energy=         0.191816
 Sum of electronic and zero-point Energies=           -477.939067
 Sum of electronic and thermal Energies=              -477.926753
 Sum of electronic and thermal Enthalpies=            -477.925809
 Sum of electronic and thermal Free Energies=         -477.977932

                     E (Thermal)             CV                S
                      KCal/Mol        Cal/Mol-Kelvin    Cal/Mol-Kelvin
 Total                  152.481             43.886            109.701
 Electronic               0.000              0.000              0.000
 Translational            0.889              2.981             40.988
 Rotational               0.889              2.981             30.495
 Vibrational            150.704             37.924             38.219
 Vibration     1          0.595              1.978              4.837
 Vibration     2          0.599              1.967              4.071
 Vibration     3          0.602              1.954              3.601
 Vibration     4          0.605              1.944              3.341
 Vibration     5          0.608              1.934              3.129
 Vibration     6          0.612              1.924              2.950
 Vibration     7          0.637              1.843              2.151
 Vibration     8          0.645              1.818              2.001
 Vibration     9          0.664              1.758              1.712
 Vibration    10          0.668              1.747              1.666
 Vibration    11          0.689              1.683              1.445
 Vibration    12          0.710              1.622              1.276
 Vibration    13          0.720              1.596              1.213
 Vibration    14          0.778              1.438              0.910
 Vibration    15          0.857              1.245              0.653

 Optimization completed.
    -- Stationary point found.

 1\1\GINC-NODE313\Freq\RB3LYP\6-31G(d)\C8H15N3\VSC10255\08-Dec-2020\0\\
 #N Geom=AllCheck Guess=TCheck SCRF=Check GenChk RB3LYP/6-31G(d) Freq\\
 CID_84107300_JID_1715_neutraal\\0,1\C,1.0012049697,0.0975930438,-0.240
 6819051\C,1.0186597857,-0.9183517361,-1.3960753485\C,1.2788594314,-2.3
 222610168,-0.9477774652\N,0.3535444445,-3.2533282007,-0.811714066\C,1.
 0080640495,-4.369268517,-0.3367690125\C,2.3479757136,-4.1166147515,-0.
 1739009873\N,2.518847859,-2.7958639159,-0.5703108225\C,3.7774368824,-2
 .0752460668,-0.5737664137\C,3.4718139331,-4.9768783356,0.3095774149\N,

 Normal termination of Gaussian 16 at Tue Dec  8 21:01:47 2020.

 ----------------------------------------------------------------------
 # B3LYP/6-311++G(d,p) empiricaldispersion=gd3bj scf=xqc pop=npa geom=c
 heck
 ----------------------------------------------------------------------

 --------------------------------------
 CID_84107300_JID_1715_Energie_neutraal
 --------------------------------------
 Structure from the checkpoint file:  "JID_1715.chk"
 Charge =  0 Multiplicity = 1

 SCF Done:  E(RB3LYP) =  -478.303929563     A.U. after   14 cycles
 Normal termination of Gaussian 16 at Tue Dec  8 21:04:06 2020.

 ----------------------------------------------------------------------
 # B3LYP/6-311++G(d,p) empiricaldispersion=gd3bj scf=xqc pop=npa geom=c
 heck
 ----------------------------------------------------------------------

 ------------------------------------
 CID_84107300_JID_1715_Energie_kation
 ------------------------------------
 Structure from the checkpoint file:  "JID_1715.chk"
 Charge =  1 Multiplicity = 2

 SCF Done:  E(UB3LYP) =  -478.019318548     A.U. after   22 cycles
 Normal termination of Gaussian 16 at Tue Dec  8 21:08:42 2020.
 Gaussian 16:  ES64L-G16RevA.03 25-Dec-2016

 -----------------------------------
 CID_84107300_JID_1715_Energie_anion
 -----------------------------------
 Structure from the checkpoint file:  "JID_1715.chk"
 Charge = -1 Multiplicity = 2

                         Standard orientation:
 ---------------------------------------------------------------------
 Center     Atomic      Atomic             Coordinates (Angstroms)
 Number     Number       Type             X           Y           Z
 ---------------------------------------------------------------------
      1          6           0       -3.574111    0.325012    1.051605
      2          6           0       -3.044361   -0.169835   -0.305551
      3          6           0       -1.581222   -0.483984   -0.292526
      4          7           0       -1.072330   -1.699455   -0.219946
      5          6           0        0.295475   -1.534455   -0.185657
      6          6           0        0.627564   -0.202772   -0.231034
      7          7           0       -0.585425    0.471350   -0.301292
      8          6           0       -0.744329    1.911364   -0.368063
      9          6           0        1.950577    0.494523   -0.215692
     10          7           0        2.983570   -0.403021    0.283066
     11          6           0        4.289021    0.233728    0.374585
     12          1           0       -3.377948   -0.420374    1.828729
     13          1           0       -4.654458    0.501989    1.007753
     14          1           0       -3.092320    1.260851    1.357366
     15          1           0       -3.553563   -1.096953   -0.582867
     16          1           0       -3.279108    0.565501   -1.087424
     17          1           0        0.971922   -2.375938   -0.141153
     18          1           0       -0.497025    2.385495    0.588875
     19          1           0       -0.097975    2.332042   -1.144590
     20          1           0       -1.778907    2.149665   -0.616776
     21          1           0        2.243985    0.804901   -1.231328
     22          1           0        1.877639    1.434840    0.371014
     23          1           0        2.697640   -0.748896    1.196773
     24          1           0        4.300049    1.164289    0.973877
     25          1           0        5.006073   -0.466704    0.813593
     26          1           0        4.641613    0.485674   -0.632645
 ---------------------------------------------------------------------

 SCF Done:  E(UB3LYP) =  -478.293458662     A.U. after   30 cycles

 The electronic state is 2-A.
 Alpha  occ. eigenvalues --  -14.26016 -14.20314 -14.18052 -10.11670 -10.10419
 Alpha  occ. eigenvalues --  -10.10203 -10.09184 -10.08998 -10.07946 -10.06854
 Alpha  occ. eigenvalues --  -10.06580  -0.90841  -0.81147  -0.77668  -0.69404
 Alpha  occ. eigenvalues --   -0.64920  -0.61002  -0.58816  -0.54464  -0.52825
 Alpha  occ. eigenvalues --   -0.47840  -0.44517  -0.41302  -0.38512  -0.37319
 Alpha  occ. eigenvalues --   -0.35744  -0.35038  -0.33683  -0.32366  -0.31925
 Alpha  occ. eigenvalues --   -0.30269  -0.29997  -0.29129  -0.28144  -0.27374
 Alpha  occ. eigenvalues --   -0.26390  -0.25646  -0.25078  -0.16496  -0.16225
 Alpha  occ. eigenvalues --   -0.13413  -0.11170   0.04285
 Alpha virt. eigenvalues --    0.06400   0.07563   0.08284   0.09017   0.09407
 Alpha virt. eigenvalues --    0.09789   0.10892   0.11134   0.11698   0.11909
 Alpha virt. eigenvalues --    0.12786   0.12956   0.13584   0.14103   0.14716

  Beta  occ. eigenvalues --  -14.26008 -14.20303 -14.18045 -10.11669 -10.10350
  Beta  occ. eigenvalues --  -10.10172 -10.09179 -10.08964 -10.07931 -10.06855
  Beta  occ. eigenvalues --  -10.06550  -0.90824  -0.81125  -0.77647  -0.69377
  Beta  occ. eigenvalues --   -0.64879  -0.60917  -0.58771  -0.54386  -0.52772
  Beta  occ. eigenvalues --   -0.47820  -0.44456  -0.41253  -0.38463  -0.37272
  Beta  occ. eigenvalues --   -0.35691  -0.35003  -0.33648  -0.32325  -0.31873
  Beta  occ. eigenvalues --   -0.30227  -0.29955  -0.29094  -0.28098  -0.27334
  Beta  occ. eigenvalues --   -0.26353  -0.25614  -0.25051  -0.16463  -0.16194
  Beta  occ. eigenvalues --   -0.13381  -0.11147
  Beta virt. eigenvalues --    0.06725   0.07192   0.08393   0.09092   0.09298
  Beta virt. eigenvalues --    0.09802   0.10316   0.11230   0.11696   0.12038
  Beta virt. eigenvalues --    0.12142   0.13019   0.13207   0.14099   0.14323

 Mulliken charges and spin densities:
               1          2
     1  C    0.360273  -0.768830
     2  C   -0.943659   0.593901
     3  C    0.031215  -0.130295
     4  N   -0.096205   0.025523
     5  C   -0.042312  -0.109038
     6  C   -0.909635   1.137213
     7  N   -0.235950   0.315474
     8  C    1.714317  -2.127097
     9  C    1.016250  -1.793735
    10  N   -0.272891   0.172507
    11  C    0.779414  -1.087966
    12  H    0.044975   0.092127
    13  H   -0.307678   0.448893
    14  H   -0.045718   0.193082
    15  H    0.132812   0.032019
    16  H   -0.104416   0.257655
    17  H    0.125963   0.025483
    18  H   -0.689523   0.903989
    19  H   -0.537568   0.703541
    20  H   -0.444417   0.598606
    21  H   -0.023557   0.229298
    22  H    0.085368   0.067122
    23  H    0.098380   0.106669
    24  H   -0.397018   0.516848
    25  H   -0.098921   0.226503
    26  H   -0.239499   0.370508
 Sum of Mulliken charges =  -1.00000   1.00000

 Dipole moment (field-independent basis, Debye):
    X=             -0.4736    Y=             -4.8927    Z=             -0.0999  Tot=              4.9166
 Quadrupole moment (field-independent basis, Debye-Ang):
   XX=           -134.6373   YY=           -119.3322   ZZ=            -96.7690
   XY=             -1.1270   XZ=              0.2089   YZ=             -2.1791

 Summary of Natural Population Analysis:

                                       Natural Population
                Natural  -----------------------------------------------
    Atom  No    Charge         Core      Valence    Rydberg      Total
 -----------------------------------------------------------------------
      C    1   -0.28167      0.99966     2.27712    0.00489     3.28167
      C    2   -0.21360      0.99960     2.20484    0.00916     3.21360
      C    3    0.19372      0.99959     1.78770    0.01900     2.80628
      N    4   -0.26374      0.99970     2.75479    0.00925     3.76374
      C    5   -0.03727      0.99950     2.02499    0.01277     3.03727
      C    6    0.05821      0.99951     1.92899    0.01328     2.94179
      N    7   -0.20775      0.99959     2.69763    0.01053     3.70775
      C    8   -0.17749      0.99963     2.16908    0.00878     3.17749
      C    9   -0.09971      0.99960     2.08957    0.01054     3.09971
      N   10   -0.33327      0.99975     2.82187    0.01165     3.83327
      C   11   -0.17783      0.99967     2.16982    0.00835     3.17783
      H   12    0.09883      0.00000     0.40018    0.00098     0.40117
      H   13    0.09681      0.00000     0.40209    0.00110     0.40319
      H   14    0.09981      0.00000     0.39890    0.00129     0.40019
      H   15    0.10911      0.00000     0.38952    0.00137     0.39089
      H   16    0.10191      0.00000     0.39677    0.00132     0.39809
      H   17    0.09852      0.00000     0.40024    0.00124     0.40148
      H   18    0.10404      0.00000     0.39235    0.00360     0.39596
      H   19    0.10235      0.00000     0.39561    0.00205     0.39765
      H   20    0.10569      0.00000     0.39213    0.00217     0.39431
      H   21    0.09775      0.00000     0.40050    0.00175     0.40225
      H   22    0.08909      0.00000     0.40839    0.00252     0.41091
      H   23    0.17087      0.00000     0.32543    0.00370     0.32913
      H   24    0.08163      0.00000     0.41635    0.00203     0.41837
      H   25    0.09271      0.00000     0.40643    0.00086     0.40729
      H   26    0.09128      0.00000     0.40745    0.00126     0.40872
 =======================================================================
   * Total *   -0.00000     10.99581    30.85874    0.14545    42.00000

 Normal termination of Gaussian 16 at Tue Dec  8 21:13:51 2020.
