 Gaussian 16, Revision A.03,

 -----------------------------------------------------------
 # opt freq B3LYP/6-31G(d) empiricaldispersion=gd3bj scf=xqc
 -----------------------------------------------------------

 ------------------------------
 CID_84719125_JID_4639_neutraal
 ------------------------------
 Symbolic Z-matrix:
 Charge =  0 Multiplicity = 1

 SCF Done:  E(RB3LYP) =  -611.158051356     A.U. after   15 cycles
 SCF Done:  E(RB3LYP) =  -611.162836542     A.U. after   12 cycles
 SCF Done:  E(RB3LYP) =  -611.163676942     A.U. after   12 cycles
 SCF Done:  E(RB3LYP) =  -611.163836477     A.U. after   11 cycles
 SCF Done:  E(RB3LYP) =  -611.163856535     A.U. after   10 cycles
 SCF Done:  E(RB3LYP) =  -611.163868145     A.U. after    9 cycles
 SCF Done:  E(RB3LYP) =  -611.163872161     A.U. after    8 cycles
 SCF Done:  E(RB3LYP) =  -611.163873124     A.U. after    8 cycles
 Optimization completed.
    -- Stationary point found.
 Normal termination of Gaussian 16 at Thu Dec 10 10:14:47 2020.

 --------------------------------------------------------------------
 #N Geom=AllCheck Guess=TCheck SCRF=Check GenChk RB3LYP/6-31G(d) Freq
 --------------------------------------------------------------------

 Structure from the checkpoint file:  "JID_4639.chk"
 ------------------------------
 CID_84719125_JID_4639_neutraal
 ------------------------------
 Charge =  0 Multiplicity = 1

 SCF Done:  E(RB3LYP) =  -611.163873124     A.U. after    1 cycles

  Exact polarizability: 160.661   8.057 128.052  10.811 -14.560  80.747
 Approx polarizability: 246.270  20.863 208.550  18.757 -35.153 127.578

                      1                      2                      3
                      A                      A                      A
 Frequencies --     59.8204                73.2918               118.5923
 Red. masses --      4.4157                 4.0478                 6.2859
 Frc consts  --      0.0093                 0.0128                 0.0521
 IR Inten    --      0.7643                 0.7192                 0.3007

                      4                      5                      6
                      A                      A                      A
 Frequencies --    143.0976               188.1619               232.6274
 Red. masses --      4.2022                 2.8842                 2.3825
 Frc consts  --      0.0507                 0.0602                 0.0760
 IR Inten    --      0.7930                 1.4843                 7.8744

                      7                      8                      9
                      A                      A                      A
 Frequencies --    269.5555               306.2675               309.4449
 Red. masses --      2.5915                 4.9071                 1.6814
 Frc consts  --      0.1109                 0.2712                 0.0949
 IR Inten    --     15.0209                 2.6562                38.1221

                     10                     11                     12
                      A                      A                      A
 Frequencies --    337.3017               403.6409               442.3885
 Red. masses --      3.4130                 2.7488                 3.4584
 Frc consts  --      0.2288                 0.2639                 0.3988
 IR Inten    --      0.3703                 0.4725                28.2037

                     13                     14                     15
                      A                      A                      A
 Frequencies --    458.9024               498.2846               513.5951
 Red. masses --      1.9634                 6.7842                 1.6567
 Frc consts  --      0.2436                 0.9924                 0.2575
 IR Inten    --     15.6337                 2.4712                96.3524

                     16                     17                     18
                      A                      A                      A
 Frequencies --    537.1928               581.7429               625.1906
 Red. masses --      3.5280                 3.8672                 4.3035
 Frc consts  --      0.5998                 0.7711                 0.9911
 IR Inten    --     11.3573                 0.0638                 4.1657

                     19                     20                     21
                      A                      A                      A
 Frequencies --    663.4665               708.5148               721.5450
 Red. masses --      6.5808                 5.5452                 5.4788
 Frc consts  --      1.7067                 1.6401                 1.6806
 IR Inten    --      8.3124                 4.8273                 1.6146

                     22                     23                     24
                      A                      A                      A
 Frequencies --    752.8301               763.4957               830.1086
 Red. masses --      1.7006                 2.3109                 2.2846
 Frc consts  --      0.5679                 0.7937                 0.9275
 IR Inten    --     26.1684                27.6948                 6.0890

                     25                     26                     27
                      A                      A                      A
 Frequencies --    862.3630               869.5237               882.8833
 Red. masses --      1.3927                 1.6803                 2.0315
 Frc consts  --      0.6102                 0.7485                 0.9330
 IR Inten    --     20.0905                57.9836                35.2165

                     28                     29                     30
                      A                      A                      A
 Frequencies --    896.2226               901.9362               928.4439
 Red. masses --      3.3923                 2.2942                 1.3978
 Frc consts  --      1.6054                 1.0996                 0.7099
 IR Inten    --      4.3907                30.6794                 1.5989

                     31                     32                     33
                      A                      A                      A
 Frequencies --    963.4574               966.7442              1028.9455
 Red. masses --      1.5023                 1.2301                 3.3933
 Frc consts  --      0.8216                 0.6773                 2.1167
 IR Inten    --     30.1088                 0.1670                16.2832

                     34                     35                     36
                      A                      A                      A
 Frequencies --   1049.6714              1058.5178              1085.6780
 Red. masses --      1.8936                 2.0062                 1.3732
 Frc consts  --      1.2292                 1.3244                 0.9536
 IR Inten    --      3.7247                 5.6212                 5.5965

                     37                     38                     39
                      A                      A                      A
 Frequencies --   1103.3634              1114.1464              1148.5463
 Red. masses --      2.1148                 2.4871                 1.5400
 Frc consts  --      1.5169                 1.8190                 1.1969
 IR Inten    --      8.6286                 3.9097                 6.9066

                     40                     41                     42
                      A                      A                      A
 Frequencies --   1176.1766              1191.7151              1205.0000
 Red. masses --      1.4501                 1.1728                 1.8116
 Frc consts  --      1.1819                 0.9814                 1.5499
 IR Inten    --     36.1392                 4.2358                25.8175

                     43                     44                     45
                      A                      A                      A
 Frequencies --   1216.9998              1243.5162              1272.6333
 Red. masses --      1.7453                 2.0195                 1.7453
 Frc consts  --      1.5230                 1.8399                 1.6655
 IR Inten    --     40.9442                62.2893                20.4042

                     46                     47                     48
                      A                      A                      A
 Frequencies --   1322.7785              1331.0447              1350.5601
 Red. masses --      1.7984                 2.5514                 1.9767
 Frc consts  --      1.8540                 2.6633                 2.1243
 IR Inten    --     19.5667                10.8423                49.3271

                     49                     50                     51
                      A                      A                      A
 Frequencies --   1375.8725              1407.2899              1440.9679
 Red. masses --      1.8834                 1.5870                 2.6572
 Frc consts  --      2.1007                 1.8518                 3.2508
 IR Inten    --     16.6704                40.9161                18.8676

                     52                     53                     54
                      A                      A                      A
 Frequencies --   1465.6862              1503.4447              1518.4839
 Red. masses --      1.4899                 1.6855                 2.8214
 Frc consts  --      1.8858                 2.2447                 3.8329
 IR Inten    --     18.7110                17.9824                61.3725

                     55                     56                     57
                      A                      A                      A
 Frequencies --   1531.8151              1539.1509              1651.9984
 Red. masses --      2.5089                 1.1269                 5.9883
 Frc consts  --      3.4686                 1.5729                 9.6288
 IR Inten    --      7.7869                 6.0299                 2.7667

                     58                     59                     60
                      A                      A                      A
 Frequencies --   1680.2862              1697.5228              1835.7765
 Red. masses --      6.7379                 1.0900                10.7082
 Frc consts  --     11.2083                 1.8507                21.2621
 IR Inten    --     46.3436                20.9031               441.6110

                     61                     62                     63
                      A                      A                      A
 Frequencies --   2967.4858              3064.3282              3146.2907
 Red. masses --      1.0725                 1.0879                 1.0541
 Frc consts  --      5.5645                 6.0186                 6.1478
 IR Inten    --     67.9908                43.5073                10.0833

                     64                     65                     66
                      A                      A                      A
 Frequencies --   3180.3974              3189.0517              3197.7833
 Red. masses --      1.0887                 1.0854                 1.0888
 Frc consts  --      6.4880                 6.5038                 6.5601
 IR Inten    --      3.6269                 1.1151                 7.0965

                     67                     68                     69
                      A                      A                      A
 Frequencies --   3206.2153              3216.1804              3236.7074
 Red. masses --      1.0930                 1.0970                 1.1182
 Frc consts  --      6.6202                 6.6856                 6.9018
 IR Inten    --     29.3995                18.2920                 2.3582

                     70                     71                     72
                      A                      A                      A
 Frequencies --   3468.3588              3554.8623              3646.9055
 Red. masses --      1.0495                 1.0926                 1.0791
 Frc consts  --      7.4388                 8.1349                 8.4557
 IR Inten    --      3.4063                 0.0570                46.1101

 - Thermochemistry -
 -------------------
 Temperature   298.150 Kelvin.  Pressure   1.00000 Atm.
 Atom     1 has atomic number  6 and mass  12.00000

 Molecular mass:   188.09496 amu.
 Principal axes and moments of inertia in atomic units:
                           1         2         3
     Eigenvalues --  1851.854222701.463763788.62950
           X            0.99892  -0.04564   0.00871
           Y            0.04567   0.99895  -0.00303
           Z           -0.00856   0.00343   0.99996
 This molecule is an asymmetric top.
 Rotational symmetry number  1.
 Warning -- assumption of classical behavior for rotation
           may cause significant error
 Rotational temperatures (Kelvin)      0.04677     0.03206     0.02286
 Rotational constants (GHZ):           0.97456     0.66806     0.47636
 Zero-point vibrational energy     564833.5 (Joules/Mol)
                                  134.99845 (Kcal/Mol)
 Warning -- explicit consideration of  17 degrees of freedom as
           vibrations may cause significant error
 Vibrational temperatures:     86.07   105.45   170.63   205.89   270.72
          (Kelvin)            334.70   387.83   440.65   445.22   485.30
                              580.75   636.50   660.26   716.92   738.95
                              772.90   837.00   899.51   954.58  1019.39
                             1038.14  1083.15  1098.50  1194.34  1240.75
                             1251.05  1270.27  1289.46  1297.69  1335.82
                             1386.20  1390.93  1480.42  1510.24  1522.97
                             1562.05  1587.49  1603.01  1652.50  1692.26
                             1714.61  1733.73  1750.99  1789.14  1831.04
                             1903.18  1915.08  1943.15  1979.57  2024.78
                             2073.23  2108.80  2163.12  2184.76  2203.94
                             2214.49  2376.86  2417.56  2442.36  2641.27
                             4269.55  4408.88  4526.81  4575.88  4588.33
                             4600.90  4613.03  4627.37  4656.90  4990.19
                             5114.65  5247.08

 Zero-point correction=                           0.215134 (Hartree/Particle)
 Thermal correction to Energy=                    0.226838
 Thermal correction to Enthalpy=                  0.227782
 Thermal correction to Gibbs Free Energy=         0.177472
 Sum of electronic and zero-point Energies=           -610.948739
 Sum of electronic and thermal Energies=              -610.937035
 Sum of electronic and thermal Enthalpies=            -610.936091
 Sum of electronic and thermal Free Energies=         -610.986402

                     E (Thermal)             CV                S
                      KCal/Mol        Cal/Mol-Kelvin    Cal/Mol-Kelvin
 Total                  142.343             46.827            105.887
 Electronic               0.000              0.000              0.000
 Translational            0.889              2.981             41.601
 Rotational               0.889              2.981             31.317
 Vibrational            140.565             40.865             32.969
 Vibration     1          0.597              1.973              4.463
 Vibration     2          0.599              1.967              4.063
 Vibration     3          0.609              1.934              3.123
 Vibration     4          0.616              1.910              2.762
 Vibration     5          0.633              1.856              2.246
 Vibration     6          0.653              1.791              1.859
 Vibration     7          0.674              1.729              1.599
 Vibration     8          0.697              1.662              1.382
 Vibration     9          0.699              1.656              1.365
 Vibration    10          0.718              1.601              1.225
 Vibration    11          0.769              1.462              0.949
 Vibration    12          0.802              1.378              0.819
 Vibration    13          0.817              1.341              0.769
 Vibration    14          0.854              1.254              0.662
 Vibration    15          0.869              1.220              0.625
 Vibration    16          0.892              1.168              0.571
 Vibration    17          0.939              1.071              0.482

                           ! Non-Optimized Parameters !
 Normal termination of Gaussian 16 at Thu Dec 10 10:23:05 2020.

 ----------------------------------------------------------------------
 # B3LYP/6-311++G(d,p) empiricaldispersion=gd3bj scf=xqc pop=npa geom=c
 heck
 ----------------------------------------------------------------------

 --------------------------------------
 CID_84719125_JID_4639_Energie_neutraal
 --------------------------------------
 Structure from the checkpoint file:  "JID_4639.chk"
 Charge =  0 Multiplicity = 1

 SCF Done:  E(RB3LYP) =  -611.337482744     A.U. after   15 cycles
 Normal termination of Gaussian 16 at Thu Dec 10 10:26:43 2020.

 ----------------------------------------------------------------------
 # B3LYP/6-311++G(d,p) empiricaldispersion=gd3bj scf=xqc pop=npa geom=c
 heck
 ----------------------------------------------------------------------

 ------------------------------------
 CID_84719125_JID_4639_Energie_kation
 ------------------------------------
 Structure from the checkpoint file:  "JID_4639.chk"
 Charge =  1 Multiplicity = 2

 SCF Done:  E(UB3LYP) =  -611.045120602     A.U. after   26 cycles
 Normal termination of Gaussian 16 at Thu Dec 10 10:35:42 2020.
 Gaussian 16:  ES64L-G16RevA.03 25-Dec-2016

 ----------------------------------------------------------------------
 # B3LYP/6-311++G(d,p) empiricaldispersion=gd3bj scf=xqc pop=npa geom=c
 heck
 ----------------------------------------------------------------------

 -----------------------------------
 CID_84719125_JID_4639_Energie_anion
 -----------------------------------
 Structure from the checkpoint file:  "JID_4639.chk"
 Charge = -1 Multiplicity = 2

                         Standard orientation:
 ---------------------------------------------------------------------
 Center     Atomic      Atomic             Coordinates (Angstroms)
 Number     Number       Type             X           Y           Z
 ---------------------------------------------------------------------
      1          6           0        1.891047    0.017304    1.514638
      2          6           0        2.122775   -0.458763    0.124830
      3          6           0        0.864803    0.363596    0.449673
      4          6           0       -0.539018   -0.112661    0.375255
      5          6           0       -1.177125   -1.282308    0.768196
      6          6           0       -2.552693   -1.426088    0.537751
      7          6           0       -3.279387   -0.402910   -0.071649
      8          6           0       -2.657743    0.790432   -0.459910
      9          6           0       -1.295060    0.917383   -0.226965
     10          7           0       -0.454729    2.000973   -0.500549
     11          6           0        0.852639    1.767208   -0.097146
     12          8           0        1.785482    2.544645   -0.191332
     13          6           0        1.990821   -1.913299   -0.256907
     14          7           0        1.475485   -2.027734   -1.621720
     15          1           0        2.484042    0.848865    1.883853
     16          1           0        1.574330   -0.704797    2.263014
     17          1           0        2.840465    0.106126   -0.465107
     18          1           0       -0.623914   -2.076500    1.259667
     19          1           0       -3.054671   -2.339432    0.841823
     20          1           0       -4.344609   -0.525975   -0.243803
     21          1           0       -3.225400    1.591378   -0.924293
     22          1           0       -0.741757    2.877429   -0.911782
     23          1           0        2.989000   -2.368239   -0.229128
     24          1           0        1.390428   -2.441350    0.504525
     25          1           0        1.442440   -3.007011   -1.899307
     26          1           0        0.514139   -1.689692   -1.639526
 ---------------------------------------------------------------------

 SCF Done:  E(UB3LYP) =  -611.326273944     A.U. after   33 cycles
 SCF Done:  E(UB3LYP) =  -611.326273944     a.u. after    1 cycles

 The electronic state is 2-A.
 Alpha  occ. eigenvalues --  -18.99894 -14.25518 -14.19157 -10.17808 -10.11889
 Alpha  occ. eigenvalues --  -10.10290 -10.09808 -10.09243 -10.08947 -10.08216
 Alpha  occ. eigenvalues --  -10.07700 -10.07611 -10.07301 -10.06980  -0.94972
 Alpha  occ. eigenvalues --   -0.86487  -0.79847  -0.76622  -0.74632  -0.66338
 Alpha  occ. eigenvalues --   -0.64187  -0.60160  -0.57612  -0.52011  -0.49903
 Alpha  occ. eigenvalues --   -0.48833  -0.46415  -0.43326  -0.41763  -0.39309
 Alpha  occ. eigenvalues --   -0.38349  -0.36234  -0.35106  -0.34575  -0.34276
 Alpha  occ. eigenvalues --   -0.33831  -0.33398  -0.29896  -0.29160  -0.27819
 Alpha  occ. eigenvalues --   -0.26998  -0.26260  -0.25338  -0.22371  -0.21599
 Alpha  occ. eigenvalues --   -0.21012  -0.16953  -0.15056  -0.14405  -0.11958
 Alpha  occ. eigenvalues --    0.04331
 Alpha virt. eigenvalues --    0.06152   0.07141   0.07491   0.07940   0.08682
 Alpha virt. eigenvalues --    0.08784   0.09545   0.10196   0.11336   0.11658
 Alpha virt. eigenvalues --    0.12136   0.12358   0.12673   0.13447   0.14961

  Beta  occ. eigenvalues --  -18.99866 -14.25508 -14.19131 -10.17776 -10.11887
  Beta  occ. eigenvalues --  -10.10302 -10.09782 -10.09216 -10.08911 -10.08154
  Beta  occ. eigenvalues --  -10.07676 -10.07587 -10.07241 -10.06972  -0.94918
  Beta  occ. eigenvalues --   -0.86446  -0.79795  -0.76570  -0.74562  -0.66231
  Beta  occ. eigenvalues --   -0.64122  -0.60074  -0.57523  -0.51965  -0.49814
  Beta  occ. eigenvalues --   -0.48733  -0.46365  -0.43269  -0.41721  -0.39252
  Beta  occ. eigenvalues --   -0.38288  -0.36171  -0.35003  -0.34482  -0.34219
  Beta  occ. eigenvalues --   -0.33772  -0.33349  -0.29847  -0.29116  -0.27688
  Beta  occ. eigenvalues --   -0.26941  -0.26188  -0.25284  -0.22269  -0.21502
  Beta  occ. eigenvalues --   -0.20872  -0.16920  -0.14934  -0.14323  -0.11795
  Beta virt. eigenvalues --    0.06831   0.07246   0.07826   0.08127   0.08290
  Beta virt. eigenvalues --    0.08907   0.09356   0.10018   0.10507   0.11808
  Beta virt. eigenvalues --    0.11873   0.12454   0.12635   0.12827   0.13639

 Mulliken charges and spin densities:
               1          2
     1  C   -0.005102  -0.514555
     2  C   -0.845363   1.101608
     3  C    1.829614  -1.437644
     4  C    0.586989   0.108556
     5  C   -1.119499   0.665571
     6  C    1.082012  -1.601597
     7  C    1.101889  -1.258963
     8  C   -1.253689   0.706184
     9  C   -0.691606   0.609615
    10  N   -0.193046  -0.018876
    11  C    0.254921  -0.101117
    12  O   -0.372220   0.020713
    13  C    1.109316  -1.628493
    14  N   -0.412290   0.004169
    15  H    0.160430   0.030414
    16  H    0.001439   0.150444
    17  H    0.167095   0.060387
    18  H   -0.155729   0.290081
    19  H   -0.541366   0.713230
    20  H   -0.290184   0.452887
    21  H   -0.885517   1.038147
    22  H    0.036419   0.291555
    23  H   -0.230318   0.404893
    24  H   -0.537704   0.642216
    25  H   -0.073322   0.313824
    26  H    0.276833  -0.043247
 Sum of Mulliken charges =  -1.00000   1.00000

 Dipole moment (field-independent basis, Debye):
    X=              2.1736    Y=              2.2848    Z=              1.9295  Tot=              3.6969
 Quadrupole moment (field-independent basis, Debye-Ang):
   XX=           -143.7893   YY=           -138.4155   ZZ=           -110.3954
   XY=              1.9929   XZ=              1.6371   YZ=              3.1047

 Summary of Natural Population Analysis:

                                       Natural Population
                Natural  -----------------------------------------------
    Atom  No    Charge         Core      Valence    Rydberg      Total
 -----------------------------------------------------------------------
      C    1   -0.17190      0.99958     2.16309    0.00923     3.17190
      C    2   -0.08428      0.99956     2.07405    0.01068     3.08428
      C    3   -0.08883      0.99948     2.07783    0.01152     3.08883
      C    4   -0.02260      0.99946     2.01255    0.01059     3.02260
      C    5   -0.09475      0.99952     2.08567    0.00956     3.09475
      C    6   -0.11202      0.99957     2.10189    0.01057     3.11202
      C    7   -0.08705      0.99957     2.07752    0.00996     3.08705
      C    8   -0.12018      0.99952     2.11082    0.00985     3.12018
      C    9    0.08716      0.99945     1.90198    0.01140     2.91284
      N   10   -0.30313      0.99964     2.79491    0.00858     3.80313
      C   11    0.35532      0.99961     1.62110    0.02397     2.64468
      O   12   -0.31848      0.99987     3.31339    0.00521     4.31848
      C   13   -0.09240      0.99961     2.08050    0.01229     3.09240
      N   14   -0.42122      0.99977     2.91139    0.01006     3.92122
      H   15    0.11100      0.00000     0.38813    0.00087     0.38900
      H   16    0.10589      0.00000     0.39310    0.00101     0.39411
      H   17    0.11328      0.00000     0.38545    0.00128     0.38672
      H   18    0.10286      0.00000     0.39507    0.00207     0.39714
      H   19    0.10206      0.00000     0.39655    0.00140     0.39794
      H   20    0.10093      0.00000     0.39773    0.00134     0.39907
      H   21    0.10510      0.00000     0.39242    0.00248     0.39490
      H   22    0.20175      0.00000     0.29560    0.00265     0.29825
      H   23    0.09564      0.00000     0.40298    0.00138     0.40436
      H   24    0.08191      0.00000     0.41509    0.00300     0.41809
      H   25    0.17631      0.00000     0.32179    0.00191     0.32369
      H   26    0.17763      0.00000     0.32015    0.00222     0.32237
 =======================================================================
   * Total *   -0.00000     13.99420    35.83072    0.17508    50.00000

 Normal termination of Gaussian 16 at Thu Dec 10 10:47:11 2020.
