 Gaussian 16, Revision A.03,

 -----------------------------------------------------------
 # opt freq B3LYP/6-31G(d) empiricaldispersion=gd3bj scf=xqc
 -----------------------------------------------------------

 -------------------------------
 CID_103229161_JID_1974_neutraal
 -------------------------------
 Symbolic Z-matrix:
 Charge =  0 Multiplicity = 1

 SCF Done:  E(RB3LYP) =  -572.203733229     A.U. after   14 cycles
 SCF Done:  E(RB3LYP) =  -572.201461141     A.U. after   13 cycles
 SCF Done:  E(RB3LYP) =  -572.206753590     A.U. after   12 cycles
 SCF Done:  E(RB3LYP) =  -572.207016852     A.U. after   14 cycles
 SCF Done:  E(RB3LYP) =  -572.209471763     A.U. after   12 cycles
 SCF Done:  E(RB3LYP) =  -572.209334780     A.U. after   12 cycles
 SCF Done:  E(RB3LYP) =  -572.210245885     A.U. after   12 cycles
 SCF Done:  E(RB3LYP) =  -572.210323354     A.U. after   12 cycles
 SCF Done:  E(RB3LYP) =  -572.210330071     A.U. after   12 cycles
 SCF Done:  E(RB3LYP) =  -572.210460539     A.U. after   11 cycles
 SCF Done:  E(RB3LYP) =  -572.210704209     A.U. after   10 cycles
 SCF Done:  E(RB3LYP) =  -572.210709591     A.U. after    9 cycles
 SCF Done:  E(RB3LYP) =  -572.210712286     A.U. after    8 cycles
 SCF Done:  E(RB3LYP) =  -572.210713458     A.U. after    8 cycles
 SCF Done:  E(RB3LYP) =  -572.210713676     A.U. after    8 cycles
 SCF Done:  E(RB3LYP) =  -572.210713615     A.U. after    7 cycles
 Optimization completed.
    -- Stationary point found.
 Normal termination of Gaussian 16 at Tue Dec  8 21:21:06 2020.

 --------------------------------------------------------------------
 #N Geom=AllCheck Guess=TCheck SCRF=Check GenChk RB3LYP/6-31G(d) Freq
 --------------------------------------------------------------------

 Structure from the checkpoint file:  "JID_1974.chk"
 -------------------------------
 CID_103229161_JID_1974_neutraal
 -------------------------------
 Charge =  0 Multiplicity = 1

 SCF Done:  E(RB3LYP) =  -572.210713615     A.U. after    1 cycles

  Exact polarizability:  97.321   2.105  87.212   3.349   2.267  73.893
 Approx polarizability: 134.462   9.015 118.868   5.273   5.155 107.042

                      1                      2                      3
                      A                      A                      A
 Frequencies --     35.1729                70.8212               105.9112
 Red. masses --      5.0976                 2.8120                 2.4704
 Frc consts  --      0.0037                 0.0083                 0.0163
 IR Inten    --      0.7292                 0.5097                 0.7161

                      4                      5                      6
                      A                      A                      A
 Frequencies --    121.4281               145.2137               167.9367
 Red. masses --      3.9850                 4.0850                 2.5044
 Frc consts  --      0.0346                 0.0508                 0.0416
 IR Inten    --      1.7974                 1.1046                 4.9735

                      7                      8                      9
                      A                      A                      A
 Frequencies --    169.4074               234.5742               247.6791
 Red. masses --      2.5568                 1.8940                 3.1072
 Frc consts  --      0.0432                 0.0614                 0.1123
 IR Inten    --      2.8124                 2.1366                 6.8968

                     10                     11                     12
                      A                      A                      A
 Frequencies --    271.1105               293.9411               329.2200
 Red. masses --      1.6266                 2.3645                 3.5765
 Frc consts  --      0.0704                 0.1204                 0.2284
 IR Inten    --      0.8877                 1.1883                 0.6047

                     13                     14                     15
                      A                      A                      A
 Frequencies --    351.4555               415.1968               425.5701
 Red. masses --      2.1478                 2.6180                 1.2930
 Frc consts  --      0.1563                 0.2659                 0.1380
 IR Inten    --      3.2283                 5.2730                10.0989

                     16                     17                     18
                      A                      A                      A
 Frequencies --    464.6491               534.7267               569.9060
 Red. masses --      3.5955                 2.2276                 5.7561
 Frc consts  --      0.4574                 0.3753                 1.1015
 IR Inten    --      1.0381                23.5343                19.0386

                     19                     20                     21
                      A                      A                      A
 Frequencies --    621.9223               678.2325               707.3926
 Red. masses --      3.8196                 1.3660                 4.8507
 Frc consts  --      0.8704                 0.3702                 1.4301
 IR Inten    --     29.2351               135.1810                 4.7933

                     22                     23                     24
                      A                      A                      A
 Frequencies --    809.0809               812.1392               860.5736
 Red. masses --      1.1754                 3.1336                 3.0777
 Frc consts  --      0.4533                 1.2177                 1.3429
 IR Inten    --     10.4039                 6.4902                22.2191

                     25                     26                     27
                      A                      A                      A
 Frequencies --    933.2396               954.7245               998.6223
 Red. masses --      2.0917                 1.5896                 3.4313
 Frc consts  --      1.0734                 0.8537                 2.0161
 IR Inten    --     72.6853               130.8647                17.0398

                     28                     29                     30
                      A                      A                      A
 Frequencies --   1063.2742              1077.4444              1125.7574
 Red. masses --      2.8081                 2.6753                 1.8793
 Frc consts  --      1.8705                 1.8298                 1.4032
 IR Inten    --     29.7748                46.4863                 2.7822

                     31                     32                     33
                      A                      A                      A
 Frequencies --   1158.4596              1179.2769              1198.1719
 Red. masses --      3.8187                 2.2978                 1.5551
 Frc consts  --      3.0194                 1.8827                 1.3153
 IR Inten    --    104.0495               108.7815                15.7784

                     34                     35                     36
                      A                      A                      A
 Frequencies --   1211.8652              1224.1432              1229.7961
 Red. masses --      1.7239                 2.8374                 1.8912
 Frc consts  --      1.4917                 2.5052                 1.6852
 IR Inten    --     26.3094                19.2642                32.8048

                     37                     38                     39
                      A                      A                      A
 Frequencies --   1290.5972              1323.9906              1353.3491
 Red. masses --      1.2588                 1.6415                 1.2245
 Frc consts  --      1.2354                 1.6954                 1.3214
 IR Inten    --     49.5902                45.7476                 8.2760

                     40                     41                     42
                      A                      A                      A
 Frequencies --   1361.4812              1371.2654              1394.6532
 Red. masses --      1.2093                 1.7824                 1.3314
 Frc consts  --      1.3207                 1.9747                 1.5258
 IR Inten    --     15.4794                53.1075                12.7351

                     43                     44                     45
                      A                      A                      A
 Frequencies --   1423.5226              1434.8207              1448.0835
 Red. masses --      1.2351                 1.4459                 1.2913
 Frc consts  --      1.4747                 1.7539                 1.5954
 IR Inten    --      1.7963                18.7218                30.0481

                     46                     47                     48
                      A                      A                      A
 Frequencies --   1465.4309              1500.5208              1511.7731
 Red. masses --      1.2826                 1.1501                 1.0510
 Frc consts  --      1.6228                 1.5257                 1.4153
 IR Inten    --      7.3474                 1.6669                 6.8002

                     49                     50                     51
                      A                      A                      A
 Frequencies --   1516.5312              1525.9833              1529.9894
 Red. masses --      1.0483                 1.0634                 1.0554
 Frc consts  --      1.4206                 1.4590                 1.4557
 IR Inten    --      4.6762                 5.9733                 5.7375

                     52                     53                     54
                      A                      A                      A
 Frequencies --   1541.8790              1554.6827              1731.0961
 Red. masses --      1.0713                 1.0790                 1.0628
 Frc consts  --      1.5006                 1.5366                 1.8765
 IR Inten    --      2.8691                10.5005                22.3179

                     55                     56                     57
                      A                      A                      A
 Frequencies --   1788.9249              3002.7979              3010.6701
 Red. masses --      9.1243                 1.0416                 1.0678
 Frc consts  --     17.2042                 5.5334                 5.7027
 IR Inten    --    238.7345                45.4147                30.6519

                     58                     59                     60
                      A                      A                      A
 Frequencies --   3014.2658              3033.0193              3048.7424
 Red. masses --      1.0609                 1.0784                 1.1039
 Frc consts  --      5.6794                 5.8449                 6.0454
 IR Inten    --     64.0690                41.2143                74.2406

                     61                     62                     63
                      A                      A                      A
 Frequencies --   3056.4663              3058.7670              3097.5282
 Red. masses --      1.0465                 1.1040                 1.0928
 Frc consts  --      5.7601                 6.0858                 6.1774
 IR Inten    --     21.7654                35.3743                31.1693

                     64                     65                     66
                      A                      A                      A
 Frequencies --   3135.7522              3153.7875              3174.8273
 Red. masses --      1.0907                 1.0983                 1.1033
 Frc consts  --      6.3186                 6.4362                 6.5522
 IR Inten    --     36.3454                19.8398                13.1898

                     67                     68                     69
                      A                      A                      A
 Frequencies --   3457.2657              3554.9980              3578.7579
 Red. masses --      1.0454                 1.0985                 1.0766
 Frc consts  --      7.3618                 8.1794                 8.1238
 IR Inten    --     21.0159                24.7127                21.7977

 - Thermochemistry -
 -------------------
 Temperature   298.150 Kelvin.  Pressure   1.00000 Atm.
 Atom     1 has atomic number  6 and mass  12.00000

 Molecular mass:   162.10044 amu.
 Principal axes and moments of inertia in atomic units:
                           1         2         3
     Eigenvalues --  1550.822311705.181752576.66387
           X            0.99932   0.02316   0.02867
           Y           -0.02317   0.99973   0.00002
           Z           -0.02867  -0.00068   0.99959
 This molecule is an asymmetric top.
 Rotational symmetry number  1.
 Warning -- assumption of classical behavior for rotation
           may cause significant error
 Rotational temperatures (Kelvin)      0.05585     0.05079     0.03361
 Rotational constants (GHZ):           1.16373     1.05839     0.70042
 Zero-point vibrational energy     569687.2 (Joules/Mol)
                                  136.15850 (Kcal/Mol)
 Warning -- explicit consideration of  18 degrees of freedom as
           vibrations may cause significant error
 Vibrational temperatures:     50.61   101.90   152.38   174.71   208.93
          (Kelvin)            241.62   243.74   337.50   356.35   390.07
                              422.92   473.67   505.67   597.38   612.30
                              668.53   769.35   819.97   894.81   975.83
                             1017.78  1164.09  1168.49  1238.17  1342.72
                             1373.64  1436.79  1529.81  1550.20  1619.71
                             1666.77  1696.72  1723.90  1743.60  1761.27
                             1769.40  1856.88  1904.93  1947.17  1958.87
                             1972.95  2006.59  2048.13  2064.39  2083.47
                             2108.43  2158.91  2175.10  2181.95  2195.55
                             2201.31  2218.42  2236.84  2490.66  2573.86
                             4320.36  4331.68  4336.86  4363.84  4386.46
                             4397.57  4400.88  4456.65  4511.65  4537.60
                             4567.87  4974.23  5114.85  5149.03

 Zero-point correction=                           0.216982 (Hartree/Particle)
 Thermal correction to Energy=                    0.229618
 Thermal correction to Enthalpy=                  0.230563
 Thermal correction to Gibbs Free Energy=         0.178068
 Sum of electronic and zero-point Energies=           -571.993731
 Sum of electronic and thermal Energies=              -571.981095
 Sum of electronic and thermal Enthalpies=            -571.980151
 Sum of electronic and thermal Free Energies=         -572.032645

                     E (Thermal)             CV                S
                      KCal/Mol        Cal/Mol-Kelvin    Cal/Mol-Kelvin
 Total                  144.088             45.590            110.483
 Electronic               0.000              0.000              0.000
 Translational            0.889              2.981             41.158
 Rotational               0.889              2.981             30.300
 Vibrational            142.310             39.629             39.025
 Vibration     1          0.594              1.982              5.514
 Vibration     2          0.598              1.968              4.130
 Vibration     3          0.605              1.945              3.343
 Vibration     4          0.609              1.931              3.078
 Vibration     5          0.617              1.908              2.734
 Vibration     6          0.625              1.882              2.458
 Vibration     7          0.625              1.880              2.442
 Vibration     8          0.654              1.788              1.844
 Vibration     9          0.661              1.767              1.747
 Vibration    10          0.675              1.726              1.589
 Vibration    11          0.689              1.685              1.451
 Vibration    12          0.712              1.617              1.264
 Vibration    13          0.728              1.572              1.160
 Vibration    14          0.779              1.437              0.908
 Vibration    15          0.787              1.415              0.873
 Vibration    16          0.822              1.328              0.753
 Vibration    17          0.890              1.173              0.577
 Vibration    18          0.926              1.096              0.504

 Optimization completed.
    -- Stationary point found.
 Normal termination of Gaussian 16 at Tue Dec  8 21:27:09 2020.

 ----------------------------------------------------------------------
 # B3LYP/6-311++G(d,p) empiricaldispersion=gd3bj scf=xqc pop=npa geom=c
 heck
 ----------------------------------------------------------------------

 ---------------------------------------
 CID_103229161_JID_1974_Energie_neutraal
 ---------------------------------------
 Structure from the checkpoint file:  "JID_1974.chk"
 Charge =  0 Multiplicity = 1

 SCF Done:  E(RB3LYP) =  -572.392529738     A.U. after   15 cycles
 Normal termination of Gaussian 16 at Tue Dec  8 21:31:47 2020.

 ----------------------------------------------------------------------
 # B3LYP/6-311++G(d,p) empiricaldispersion=gd3bj scf=xqc pop=npa geom=c
 heck
 ----------------------------------------------------------------------

 -------------------------------------
 CID_103229161_JID_1974_Energie_kation
 -------------------------------------
 Structure from the checkpoint file:  "JID_1974.chk"
 Charge =  1 Multiplicity = 2

 SCF Done:  E(UB3LYP) =  -572.066856277     A.U. after   29 cycles
 Normal termination of Gaussian 16 at Tue Dec  8 21:42:31 2020.
 Gaussian 16:  ES64L-G16RevA.03 25-Dec-2016

 ----------------------------------------------------------------------
 # B3LYP/6-311++G(d,p) empiricaldispersion=gd3bj scf=xqc pop=npa geom=c
 heck
 ----------------------------------------------------------------------

 ------------------------------------
 CID_103229161_JID_1974_Energie_anion
 ------------------------------------
 Structure from the checkpoint file:  "JID_1974.chk"
 Charge = -1 Multiplicity = 2

                         Standard orientation:
 ---------------------------------------------------------------------
 Center     Atomic      Atomic             Coordinates (Angstroms)
 Number     Number       Type             X           Y           Z
 ---------------------------------------------------------------------
      1          6           0        2.265572    0.051536    1.247604
      2          6           0        2.308880   -0.366959   -0.216673
      3          8           0        1.538321    0.424527   -1.124724
      4          6           0        0.131847    0.399194   -1.034097
      5          6           0       -0.439527   -1.019389   -0.960943
      6          8           0       -0.546938   -1.452329    0.387292
      7          6           0       -0.772544   -2.846772    0.500983
      8          6           0       -0.365642    1.442080    0.013362
      9          8           0        0.401055    2.279158    0.459477
     10          7           0       -1.708407    1.528964    0.306072
     11          7           0       -2.709105    0.543671    0.205396
     12          1           0        2.996828   -0.547407    1.805222
     13          1           0        1.280150   -0.126362    1.684422
     14          1           0        2.506069    1.110418    1.355652
     15          1           0        2.031898   -1.428079   -0.309062
     16          1           0        3.327525   -0.267971   -0.604289
     17          1           0       -0.200462    0.807988   -1.999454
     18          1           0       -1.423304   -1.065304   -1.450198
     19          1           0        0.233701   -1.680998   -1.524596
     20          1           0        0.057670   -3.417958    0.060926
     21          1           0       -1.708019   -3.146926    0.004342
     22          1           0       -0.841908   -3.073384    1.566802
     23          1           0       -1.909565    2.246399    0.993074
     24          1           0       -3.010485    0.459028   -0.762540
     25          1           0       -2.328532   -0.346869    0.521642
 ---------------------------------------------------------------------

 SCF Done:  E(UB3LYP) =  -572.384418036     A.U. after   29 cycles

 The electronic state is 2-A.
 Alpha  occ. eigenvalues --  -19.03479 -19.02031 -18.98739 -14.25517 -14.22670
 Alpha  occ. eigenvalues --  -10.17059 -10.13400 -10.11957 -10.11227 -10.10829
 Alpha  occ. eigenvalues --  -10.05077  -0.95569  -0.94279  -0.92508  -0.87194
 Alpha  occ. eigenvalues --   -0.69474  -0.67798  -0.64000  -0.58730  -0.54198
 Alpha  occ. eigenvalues --   -0.51912  -0.46346  -0.42387  -0.41271  -0.40928
 Alpha  occ. eigenvalues --   -0.39320  -0.38571  -0.36985  -0.35543  -0.33255
 Alpha  occ. eigenvalues --   -0.32521  -0.31393  -0.29856  -0.29671  -0.28491
 Alpha  occ. eigenvalues --   -0.26776  -0.24671  -0.23450  -0.20549  -0.18757
 Alpha  occ. eigenvalues --   -0.17610  -0.16358  -0.15681  -0.14583   0.04460
 Alpha virt. eigenvalues --    0.07222   0.08014   0.08675   0.09896   0.10258
 Alpha virt. eigenvalues --    0.10740   0.11074   0.11324   0.11749   0.12910
 Alpha virt. eigenvalues --    0.13585   0.14319   0.15239   0.15636   0.16402

  Beta  occ. eigenvalues --  -19.03464 -19.02033 -18.98725 -14.25512 -14.22614
  Beta  occ. eigenvalues --  -10.17045 -10.13386 -10.11905 -10.11211 -10.10760
  Beta  occ. eigenvalues --  -10.05072  -0.95546  -0.94255  -0.92495  -0.87145
  Beta  occ. eigenvalues --   -0.69394  -0.67745  -0.63963  -0.58651  -0.54067
  Beta  occ. eigenvalues --   -0.51880  -0.46296  -0.42318  -0.41202  -0.40871
  Beta  occ. eigenvalues --   -0.39260  -0.38520  -0.36915  -0.35502  -0.33217
  Beta  occ. eigenvalues --   -0.32491  -0.31331  -0.29806  -0.29626  -0.28454
  Beta  occ. eigenvalues --   -0.26753  -0.24620  -0.23362  -0.20525  -0.18715
  Beta  occ. eigenvalues --   -0.17576  -0.16331  -0.15632  -0.14557
  Beta virt. eigenvalues --    0.07243   0.08288   0.08643   0.09031   0.10402
  Beta virt. eigenvalues --    0.10812   0.11126   0.11394   0.11988   0.12236
  Beta virt. eigenvalues --    0.13262   0.14189   0.14918   0.15423   0.15827

 Mulliken charges and spin densities:
               1          2
     1  C   -0.491453  -0.047033
     2  C    0.216570  -0.337933
     3  O   -0.059923  -0.011639
     4  C   -0.977935   0.569067
     5  C    1.218851  -1.368264
     6  O   -0.280283   0.108091
     7  C    1.442932  -1.681873
     8  C    0.415629  -0.495132
     9  O   -0.282766   0.009455
    10  N   -0.333060   0.165732
    11  N   -0.083589  -0.351905
    12  H   -0.013073   0.118319
    13  H    0.175590   0.011176
    14  H    0.182035  -0.009913
    15  H    0.109554   0.012884
    16  H    0.014786   0.152895
    17  H   -0.500526   0.745134
    18  H   -0.383098   0.553143
    19  H   -0.191732   0.394194
    20  H   -0.539967   0.679565
    21  H   -0.630818   0.786500
    22  H   -0.356152   0.503775
    23  H    0.252877   0.039272
    24  H   -0.132633   0.403341
    25  H    0.228184   0.051146
 Sum of Mulliken charges =  -1.00000   1.00000

 Dipole moment (field-independent basis, Debye):
    X=              3.6507    Y=              3.9504    Z=              2.8286  Tot=              6.0773
 Quadrupole moment (field-independent basis, Debye-Ang):
   XX=           -111.3937   YY=           -120.1485   ZZ=            -99.3923
   XY=             -9.9313   XZ=             -5.0435   YZ=             -1.1573

 Summary of Natural Population Analysis:

                                       Natural Population
                Natural  -----------------------------------------------
    Atom  No    Charge         Core      Valence    Rydberg      Total
 -----------------------------------------------------------------------
      C    1   -0.30468      0.99966     2.29945    0.00557     3.30468
      C    2   -0.00969      0.99958     1.99765    0.01246     3.00969
      O    3   -0.29592      0.99988     3.28658    0.00946     4.29592
      C    4    0.01815      0.99951     1.96470    0.01763     2.98185
      C    5   -0.03192      0.99956     2.01787    0.01449     3.03192
      O    6   -0.30848      0.99988     3.29920    0.00939     4.30848
      C    7   -0.09769      0.99962     2.08893    0.00915     3.09769
      C    8    0.33163      0.99965     1.64348    0.02524     2.66837
      O    9   -0.31571      0.99987     3.30969    0.00614     4.31571
      N   10   -0.23829      0.99967     2.72509    0.01352     3.73829
      N   11   -0.32283      0.99977     2.81091    0.01215     3.82283
      H   12    0.09434      0.00000     0.40479    0.00087     0.40566
      H   13    0.10532      0.00000     0.39337    0.00132     0.39468
      H   14    0.10689      0.00000     0.39225    0.00087     0.39311
      H   15    0.07995      0.00000     0.41848    0.00157     0.42005
      H   16    0.08514      0.00000     0.41381    0.00105     0.41486
      H   17    0.10890      0.00000     0.38913    0.00197     0.39110
      H   18    0.09512      0.00000     0.39918    0.00571     0.40488
      H   19    0.09344      0.00000     0.40457    0.00200     0.40656
      H   20    0.08292      0.00000     0.41452    0.00256     0.41708
      H   21    0.08582      0.00000     0.41068    0.00350     0.41418
      H   22    0.09157      0.00000     0.40703    0.00141     0.40843
      H   23    0.18492      0.00000     0.31269    0.00239     0.31508
      H   24    0.17715      0.00000     0.31918    0.00367     0.32285
      H   25    0.18396      0.00000     0.31271    0.00333     0.31604
 =======================================================================
   * Total *    0.00000     10.99665    32.83594    0.16741    44.00000

 Normal termination of Gaussian 16 at Tue Dec  8 21:51:32 2020.
