 Gaussian 16, Revision A.03,

 -----------------------------------------------------------
 # opt freq B3LYP/6-31G(d) empiricaldispersion=gd3bj scf=xqc
 -----------------------------------------------------------

 -------------------------------
 CID_123821924_JID_2249_neutraal
 -------------------------------
 Symbolic Z-matrix:
 Charge =  0 Multiplicity = 1

 SCF Done:  E(RB3LYP) =  -629.067541201     A.U. after   15 cycles
 SCF Done:  E(RB3LYP) =  -629.068497937     A.U. after   13 cycles
 SCF Done:  E(RB3LYP) =  -629.071620702     A.U. after   13 cycles
 SCF Done:  E(RB3LYP) =  -629.073128478     A.U. after   12 cycles
 SCF Done:  E(RB3LYP) =  -629.073850694     A.U. after   12 cycles
 SCF Done:  E(RB3LYP) =  -629.073412212     A.U. after   13 cycles
 SCF Done:  E(RB3LYP) =  -629.074636357     A.U. after   12 cycles
 SCF Done:  E(RB3LYP) =  -629.074420431     A.U. after   12 cycles
 SCF Done:  E(RB3LYP) =  -629.074732388     A.U. after   12 cycles
 SCF Done:  E(RB3LYP) =  -629.075130339     A.U. after   11 cycles
 SCF Done:  E(RB3LYP) =  -629.075186238     A.U. after   10 cycles
 SCF Done:  E(RB3LYP) =  -629.075192968     A.U. after    9 cycles
 SCF Done:  E(RB3LYP) =  -629.075195923     A.U. after    8 cycles
 SCF Done:  E(RB3LYP) =  -629.075197500     A.U. after    8 cycles
 SCF Done:  E(RB3LYP) =  -629.075198667     A.U. after    8 cycles
 SCF Done:  E(RB3LYP) =  -629.075199207     A.U. after    8 cycles
 Optimization completed.
    -- Stationary point found.
 Normal termination of Gaussian 16 at Wed Dec  9 16:59:49 2020.

 --------------------------------------------------------------------
 #N Geom=AllCheck Guess=TCheck SCRF=Check GenChk RB3LYP/6-31G(d) Freq
 --------------------------------------------------------------------

 Structure from the checkpoint file:  "JID_2249.chk"
 -------------------------------
 CID_123821924_JID_2249_neutraal
 -------------------------------
 Charge =  0 Multiplicity = 1

 SCF Done:  E(RB3LYP) =  -629.075199207     A.U. after    1 cycles

  Exact polarizability:  93.124   1.531  79.538   0.133   4.648  81.255
 Approx polarizability: 140.437   1.415 110.181 -11.293   8.280 126.251

                      1                      2                      3
                      A                      A                      A
 Frequencies --     68.3518                81.7807               134.3781
 Red. masses --      9.0696                12.0978                 7.0406
 Frc consts  --      0.0250                 0.0477                 0.0749
 IR Inten    --      2.7298                 0.1727                 0.5921

                      4                      5                      6
                      A                      A                      A
 Frequencies --    144.0341               218.7980               246.4525
 Red. masses --      4.6204                 6.0085                 3.8114
 Frc consts  --      0.0565                 0.1695                 0.1364
 IR Inten    --      4.6423                 1.6921                 9.9972

                      7                      8                      9
                      A                      A                      A
 Frequencies --    253.9215               280.7705               349.7801
 Red. masses --      5.6560                 3.8509                 1.4745
 Frc consts  --      0.2149                 0.1789                 0.1063
 IR Inten    --      3.2840                16.3464               152.6905

                     10                     11                     12
                      A                      A                      A
 Frequencies --    369.1847               422.4310               434.9646
 Red. masses --      4.5738                 1.6672                 2.2599
 Frc consts  --      0.3673                 0.1753                 0.2519
 IR Inten    --      6.8007                21.1636                23.2339

                     13                     14                     15
                      A                      A                      A
 Frequencies --    469.4788               513.5394               556.6083
 Red. masses --      5.0140                 1.2793                 2.8084
 Frc consts  --      0.6511                 0.1988                 0.5126
 IR Inten    --      6.7469               139.2145                41.1936

                     16                     17                     18
                      A                      A                      A
 Frequencies --    564.9361               609.5874               705.3648
 Red. masses --      2.0006                 1.8658                 2.5917
 Frc consts  --      0.3762                 0.4085                 0.7597
 IR Inten    --     34.4791                33.0141                65.3938

                     19                     20                     21
                      A                      A                      A
 Frequencies --    711.7463               749.6459               782.6053
 Red. masses --      3.5578                 2.3824                 2.4716
 Frc consts  --      1.0619                 0.7888                 0.8919
 IR Inten    --     11.7041                 8.6619                 2.4177

                     22                     23                     24
                      A                      A                      A
 Frequencies --    792.2630               807.1050               840.9042
 Red. masses --      2.4579                 3.0595                 3.8326
 Frc consts  --      0.9090                 1.1743                 1.5968
 IR Inten    --      8.5937                13.4003                 4.9819

                     25                     26                     27
                      A                      A                      A
 Frequencies --    862.6260               944.0642               964.0483
 Red. masses --      2.9181                 2.5816                 3.3194
 Frc consts  --      1.2794                 1.3556                 1.8176
 IR Inten    --      8.5668                 2.4064                 2.1074

                     28                     29                     30
                      A                      A                      A
 Frequencies --    985.1531              1003.1169              1029.9847
 Red. masses --      2.3116                 2.3482                 2.6608
 Frc consts  --      1.3218                 1.3921                 1.6631
 IR Inten    --      6.8534                18.8879                19.3770

                     31                     32                     33
                      A                      A                      A
 Frequencies --   1070.3825              1099.2220              1140.4568
 Red. masses --      1.8627                 2.3110                 1.4390
 Frc consts  --      1.2574                 1.6452                 1.1027
 IR Inten    --     25.8142                94.0037                23.6966

                     34                     35                     36
                      A                      A                      A
 Frequencies --   1158.0067              1199.4023              1227.8172
 Red. masses --      2.0067                 1.3677                 1.3388
 Frc consts  --      1.5855                 1.1592                 1.1891
 IR Inten    --     52.2567                28.4486                30.9419

                     37                     38                     39
                      A                      A                      A
 Frequencies --   1254.5346              1268.6740              1322.3957
 Red. masses --      1.3309                 1.3401                 1.3300
 Frc consts  --      1.2342                 1.2708                 1.3703
 IR Inten    --     53.9814                 7.1118                 2.8534

                     40                     41                     42
                      A                      A                      A
 Frequencies --   1327.1055              1341.1708              1351.2162
 Red. masses --      1.4760                 1.5228                 1.4672
 Frc consts  --      1.5316                 1.6139                 1.5783
 IR Inten    --     13.9520                 1.8010                 8.5895

                     43                     44                     45
                      A                      A                      A
 Frequencies --   1358.7818              1378.0056              1381.7498
 Red. masses --      1.6034                 1.7727                 1.7713
 Frc consts  --      1.7442                 1.9833                 1.9925
 IR Inten    --     23.2316                 6.3545                14.7555

                     46                     47                     48
                      A                      A                      A
 Frequencies --   1405.9038              1444.3264              1511.4524
 Red. masses --      1.5571                 1.3769                 1.0884
 Frc consts  --      1.8134                 1.6923                 1.4649
 IR Inten    --     50.3121                61.6350                 4.0346

                     49                     50                     51
                      A                      A                      A
 Frequencies --   1527.3113              1665.0777              1810.1001
 Red. masses --      1.0957                 1.2196                 8.9310
 Frc consts  --      1.5059                 1.9923                17.2407
 IR Inten    --      8.6098               120.8303               253.9886

                     52                     53                     54
                      A                      A                      A
 Frequencies --   1863.3176              3059.7499              3070.5901
 Red. masses --      9.9125                 1.0805                 1.0661
 Frc consts  --     20.2771                 5.9600                 5.9225
 IR Inten    --    297.4061                24.2000                12.5827

                     55                     56                     57
                      A                      A                      A
 Frequencies --   3082.0972              3111.5367              3124.9195
 Red. masses --      1.0717                 1.0857                 1.1012
 Frc consts  --      5.9979                 6.1930                 6.3359
 IR Inten    --     71.2760                 7.7694                12.6733

                     58                     59                     60
                      A                      A                      A
 Frequencies --   3128.5910              3140.5936              3481.9665
 Red. masses --      1.0990                 1.0879                 1.0561
 Frc consts  --      6.3381                 6.3223                 7.5440
 IR Inten    --      7.9126                12.7331               159.9134

                     61                     62                     63
                      A                      A                      A
 Frequencies --   3671.6547              3685.5067              3711.5808
 Red. masses --      1.0956                 1.0646                 1.0663
 Frc consts  --      8.7021                 8.5199                 8.6546
 IR Inten    --     73.0851                93.2455               101.6162

 - Thermochemistry -
 -------------------
 Temperature   298.150 Kelvin.  Pressure   1.00000 Atm.
 Atom     1 has atomic number  6 and mass  12.00000

 Molecular mass:   173.06881 amu.
 Principal axes and moments of inertia in atomic units:
                           1         2         3
     Eigenvalues --  1559.609861799.646312380.69183
           X            0.99910   0.02324   0.03561
           Y           -0.02388   0.99956   0.01749
           Z           -0.03518  -0.01833   0.99921
 This molecule is an asymmetric top.
 Rotational symmetry number  1.
 Warning -- assumption of classical behavior for rotation
           may cause significant error
 Rotational temperatures (Kelvin)      0.05554     0.04813     0.03638
 Rotational constants (GHZ):           1.15717     1.00283     0.75807
 Zero-point vibrational energy     498082.1 (Joules/Mol)
                                  119.04448 (Kcal/Mol)
 Warning -- explicit consideration of  17 degrees of freedom as
           vibrations may cause significant error
 Vibrational temperatures:     98.34   117.66   193.34   207.23   314.80
          (Kelvin)            354.59   365.34   403.97   503.26   531.17
                              607.78   625.82   675.48   738.87   800.84
                              812.82   877.06  1014.86  1024.04  1078.57
                             1125.99  1139.89  1161.24  1209.87  1241.13
                             1358.30  1387.05  1417.42  1443.26  1481.92
                             1540.04  1581.54  1640.86  1666.11  1725.67
                             1766.56  1805.00  1825.34  1902.63  1909.41
                             1929.65  1944.10  1954.98  1982.64  1988.03
                             2022.78  2078.06  2174.64  2197.46  2395.68
                             2604.33  2680.90  4402.30  4417.89  4434.45
                             4476.81  4496.06  4501.34  4518.61  5009.77
                             5282.69  5302.62  5340.14

 Zero-point correction=                           0.189709 (Hartree/Particle)
 Thermal correction to Energy=                    0.200755
 Thermal correction to Enthalpy=                  0.201699
 Thermal correction to Gibbs Free Energy=         0.153232
 Sum of electronic and zero-point Energies=           -628.885490
 Sum of electronic and thermal Energies=              -628.874444
 Sum of electronic and thermal Enthalpies=            -628.873500
 Sum of electronic and thermal Free Energies=         -628.921967

                     E (Thermal)             CV                S
                      KCal/Mol        Cal/Mol-Kelvin    Cal/Mol-Kelvin
 Total                  125.976             43.027            102.008
 Electronic               0.000              0.000              0.000
 Translational            0.889              2.981             41.353
 Rotational               0.889              2.981             30.281
 Vibrational            124.198             37.065             30.374
 Vibration     1          0.598              1.969              4.200
 Vibration     2          0.600              1.962              3.848
 Vibration     3          0.613              1.919              2.882
 Vibration     4          0.616              1.909              2.750
 Vibration     5          0.647              1.812              1.969
 Vibration     6          0.661              1.769              1.756
 Vibration     7          0.665              1.756              1.703
 Vibration     8          0.680              1.709              1.529
 Vibration     9          0.727              1.576              1.167
 Vibration    10          0.741              1.536              1.083
 Vibration    11          0.785              1.421              0.884
 Vibration    12          0.796              1.394              0.843
 Vibration    13          0.827              1.318              0.739
 Vibration    14          0.869              1.220              0.625
 Vibration    15          0.912              1.125              0.531
 Vibration    16          0.921              1.107              0.514
 Vibration    17          0.969              1.012              0.433

 Optimization completed.
    -- Stationary point found.
 Normal termination of Gaussian 16 at Wed Dec  9 17:06:05 2020.

 ----------------------------------------------------------------------
 # B3LYP/6-311++G(d,p) empiricaldispersion=gd3bj scf=xqc pop=npa geom=c
 heck
 ----------------------------------------------------------------------

 ---------------------------------------
 CID_123821924_JID_2249_Energie_neutraal
 ---------------------------------------
 Structure from the checkpoint file:  "JID_2249.chk"
 Charge =  0 Multiplicity = 1

 SCF Done:  E(RB3LYP) =  -629.283367356     A.U. after   14 cycles
 Normal termination of Gaussian 16 at Wed Dec  9 17:08:43 2020.

 ----------------------------------------------------------------------
 # B3LYP/6-311++G(d,p) empiricaldispersion=gd3bj scf=xqc pop=npa geom=c
 heck
 ----------------------------------------------------------------------

 -------------------------------------
 CID_123821924_JID_2249_Energie_kation
 -------------------------------------
 Structure from the checkpoint file:  "JID_2249.chk"
 Charge =  1 Multiplicity = 2

 SCF Done:  E(UB3LYP) =  -628.946640292     A.U. after   29 cycles
 Normal termination of Gaussian 16 at Wed Dec  9 17:15:51 2020.
 Gaussian 16:  ES64L-G16RevA.03 25-Dec-2016

 ----------------------------------------------------------------------
 # B3LYP/6-311++G(d,p) empiricaldispersion=gd3bj scf=xqc pop=npa geom=c
 heck
 ----------------------------------------------------------------------

 ------------------------------------
 CID_123821924_JID_2249_Energie_anion
 ------------------------------------
 Structure from the checkpoint file:  "JID_2249.chk"
 Charge = -1 Multiplicity = 2

                         Standard orientation:
 ---------------------------------------------------------------------
 Center     Atomic      Atomic             Coordinates (Angstroms)
 Number     Number       Type             X           Y           Z
 ---------------------------------------------------------------------
      1          6           0       -0.936151   -1.745669   -0.473182
      2          6           0       -1.981985   -0.744729    0.025322
      3          6           0       -1.787642    0.435482   -0.930269
      4          6           0       -0.256611    0.566159   -1.106627
      5          6           0        0.306835   -0.901341   -0.879561
      6          6           0        1.483592   -1.008101    0.101361
      7          8           0        2.614666   -1.260830   -0.285481
      8          7           0        1.167061   -0.795972    1.411514
      9          6           0        0.410389    1.612836   -0.233157
     10          8           0        1.496677    2.093727   -0.440202
     11          8           0       -0.350321    2.006855    0.838625
     12          8           0       -1.697178   -0.398285    1.390896
     13          1           0       -0.707541   -2.502347    0.281985
     14          1           0       -1.330696   -2.266909   -1.352577
     15          1           0       -2.999694   -1.150419   -0.016973
     16          1           0       -2.237300    0.176231   -1.895032
     17          1           0       -2.267406    1.356111   -0.585915
     18          1           0       -0.000420    0.874758   -2.122360
     19          1           0        0.719694   -1.258372   -1.822745
     20          1           0        0.195479   -0.746676    1.709790
     21          1           0        1.899252   -0.939450    2.092522
     22          1           0        0.199837    2.643726    1.332491
     23          1           0       -1.581940    0.565591    1.444188
 ---------------------------------------------------------------------

 SCF Done:  E(UB3LYP) =  -629.276752577     A.U. after   31 cycles

 The electronic state is 2-A.
 Alpha  occ. eigenvalues --  -19.07294 -19.02496 -19.01635 -18.98598 -14.22288
 Alpha  occ. eigenvalues --  -10.20816 -10.17087 -10.12557 -10.09950 -10.09235
 Alpha  occ. eigenvalues --  -10.07488 -10.07475  -1.01133  -0.93545  -0.93020
 Alpha  occ. eigenvalues --   -0.92168  -0.80119  -0.74625  -0.64700  -0.63131
 Alpha  occ. eigenvalues --   -0.54950  -0.51391  -0.49342  -0.46409  -0.43867
 Alpha  occ. eigenvalues --   -0.42025  -0.40914  -0.39635  -0.38138  -0.35640
 Alpha  occ. eigenvalues --   -0.34560  -0.32561  -0.31943  -0.31220  -0.30428
 Alpha  occ. eigenvalues --   -0.28685  -0.27609  -0.27052  -0.25110  -0.24766
 Alpha  occ. eigenvalues --   -0.22852  -0.22390  -0.19299  -0.17883  -0.17014
 Alpha  occ. eigenvalues --   -0.15159   0.04184
 Alpha virt. eigenvalues --    0.06429   0.08073   0.08348   0.09257   0.09430
 Alpha virt. eigenvalues --    0.10533   0.11126   0.11403   0.11927   0.12201
 Alpha virt. eigenvalues --    0.13085   0.15283   0.15902   0.16069   0.17155

  Beta  occ. eigenvalues --  -19.07227 -19.02474 -19.01618 -18.98596 -14.22269
  Beta  occ. eigenvalues --  -10.20803 -10.17087 -10.12541 -10.09932 -10.09225
  Beta  occ. eigenvalues --  -10.07465 -10.07432  -1.01052  -0.93537  -0.92972
  Beta  occ. eigenvalues --   -0.92102  -0.80095  -0.74575  -0.64632  -0.63075
  Beta  occ. eigenvalues --   -0.54856  -0.51336  -0.49251  -0.46359  -0.43839
  Beta  occ. eigenvalues --   -0.41941  -0.40865  -0.39590  -0.38083  -0.35580
  Beta  occ. eigenvalues --   -0.34539  -0.32505  -0.31909  -0.31180  -0.30397
  Beta  occ. eigenvalues --   -0.28636  -0.27570  -0.27013  -0.25067  -0.24720
  Beta  occ. eigenvalues --   -0.22808  -0.22337  -0.19250  -0.17824  -0.16992
  Beta  occ. eigenvalues --   -0.15148
  Beta virt. eigenvalues --    0.06984   0.07915   0.08621   0.08843   0.09746
  Beta virt. eigenvalues --    0.10181   0.10910   0.11513   0.11802   0.12207
  Beta virt. eigenvalues --    0.12607   0.13606   0.15411   0.16040   0.16601

 Mulliken charges and spin densities:
               1          2
     1  C    0.444124  -1.269713
     2  C   -0.395912   0.578488
     3  C    1.531178  -2.367505
     4  C   -0.136393   0.475628
     5  C    0.352144   0.031057
     6  C   -0.422301   0.271578
     7  O   -0.357242  -0.002660
     8  N   -0.404125  -0.043738
     9  C    0.474953  -0.769726
    10  O   -0.259432   0.034517
    11  O   -0.305493   0.077385
    12  O   -0.176379  -0.089447
    13  H    0.169231   0.028994
    14  H   -0.356469   0.521293
    15  H   -0.355142   0.584011
    16  H   -0.664589   0.843464
    17  H   -0.252254   0.468547
    18  H   -0.212764   0.500720
    19  H    0.163475   0.119852
    20  H    0.268772   0.014168
    21  H    0.177355   0.133311
    22  H   -0.460468   0.786096
    23  H    0.177732   0.073681
 Sum of Mulliken charges =  -1.00000   1.00000

 Dipole moment (field-independent basis, Debye):
    X=              0.9159    Y=             -2.2484    Z=              2.4750  Tot=              3.4670
 Quadrupole moment (field-independent basis, Debye-Ang):
   XX=           -122.7008   YY=           -110.5347   ZZ=           -105.6118
   XY=             -1.7957   XZ=             -2.0051   YZ=             -7.8875

 Summary of Natural Population Analysis:

                                       Natural Population
                Natural  -----------------------------------------------
    Atom  No    Charge         Core      Valence    Rydberg      Total
 -----------------------------------------------------------------------
      C    1   -0.20063      0.99960     2.19117    0.00986     3.20063
      C    2    0.06340      0.99954     1.92177    0.01529     2.93660
      C    3   -0.20631      0.99961     2.19698    0.00973     3.20631
      C    4   -0.15495      0.99954     2.14210    0.01331     3.15495
      C    5   -0.14147      0.99955     2.12904    0.01289     3.14147
      C    6    0.34007      0.99966     1.63632    0.02396     2.65993
      O    7   -0.31950      0.99987     3.31396    0.00567     4.31950
      N    8   -0.41317      0.99969     2.90639    0.00708     3.91317
      C    9    0.41350      0.99966     1.56097    0.02587     2.58650
      O   10   -0.29511      0.99986     3.28923    0.00601     4.29511
      O   11   -0.36341      0.99987     3.35509    0.00845     4.36341
      O   12   -0.39226      0.99989     3.38563    0.00674     4.39226
      H   13    0.10607      0.00000     0.39263    0.00129     0.39393
      H   14    0.10913      0.00000     0.38910    0.00178     0.39087
      H   15    0.08956      0.00000     0.40888    0.00156     0.41044
      H   16    0.11396      0.00000     0.38145    0.00459     0.38604
      H   17    0.11191      0.00000     0.38574    0.00235     0.38809
      H   18    0.12289      0.00000     0.37562    0.00148     0.37711
      H   19    0.11712      0.00000     0.38178    0.00110     0.38288
      H   20    0.20884      0.00000     0.28836    0.00280     0.29116
      H   21    0.19199      0.00000     0.30629    0.00171     0.30801
      H   22    0.25100      0.00000     0.23170    0.01730     0.24900
      H   23    0.24739      0.00000     0.24797    0.00464     0.25261
 =======================================================================
   * Total *    0.00000     11.99634    33.81820    0.18546    46.00000

 Normal termination of Gaussian 16 at Wed Dec  9 17:23:38 2020.
