 Gaussian 16, Revision A.03,

 -----------------------------------------------------------
 # opt freq B3LYP/6-31G(d) empiricaldispersion=gd3bj scf=xqc
 -----------------------------------------------------------

 -------------------------------
 CID_65333545_JID_10760_neutraal
 -------------------------------
 Symbolic Z-matrix:
 Charge =  0 Multiplicity = 1

 SCF Done:  E(RB3LYP) =  -881.786588725     A.U. after   15 cycles
 SCF Done:  E(RB3LYP) =  -881.794620385     A.U. after   12 cycles
 SCF Done:  E(RB3LYP) =  -881.795164025     A.U. after   12 cycles
 SCF Done:  E(RB3LYP) =  -881.795096758     A.U. after   12 cycles
 SCF Done:  E(RB3LYP) =  -881.795650438     A.U. after   11 cycles
 SCF Done:  E(RB3LYP) =  -881.795878203     A.U. after   12 cycles
 SCF Done:  E(RB3LYP) =  -881.796243469     A.U. after   13 cycles
 SCF Done:  E(RB3LYP) =  -881.796670256     A.U. after   12 cycles
 SCF Done:  E(RB3LYP) =  -881.796609341     A.U. after   12 cycles
 SCF Done:  E(RB3LYP) =  -881.796398174     A.U. after   14 cycles
 SCF Done:  E(RB3LYP) =  -881.799232986     A.U. after   10 cycles
 SCF Done:  E(RB3LYP) =  -881.799235519     A.U. after   10 cycles
 SCF Done:  E(RB3LYP) =  -881.799236919     A.U. after   10 cycles
 SCF Done:  E(RB3LYP) =  -881.799237675     A.U. after    9 cycles
 SCF Done:  E(RB3LYP) =  -881.799237785     A.U. after    8 cycles
 Optimization completed.
    -- Stationary point found.
 Normal termination of Gaussian 16 at Mon Dec 14 17:59:19 2020.

 --------------------------------------------------------------------
 #N Geom=AllCheck Guess=TCheck SCRF=Check GenChk RB3LYP/6-31G(d) Freq
 --------------------------------------------------------------------

 Structure from the checkpoint file:  "JID_10760.chk"
 -------------------------------
 CID_65333545_JID_10760_neutraal
 -------------------------------
 Charge =  0 Multiplicity = 1

 SCF Done:  E(RB3LYP) =  -881.799237785     A.U. after    1 cycles

  Exact polarizability: 227.108 -18.869 205.016  21.562  10.051 119.986
 Approx polarizability: 333.186 -23.411 301.399  46.000  20.346 194.961

                      1                      2                      3
                      A                      A                      A
 Frequencies --     20.7496                36.6544                38.1053
 Red. masses --      5.1566                 9.2705                 5.3603
 Frc consts  --      0.0013                 0.0073                 0.0046
 IR Inten    --      0.3795                 2.1037                 0.5882

                      4                      5                      6
                      A                      A                      A
 Frequencies --     56.1616                70.2325                85.4823
 Red. masses --      4.5314                 3.5294                 5.4340
 Frc consts  --      0.0084                 0.0103                 0.0234
 IR Inten    --      0.7873                 0.7680                 1.1598

                      7                      8                      9
                      A                      A                      A
 Frequencies --    132.7422               136.3026               163.9535
 Red. masses --      4.4836                 4.1085                 2.8432
 Frc consts  --      0.0465                 0.0450                 0.0450
 IR Inten    --      0.4559                 0.2943                 1.2331

                     10                     11                     12
                      A                      A                      A
 Frequencies --    205.2736               225.4670               260.6397
 Red. masses --      3.9853                 3.1751                 3.5491
 Frc consts  --      0.0989                 0.0951                 0.1421
 IR Inten    --      1.2229                12.8348                 3.9429

                     13                     14                     15
                      A                      A                      A
 Frequencies --    283.5880               285.3593               318.9845
 Red. masses --      2.6475                 3.3768                 2.0881
 Frc consts  --      0.1254                 0.1620                 0.1252
 IR Inten    --     18.3042                 2.0887                 7.0209

                     16                     17                     18
                      A                      A                      A
 Frequencies --    367.5113               378.4734               402.7807
 Red. masses --      2.3154                 1.4284                 3.5691
 Frc consts  --      0.1843                 0.1206                 0.3412
 IR Inten    --      9.4407                77.3803                 0.6761

                     19                     20                     21
                      A                      A                      A
 Frequencies --    428.6954               433.1629               445.3986
 Red. masses --      3.1500                 2.5702                 3.1080
 Frc consts  --      0.3411                 0.2841                 0.3633
 IR Inten    --      6.8385                 4.3684                 5.4443

                     22                     23                     24
                      A                      A                      A
 Frequencies --    477.4682               497.8643               537.4904
 Red. masses --      2.8400                 2.0375                 3.3124
 Frc consts  --      0.3815                 0.2976                 0.5638
 IR Inten    --      3.4662                 4.7678                 6.5420

                     25                     26                     27
                      A                      A                      A
 Frequencies --    547.4089               568.0602               586.5196
 Red. masses --      2.3907                 3.1216                 3.4271
 Frc consts  --      0.4221                 0.5935                 0.6946
 IR Inten    --     30.4768                45.1341                 5.3304

                     28                     29                     30
                      A                      A                      A
 Frequencies --    601.0144               612.2713               653.6008
 Red. masses --      2.8710                 3.4037                 1.4308
 Frc consts  --      0.6110                 0.7518                 0.3601
 IR Inten    --     16.4777                 7.3627                69.8363

                     31                     32                     33
                      A                      A                      A
 Frequencies --    670.1797               715.4282               748.8448
 Red. masses --      3.6968                 3.2482                 2.1965
 Frc consts  --      0.9783                 0.9796                 0.7257
 IR Inten    --      4.3311                 5.8554                56.4068

                     34                     35                     36
                      A                      A                      A
 Frequencies --    751.8799               761.3356               775.8521
 Red. masses --      1.4369                 2.6269                 2.1222
 Frc consts  --      0.4786                 0.8971                 0.7527
 IR Inten    --     25.0616                 9.2459                23.3190

                     37                     38                     39
                      A                      A                      A
 Frequencies --    777.4407               844.0801               847.0692
 Red. masses --      3.5183                 3.3974                 3.2484
 Frc consts  --      1.2529                 1.4261                 1.3733
 IR Inten    --     12.4232                 8.7278                 1.2613

                     40                     41                     42
                      A                      A                      A
 Frequencies --    855.6196               878.8106               884.6564
 Red. masses --      1.4925                 1.7660                 2.5153
 Frc consts  --      0.6438                 0.8036                 1.1598
 IR Inten    --      0.3195                 4.2643                 6.3945

                     43                     44                     45
                      A                      A                      A
 Frequencies --    903.4444               916.5350               919.7826
 Red. masses --      2.9672                 1.7081                 1.7424
 Frc consts  --      1.4269                 0.8454                 0.8685
 IR Inten    --      0.6345                 0.8132                 1.3859

                     46                     47                     48
                      A                      A                      A
 Frequencies --    944.3555               963.0279               983.6886
 Red. masses --      2.2582                 1.2253                 1.9418
 Frc consts  --      1.1865                 0.6695                 1.1071
 IR Inten    --      3.7081                 0.0211                 6.5888

                     49                     50                     51
                      A                      A                      A
 Frequencies --   1019.7862              1036.0241              1043.8819
 Red. masses --      2.5749                 2.1496                 2.0573
 Frc consts  --      1.5777                 1.3594                 1.3208
 IR Inten    --      0.7553                 7.4807                 4.0676

                     52                     53                     54
                      A                      A                      A
 Frequencies --   1069.4233              1081.4577              1098.5208
 Red. masses --      2.4091                 2.0354                 2.6238
 Frc consts  --      1.6233                 1.4026                 1.8655
 IR Inten    --     12.6418                 1.4421                 6.7927

                     55                     56                     57
                      A                      A                      A
 Frequencies --   1126.6670              1142.6349              1155.2228
 Red. masses --      2.2333                 1.8377                 1.7738
 Frc consts  --      1.6703                 1.4137                 1.3947
 IR Inten    --     11.5184                19.3036               158.2252

                     58                     59                     60
                      A                      A                      A
 Frequencies --   1169.6038              1174.4214              1186.2430
 Red. masses --      1.3847                 2.0889                 1.4023
 Frc consts  --      1.1161                 1.6975                 1.1626
 IR Inten    --     10.6636                15.4479                23.0652

                     61                     62                     63
                      A                      A                      A
 Frequencies --   1194.9594              1221.6931              1234.0480
 Red. masses --      1.9621                 1.5188                 1.5076
 Frc consts  --      1.6508                 1.3356                 1.3527
 IR Inten    --     54.8555                16.6864                11.9504

                     64                     65                     66
                      A                      A                      A
 Frequencies --   1244.8110              1248.8499              1271.0538
 Red. masses --      1.4617                 1.3909                 1.8018
 Frc consts  --      1.3345                 1.2781                 1.7151
 IR Inten    --     22.5166                50.3702                 6.4358

                     67                     68                     69
                      A                      A                      A
 Frequencies --   1283.7968              1306.2178              1322.5465
 Red. masses --      1.3343                 1.2215                 2.0570
 Frc consts  --      1.2957                 1.2279                 2.1198
 IR Inten    --     17.6782                 1.4948                16.8936

                     70                     71                     72
                      A                      A                      A
 Frequencies --   1336.7123              1343.9390              1358.5893
 Red. masses --      1.5433                 1.6097                 1.6332
 Frc consts  --      1.6247                 1.7130                 1.7761
 IR Inten    --     11.1028                26.6718                14.1461

                     73                     74                     75
                      A                      A                      A
 Frequencies --   1371.1607              1386.9061              1391.4415
 Red. masses --      1.4532                 1.4509                 1.4289
 Frc consts  --      1.6098                 1.6443                 1.6300
 IR Inten    --     47.4085                 6.0285                 3.9018

                     76                     77                     78
                      A                      A                      A
 Frequencies --   1395.1337              1407.1421              1412.3176
 Red. masses --      1.6894                 1.7227                 1.7770
 Frc consts  --      1.9373                 2.0097                 2.0883
 IR Inten    --     11.7457                19.0006                20.0580

                     79                     80                     81
                      A                      A                      A
 Frequencies --   1416.9232              1422.8815              1484.3361
 Red. masses --      2.5573                 1.2921                 2.8089
 Frc consts  --      3.0250                 1.5413                 3.6463
 IR Inten    --      8.3905                16.9156                 5.0957

                     82                     83                     84
                      A                      A                      A
 Frequencies --   1498.2071              1508.5844              1512.0226
 Red. masses --      2.9348                 1.0918                 1.1316
 Frc consts  --      3.8812                 1.4639                 1.5243
 IR Inten    --     33.9139                 5.6191                 4.0562

                     85                     86                     87
                      A                      A                      A
 Frequencies --   1514.2050              1517.1677              1524.3301
 Red. masses --      1.1472                 1.1276                 1.2349
 Frc consts  --      1.5498                 1.5293                 1.6906
 IR Inten    --     11.1297                 4.7544                70.9876

                     88                     89                     90
                      A                      A                      A
 Frequencies --   1526.4909              1528.7436              1541.7020
 Red. masses --      1.2002                 1.1264                 2.5453
 Frc consts  --      1.6478                 1.5510                 3.5644
 IR Inten    --     11.7569                14.5191                 4.5238

                     91                     92                     93
                      A                      A                      A
 Frequencies --   1620.5271              1637.6790              1679.4571
 Red. masses --      6.5641                 5.8958                 6.4187
 Frc consts  --     10.1563                 9.3165                10.6668
 IR Inten    --      0.7719                 2.2631                 4.8532

                     94                     95                     96
                      A                      A                      A
 Frequencies --   1855.3776              3000.4037              3008.4423
 Red. masses --      9.4303                 1.0821                 1.0695
 Frc consts  --     19.1268                 5.7396                 5.7034
 IR Inten    --    286.8196                24.3406                37.6620

                     97                     98                     99
                      A                      A                      A
 Frequencies --   3032.0489              3033.2893              3037.6930
 Red. masses --      1.0686                 1.0669                 1.0617
 Frc consts  --      5.7880                 5.7835                 5.7722
 IR Inten    --     14.7193                19.4938                64.8501

                    100                    101                    102
                      A                      A                      A
 Frequencies --   3044.0464              3057.0462              3081.5949
 Red. masses --      1.0650                 1.0897                 1.0939
 Frc consts  --      5.8142                 6.0000                 6.1204
 IR Inten    --     22.4393                51.0246                27.8527

                    103                    104                    105
                      A                      A                      A
 Frequencies --   3083.5352              3084.4179              3089.7718
 Red. masses --      1.1000                 1.0848                 1.0783
 Frc consts  --      6.1621                 6.0806                 6.0654
 IR Inten    --     68.4173                30.2980                33.8825

                    106                    107                    108
                      A                      A                      A
 Frequencies --   3098.7136              3139.9503              3179.2041
 Red. masses --      1.0998                 1.1051                 1.0851
 Frc consts  --      6.2219                 6.4197                 6.4616
 IR Inten    --     52.8857                14.4917                 2.5301

                    109                    110                    111
                      A                      A                      A
 Frequencies --   3185.5022              3196.3112              3208.4452
 Red. masses --      1.0883                 1.0932                 1.0969
 Frc consts  --      6.5064                 6.5805                 6.6526
 IR Inten    --      3.9501                38.0317                34.0780

                    112                    113                    114
                      A                      A                      A
 Frequencies --   3564.4448              3677.1370              3694.4878
 Red. masses --      1.0748                 1.0639                 1.0784
 Frc consts  --      8.0458                 8.4756                 8.6725
 IR Inten    --      4.4159                52.8151                87.3842

 - Thermochemistry -
 -------------------
 Temperature   298.150 Kelvin.  Pressure   1.00000 Atm.
 Atom     1 has atomic number  6 and mass  12.00000

 Molecular mass:   272.15248 amu.
 Principal axes and moments of inertia in atomic units:
                           1         2         3
     Eigenvalues --  3734.456758292.21807**********
           X            0.99996  -0.00118   0.00872
           Y            0.00112   0.99997   0.00714
           Z           -0.00872  -0.00713   0.99994
 This molecule is an asymmetric top.
 Rotational symmetry number  1.
 Warning -- assumption of classical behavior for rotation
           may cause significant error
 Rotational temperatures (Kelvin)      0.02319     0.01045     0.00789
 Rotational constants (GHZ):           0.48327     0.21764     0.16436
 Zero-point vibrational energy     899111.9 (Joules/Mol)
                                  214.89290 (Kcal/Mol)
 Warning -- explicit consideration of  29 degrees of freedom as
           vibrations may cause significant error
 Vibrational temperatures:     29.85    52.74    54.83    80.80   101.05
          (Kelvin)            122.99   190.99   196.11   235.89   295.34
                              324.40   375.00   408.02   410.57   458.95
                              528.77   544.54   579.51   616.80   623.22
                              640.83   686.97   716.32   773.33   787.60
                              817.31   843.87   864.73   880.92   940.39
                              964.24  1029.34  1077.42  1081.79  1095.39
                             1116.28  1118.56  1214.44  1218.74  1231.05
                             1264.41  1272.82  1299.85  1318.69  1323.36
                             1358.72  1385.58  1415.31  1467.24  1490.61
                             1501.91  1538.66  1555.98  1580.53  1621.02
                             1644.00  1662.11  1682.80  1689.73  1706.74
                             1719.28  1757.74  1775.52  1791.01  1796.82
                             1828.76  1847.10  1879.36  1902.85  1923.23
                             1933.63  1954.71  1972.79  1995.45  2001.97
                             2007.29  2024.56  2032.01  2038.64  2047.21
                             2135.63  2155.59  2170.52  2175.46  2178.60
                             2182.87  2193.17  2196.28  2199.52  2218.17
                             2331.58  2356.25  2416.36  2669.47  4316.91
                             4328.48  4362.44  4364.23  4370.56  4379.70
                             4398.41  4433.73  4436.52  4437.79  4445.49
                             4458.36  4517.69  4574.17  4583.23  4598.78
                             4616.24  5128.44  5290.58  5315.54

 Zero-point correction=                           0.342454 (Hartree/Particle)
 Thermal correction to Energy=                    0.360358
 Thermal correction to Enthalpy=                  0.361303
 Thermal correction to Gibbs Free Energy=         0.294754
 Sum of electronic and zero-point Energies=           -881.456784
 Sum of electronic and thermal Energies=              -881.438879
 Sum of electronic and thermal Enthalpies=            -881.437935
 Sum of electronic and thermal Free Energies=         -881.504484

                     E (Thermal)             CV                S
                      KCal/Mol        Cal/Mol-Kelvin    Cal/Mol-Kelvin
 Total                  226.128             70.315            140.063
 Electronic               0.000              0.000              0.000
 Translational            0.889              2.981             42.702
 Rotational               0.889              2.981             34.185
 Vibrational            224.351             64.354             63.176
 Vibration     1          0.593              1.986              6.561
 Vibration     2          0.594              1.982              5.432
 Vibration     3          0.594              1.982              5.355
 Vibration     4          0.596              1.975              4.588
 Vibration     5          0.598              1.968              4.147
 Vibration     6          0.601              1.959              3.761
 Vibration     7          0.613              1.921              2.906
 Vibration     8          0.614              1.917              2.855
 Vibration     9          0.623              1.887              2.504
 Vibration    10          0.640              1.832              2.085
 Vibration    11          0.650              1.802              1.915
 Vibration    12          0.669              1.745              1.657
 Vibration    13          0.682              1.704              1.512
 Vibration    14          0.683              1.701              1.501
 Vibration    15          0.705              1.637              1.315
 Vibration    16          0.740              1.539              1.090
 Vibration    17          0.749              1.516              1.045
 Vibration    18          0.768              1.464              0.952
 Vibration    19          0.790              1.408              0.863
 Vibration    20          0.794              1.398              0.848
 Vibration    21          0.805              1.371              0.810
 Vibration    22          0.834              1.300              0.717
 Vibration    23          0.853              1.255              0.663
 Vibration    24          0.893              1.167              0.571
 Vibration    25          0.903              1.145              0.550
 Vibration    26          0.924              1.100              0.508
 Vibration    27          0.944              1.061              0.473
 Vibration    28          0.959              1.030              0.448
 Vibration    29          0.971              1.006              0.429

                           ! Non-Optimized Parameters !
 Normal termination of Gaussian 16 at Mon Dec 14 18:19:30 2020.

 ----------------------------------------------------------------------
 # B3LYP/6-311++G(d,p) empiricaldispersion=gd3bj scf=xqc pop=npa geom=c
 heck
 ----------------------------------------------------------------------

 ---------------------------------------
 CID_65333545_JID_10760_Energie_neutraal
 ---------------------------------------
 Structure from the checkpoint file:  "JID_10760.chk"
 Charge =  0 Multiplicity = 1

 SCF Done:  E(RB3LYP) =  -882.048505788     A.U. after   15 cycles
 Normal termination of Gaussian 16 at Mon Dec 14 18:27:48 2020.

 ----------------------------------------------------------------------
 # B3LYP/6-311++G(d,p) empiricaldispersion=gd3bj scf=xqc pop=npa geom=c
 heck
 ----------------------------------------------------------------------

 -------------------------------------
 CID_65333545_JID_10760_Energie_kation
 -------------------------------------
 Structure from the checkpoint file:  "JID_10760.chk"
 Charge =  1 Multiplicity = 2

 SCF Done:  E(UB3LYP) =  -881.788253236     A.U. after   24 cycles
 Normal termination of Gaussian 16 at Mon Dec 14 18:45:47 2020.
 Gaussian 16:  ES64L-G16RevA.03 25-Dec-2016

 ----------------------------------------------------------------------
 # B3LYP/6-311++G(d,p) empiricaldispersion=gd3bj scf=xqc pop=npa geom=c
 heck
 ----------------------------------------------------------------------

 ------------------------------------
 CID_65333545_JID_10760_Energie_anion
 ------------------------------------
 Structure from the checkpoint file:  "JID_10760.chk"
 Charge = -1 Multiplicity = 2

                         Standard orientation:
 ---------------------------------------------------------------------
 Center     Atomic      Atomic             Coordinates (Angstroms)
 Number     Number       Type             X           Y           Z
 ---------------------------------------------------------------------
      1          6           0        1.617854    3.408878   -0.039846
      2          6           0        0.137467    3.096058    0.209142
      3          6           0       -0.340564    1.796468   -0.479479
      4          6           0        0.730989    0.752146   -0.297826
      5          6           0        2.005788    0.965346    0.173371
      6          6           0        2.521072    2.318925    0.562380
      7          6           0        2.682993   -0.305075    0.168866
      8          6           0        3.972516   -0.727554    0.528013
      9          6           0        4.309334   -2.067950    0.380357
     10          6           0        3.378795   -3.000822   -0.118531
     11          6           0        2.091703   -2.613653   -0.478708
     12          6           0        1.758308   -1.265826   -0.330444
     13          7           0        0.577128   -0.597656   -0.593134
     14          7           0       -1.670334    1.446458    0.023250
     15          6           0       -2.730715    1.056519   -0.884083
     16          6           0       -2.755411   -0.393458   -1.412067
     17          6           0       -2.769066   -1.458588   -0.295125
     18          6           0       -3.943666   -1.233921    0.628894
     19          8           0       -5.102829   -1.458482    0.365309
     20          8           0       -3.554912   -0.681729    1.809104
     21          1           0        1.801267    3.471250   -1.121534
     22          1           0        1.870857    4.388510    0.382467
     23          1           0       -0.034956    2.981280    1.287872
     24          1           0       -0.507367    3.915712   -0.124867
     25          1           0       -0.462160    1.999261   -1.554881
     26          1           0        3.556245    2.447922    0.220116
     27          1           0        2.547795    2.425949    1.657754
     28          1           0        4.696171   -0.014972    0.914752
     29          1           0        5.304957   -2.405781    0.653611
     30          1           0        3.670367   -4.041908   -0.223793
     31          1           0        1.374242   -3.334575   -0.861872
     32          1           0       -0.224373   -0.997489   -1.051155
     33          1           0       -1.647468    0.904116    0.879618
     34          1           0       -3.687597    1.247062   -0.379370
     35          1           0       -2.704145    1.738777   -1.742190
     36          1           0       -3.653401   -0.524193   -2.028039
     37          1           0       -1.898521   -0.574003   -2.075733
     38          1           0       -2.876183   -2.454281   -0.736129
     39          1           0       -1.844377   -1.431576    0.286417
     40          1           0       -4.371381   -0.525936    2.321349
 ---------------------------------------------------------------------

 SCF Done:  E(UB3LYP) =  -882.040210983     A.U. after   33 cycles
 SCF Done:  E(UB3LYP) =  -882.040210983     a.u. after    1 cycles

 The electronic state is 2-A.
 Alpha  occ. eigenvalues --  -19.07843 -19.02105 -14.25781 -14.20212 -10.21022
 Alpha  occ. eigenvalues --  -10.11955 -10.11348 -10.10847 -10.10270 -10.08985
 Alpha  occ. eigenvalues --  -10.08602 -10.08381 -10.08231 -10.08189 -10.08135
 Alpha  occ. eigenvalues --  -10.07969 -10.07838 -10.07832 -10.07536 -10.07046
 Alpha  occ. eigenvalues --   -1.01671  -0.92797  -0.88677  -0.81611  -0.75146
 Alpha  occ. eigenvalues --   -0.73823  -0.70519  -0.68113  -0.65586  -0.63758
 Alpha  occ. eigenvalues --   -0.62670  -0.60468  -0.56207  -0.53405  -0.51833
 Alpha  occ. eigenvalues --   -0.51082  -0.49420  -0.48527  -0.45414  -0.44875
 Alpha  occ. eigenvalues --   -0.42034  -0.40756  -0.39761  -0.38729  -0.38608
 Alpha  occ. eigenvalues --   -0.36966  -0.36488  -0.35351  -0.35136  -0.34339
 Alpha  occ. eigenvalues --   -0.34243  -0.33270  -0.32583  -0.31939  -0.31316
 Alpha  occ. eigenvalues --   -0.31173  -0.29964  -0.28598  -0.27415  -0.27259
 Alpha  occ. eigenvalues --   -0.27049  -0.25812  -0.25559  -0.25039  -0.24429
 Alpha  occ. eigenvalues --   -0.23736  -0.23407  -0.23121  -0.19018  -0.18493
 Alpha  occ. eigenvalues --   -0.14053  -0.12555  -0.11041   0.03969
 Alpha virt. eigenvalues --    0.06013   0.06115   0.06437   0.06676   0.07506
 Alpha virt. eigenvalues --    0.07973   0.08627   0.08780   0.09338   0.09729
 Alpha virt. eigenvalues --    0.09844   0.10038   0.10724   0.11050   0.11717

  Beta  occ. eigenvalues --  -19.07796 -19.02069 -14.25763 -14.20202 -10.20974
  Beta  occ. eigenvalues --  -10.11943 -10.11353 -10.10819 -10.10250 -10.08960
  Beta  occ. eigenvalues --  -10.08599 -10.08350 -10.08223 -10.08159 -10.08114
  Beta  occ. eigenvalues --  -10.07954 -10.07840 -10.07829 -10.07525 -10.07040
  Beta  occ. eigenvalues --   -1.01578  -0.92719  -0.88648  -0.81586  -0.75115
  Beta  occ. eigenvalues --   -0.73796  -0.70455  -0.68076  -0.65546  -0.63714
  Beta  occ. eigenvalues --   -0.62635  -0.60395  -0.56158  -0.53311  -0.51801
  Beta  occ. eigenvalues --   -0.51050  -0.49374  -0.48436  -0.45380  -0.44839
  Beta  occ. eigenvalues --   -0.41987  -0.40695  -0.39706  -0.38696  -0.38544
  Beta  occ. eigenvalues --   -0.36891  -0.36419  -0.35315  -0.35086  -0.34307
  Beta  occ. eigenvalues --   -0.34211  -0.33236  -0.32534  -0.31877  -0.31286
  Beta  occ. eigenvalues --   -0.31141  -0.29915  -0.28561  -0.27383  -0.27213
  Beta  occ. eigenvalues --   -0.27015  -0.25760  -0.25528  -0.25002  -0.24371
  Beta  occ. eigenvalues --   -0.23713  -0.23292  -0.23079  -0.18959  -0.18405
  Beta  occ. eigenvalues --   -0.14004  -0.12504  -0.10945
  Beta virt. eigenvalues --    0.05949   0.06528   0.06682   0.06993   0.07124
  Beta virt. eigenvalues --    0.07995   0.08090   0.08735   0.09116   0.09546
  Beta virt. eigenvalues --    0.09961   0.09972   0.10268   0.11076   0.11163

 Mulliken charges and spin densities:
               1          2
     1  C   -0.272510  -0.096170
     2  C   -0.051274   0.181021
     3  C   -0.582365  -0.665839
     4  C   -0.272718  -0.762027
     5  C    0.939996  -0.146368
     6  C   -0.868075   0.286388
     7  C    1.543774   0.154187
     8  C   -0.736171   0.352893
     9  C   -0.275031  -0.100944
    10  C    0.113671  -0.472488
    11  C   -0.451108  -0.103550
    12  C   -0.111015  -0.225370
    13  N    0.099323   0.075717
    14  N    0.258690  -0.099700
    15  C   -0.663681   0.305882
    16  C    1.249664  -1.231579
    17  C   -0.058754  -0.394489
    18  C    0.264558  -0.458582
    19  O   -0.301347   0.054906
    20  O   -0.144760   0.022931
    21  H   -0.031735   0.164354
    22  H    0.056203   0.108963
    23  H    0.016227   0.122151
    24  H   -0.037739   0.217840
    25  H   -0.210291   0.398649
    26  H    0.150365  -0.022906
    27  H    0.067579   0.087668
    28  H    0.059543   0.066208
    29  H    0.094504   0.041273
    30  H    0.083531   0.060403
    31  H   -0.614943   0.766300
    32  H    0.702007  -0.385013
    33  H    0.343896  -0.074409
    34  H   -0.011981   0.223488
    35  H   -0.282528   0.428892
    36  H    0.036656   0.180447
    37  H   -0.612983   0.767980
    38  H   -0.553506   0.779815
    39  H    0.244832  -0.077599
    40  H   -0.180502   0.468677
 Sum of Mulliken charges =  -1.00000   1.00000

 Dipole moment (field-independent basis, Debye):
    X=              6.2932    Y=              3.3863    Z=              1.9919  Tot=              7.4188
 Quadrupole moment (field-independent basis, Debye-Ang):
   XX=           -197.2060   YY=           -171.4171   ZZ=           -159.3332
   XY=             -6.2462   XZ=              2.3508   YZ=             -1.0762

 Summary of Natural Population Analysis:

                                       Natural Population
                Natural  -----------------------------------------------
    Atom  No    Charge         Core      Valence    Rydberg      Total
 -----------------------------------------------------------------------
      C    1   -0.18689      0.99964     2.18011    0.00714     3.18689
      C    2   -0.18304      0.99962     2.17518    0.00824     3.18304
      C    3   -0.02154      0.99954     2.00786    0.01415     3.02154
      C    4    0.09185      0.99944     1.89582    0.01289     2.90815
      C    5   -0.05242      0.99943     2.04438    0.00862     3.05242
      C    6   -0.19132      0.99960     2.18423    0.00748     3.19132
      C    7   -0.04974      0.99950     2.03909    0.01115     3.04974
      C    8   -0.07060      0.99954     2.06677    0.00429     3.07060
      C    9   -0.13075      0.99961     2.11706    0.01408     3.13075
      C   10   -0.10842      0.99958     2.09935    0.00949     3.10842
      C   11   -0.11313      0.99952     2.10336    0.01025     3.11313
      C   12    0.08252      0.99948     1.90560    0.01241     2.91748
      N   13   -0.27588      0.99962     2.76805    0.00821     3.77588
      N   14   -0.34838      0.99973     2.83661    0.01205     3.84838
      C   15   -0.08584      0.99961     2.07412    0.01211     3.08584
      C   16   -0.19526      0.99962     2.18689    0.00875     3.19526
      C   17   -0.24604      0.99957     2.23666    0.00981     3.24604
      C   18    0.41336      0.99972     1.56218    0.02475     2.58664
      O   19   -0.30586      0.99987     3.29975    0.00625     4.30586
      O   20   -0.34851      0.99988     3.34187    0.00676     4.34851
      H   21    0.09501      0.00000     0.40361    0.00138     0.40499
      H   22    0.09605      0.00000     0.40284    0.00112     0.40395
      H   23    0.09623      0.00000     0.40235    0.00142     0.40377
      H   24    0.10206      0.00000     0.39665    0.00130     0.39794
      H   25    0.10109      0.00000     0.39691    0.00200     0.39891
      H   26    0.09889      0.00000     0.39963    0.00148     0.40111
      H   27    0.09665      0.00000     0.40174    0.00161     0.40335
      H   28    0.09409      0.00000     0.40429    0.00162     0.40591
      H   29    0.09609      0.00000     0.40298    0.00092     0.40391
      H   30    0.09784      0.00000     0.40139    0.00077     0.40216
      H   31    0.10563      0.00000     0.39300    0.00137     0.39437
      H   32    0.20448      0.00000     0.29217    0.00335     0.29552
      H   33    0.18348      0.00000     0.31311    0.00342     0.31652
      H   34    0.09343      0.00000     0.40530    0.00127     0.40657
      H   35    0.09702      0.00000     0.40174    0.00124     0.40298
      H   36    0.10567      0.00000     0.39302    0.00130     0.39433
      H   37    0.09458      0.00000     0.40298    0.00244     0.40542
      H   38    0.11973      0.00000     0.37770    0.00257     0.38027
      H   39    0.10636      0.00000     0.39137    0.00227     0.39364
      H   40    0.24156      0.00000     0.25162    0.00682     0.25844
 =======================================================================
   * Total *    0.00004     19.99210    52.75932    0.24855    72.99996

 Normal termination of Gaussian 16 at Mon Dec 14 19:10:43 2020.
