 Gaussian 16, Revision A.03,

 -----------------------------------------------------------
 # opt freq B3LYP/6-31G(d) empiricaldispersion=gd3bj scf=xqc
 -----------------------------------------------------------

 -------------------------------
 CID_123522236_JID_5946_neutraal
 -------------------------------
 Symbolic Z-matrix:
 Charge =  0 Multiplicity = 1

 SCF Done:  E(RB3LYP) =  -584.941174628     A.U. after   14 cycles
 SCF Done:  E(RB3LYP) =  -584.943645551     A.U. after   11 cycles
 SCF Done:  E(RB3LYP) =  -584.943906824     A.U. after   11 cycles
 SCF Done:  E(RB3LYP) =  -584.943964473     A.U. after   10 cycles
 SCF Done:  E(RB3LYP) =  -584.943973363     A.U. after    9 cycles
 SCF Done:  E(RB3LYP) =  -584.943981307     A.U. after    9 cycles
 SCF Done:  E(RB3LYP) =  -584.943982276     A.U. after    7 cycles
 SCF Done:  E(RB3LYP) =  -584.943982333     A.U. after    6 cycles
 Optimization completed.
    -- Stationary point found.
 Normal termination of Gaussian 16 at Thu Dec 10 17:34:56 2020.

 --------------------------------------------------------------------
 #N Geom=AllCheck Guess=TCheck SCRF=Check GenChk RB3LYP/6-31G(d) Freq
 --------------------------------------------------------------------

 Structure from the checkpoint file:  "JID_5946.chk"
 -------------------------------
 CID_123522236_JID_5946_neutraal
 -------------------------------
 Charge =  0 Multiplicity = 1

 SCF Done:  E(RB3LYP) =  -584.943982333     A.U. after    1 cycles

  Exact polarizability: 201.122   1.775 144.621   2.036 -11.908 115.105
 Approx polarizability: 262.540   3.961 230.716   3.492 -34.112 174.516

                      1                      2                      3
                      A                      A                      A
 Frequencies --     40.2613                57.4957                87.0753
 Red. masses --      2.8179                 3.2532                 3.0833
 Frc consts  --      0.0027                 0.0063                 0.0138
 IR Inten    --      0.0021                 0.1753                 0.0477

                      4                      5                      6
                      A                      A                      A
 Frequencies --    144.2851               165.7186               187.9140
 Red. masses --      3.0851                 3.2853                 2.7691
 Frc consts  --      0.0378                 0.0532                 0.0576
 IR Inten    --      0.1006                 0.2030                 0.4485

                      7                      8                      9
                      A                      A                      A
 Frequencies --    228.2811               234.2594               248.6216
 Red. masses --      1.8051                 1.1127                 1.2388
 Frc consts  --      0.0554                 0.0360                 0.0451
 IR Inten    --      0.0411                 0.0116                 0.0688

                     10                     11                     12
                      A                      A                      A
 Frequencies --    255.9513               272.7182               294.9802
 Red. masses --      1.0952                 1.0961                 2.4731
 Frc consts  --      0.0423                 0.0480                 0.1268
 IR Inten    --      0.1077                 0.1099                 0.7070

                     13                     14                     15
                      A                      A                      A
 Frequencies --    309.6223               325.8564               337.6011
 Red. masses --      2.2844                 2.6800                 1.0983
 Frc consts  --      0.1290                 0.1677                 0.0738
 IR Inten    --      0.2413                 0.0391                 0.0796

                     16                     17                     18
                      A                      A                      A
 Frequencies --    349.8233               369.7712               408.2945
 Red. masses --      2.2563                 2.4749                 2.7123
 Frc consts  --      0.1627                 0.1994                 0.2664
 IR Inten    --      0.0568                 0.1786                 0.3643

                     19                     20                     21
                      A                      A                      A
 Frequencies --    441.7284               446.2391               474.5589
 Red. masses --      2.5635                 2.9335                 2.8630
 Frc consts  --      0.2947                 0.3442                 0.3799
 IR Inten    --      0.3730                 2.4899                 0.0328

                     22                     23                     24
                      A                      A                      A
 Frequencies --    498.5878               529.3152               587.2915
 Red. masses --      3.2447                 2.8730                 4.6121
 Frc consts  --      0.4752                 0.4743                 0.9372
 IR Inten    --      0.4809                 0.2005                 0.1736

                     25                     26                     27
                      A                      A                      A
 Frequencies --    630.1461               687.6877               709.9580
 Red. masses --      3.0299                 4.2092                 4.0227
 Frc consts  --      0.7089                 1.1728                 1.1946
 IR Inten    --      6.0418                 0.1164                 0.6542

                     28                     29                     30
                      A                      A                      A
 Frequencies --    758.2746               789.0286               823.2974
 Red. masses --      4.0232                 2.8251                 2.2434
 Frc consts  --      1.3629                 1.0363                 0.8959
 IR Inten    --      0.7125                 0.7983                 0.7363

                     31                     32                     33
                      A                      A                      A
 Frequencies --    829.7524               844.8876               885.7631
 Red. masses --      2.9595                 1.4477                 1.7567
 Frc consts  --      1.2005                 0.6089                 0.8120
 IR Inten    --      0.6473                13.5130                 1.0509

                     34                     35                     36
                      A                      A                      A
 Frequencies --    914.0164               930.0917               940.2134
 Red. masses --      1.7596                 2.5897                 1.7462
 Frc consts  --      0.8661                 1.3199                 0.9095
 IR Inten    --      3.8591                 3.0248                 0.7274

                     37                     38                     39
                      A                      A                      A
 Frequencies --    947.5705               953.0856               954.0531
 Red. masses --      1.6903                 1.3294                 1.6945
 Frc consts  --      0.8942                 0.7115                 0.9088
 IR Inten    --      1.9719                 0.0559                 1.7716

                     40                     41                     42
                      A                      A                      A
 Frequencies --    974.6443              1017.6298              1032.7180
 Red. masses --      1.1968                 2.0693                 1.3429
 Frc consts  --      0.6698                 1.2626                 0.8438
 IR Inten    --      0.1664                 4.1721                 2.3967

                     43                     44                     45
                      A                      A                      A
 Frequencies --   1043.0958              1058.3927              1064.1307
 Red. masses --      1.8387                 1.4011                 1.3900
 Frc consts  --      1.1787                 0.9247                 0.9274
 IR Inten    --      1.2040                 0.4042                 0.0039

                     46                     47                     48
                      A                      A                      A
 Frequencies --   1096.1614              1112.1967              1118.7206
 Red. masses --      2.1539                 1.6096                 1.9704
 Frc consts  --      1.5249                 1.1731                 1.4530
 IR Inten    --      2.6695                 3.8863                 3.1362

                     49                     50                     51
                      A                      A                      A
 Frequencies --   1150.1383              1173.0473              1207.3572
 Red. masses --      1.8891                 1.6858                 1.4649
 Frc consts  --      1.4723                 1.3668                 1.2581
 IR Inten    --      4.0862                 0.2563                 3.6904

                     52                     53                     54
                      A                      A                      A
 Frequencies --   1215.6095              1240.0561              1243.4824
 Red. masses --      1.6505                 1.8049                 2.7010
 Frc consts  --      1.4370                 1.6353                 2.4607
 IR Inten    --      0.7712                 0.2253                 3.3609

                     55                     56                     57
                      A                      A                      A
 Frequencies --   1246.7392              1258.0434              1306.8303
 Red. masses --      2.6599                 1.5244                 2.7818
 Frc consts  --      2.4360                 1.4215                 2.7991
 IR Inten    --      0.7530                 3.7592                25.7761

                     58                     59                     60
                      A                      A                      A
 Frequencies --   1317.4122              1326.7052              1338.1864
 Red. masses --      2.4120                 1.4933                 1.3283
 Frc consts  --      2.4664                 1.5486                 1.4015
 IR Inten    --      1.4099                 1.1559                 1.8271

                     61                     62                     63
                      A                      A                      A
 Frequencies --   1357.2724              1378.3461              1393.2698
 Red. masses --      1.6974                 3.1002                 1.4726
 Frc consts  --      1.8423                 3.4702                 1.6842
 IR Inten    --      4.4955                 5.3936                 8.0041

                     64                     65                     66
                      A                      A                      A
 Frequencies --   1425.4043              1426.3149              1433.5906
 Red. masses --      1.2656                 1.2148                 1.2220
 Frc consts  --      1.5150                 1.4561                 1.4797
 IR Inten    --      5.6745                 3.8329                 1.5646

                     67                     68                     69
                      A                      A                      A
 Frequencies --   1437.2645              1458.4114              1469.3718
 Red. masses --      1.2481                 1.2247                 3.2790
 Frc consts  --      1.5191                 1.5348                 4.1712
 IR Inten    --      5.0419                 2.8653                 5.8084

                     70                     71                     72
                      A                      A                      A
 Frequencies --   1512.1827              1512.5293              1516.9924
 Red. masses --      1.1104                 1.0520                 1.0457
 Frc consts  --      1.4961                 1.4180                 1.4178
 IR Inten    --      1.5711                 0.0619                 0.0704

                     73                     74                     75
                      A                      A                      A
 Frequencies --   1520.6904              1524.6100              1527.6467
 Red. masses --      1.0798                 1.0498                 1.0690
 Frc consts  --      1.4712                 1.4377                 1.4699
 IR Inten    --      2.1524                 5.9287                 1.3195

                     76                     77                     78
                      A                      A                      A
 Frequencies --   1529.9817              1531.4738              1533.1480
 Red. masses --      1.0724                 1.0900                 1.0834
 Frc consts  --      1.4791                 1.5062                 1.5005
 IR Inten    --      3.3470                 3.9788                 5.6770

                     79                     80                     81
                      A                      A                      A
 Frequencies --   1538.1661              1544.7550              1552.2826
 Red. masses --      1.0508                 1.7252                 1.1580
 Frc consts  --      1.4648                 2.4256                 1.6440
 IR Inten    --      4.7492                 9.7032                19.5394

                     82                     83                     84
                      A                      A                      A
 Frequencies --   1637.5375              1675.6293              3030.4658
 Red. masses --      6.3695                 6.5263                 1.0666
 Frc consts  --     10.0633                10.7962                 5.7715
 IR Inten    --      1.8119                 4.8373                26.8251

                     85                     86                     87
                      A                      A                      A
 Frequencies --   3036.1734              3042.3087              3042.9244
 Red. masses --      1.0786                 1.0392                 1.0371
 Frc consts  --      5.8581                 5.6672                 5.6576
 IR Inten    --     14.4320                45.2046                17.9009

                     88                     89                     90
                      A                      A                      A
 Frequencies --   3043.7264              3044.3914              3052.2134
 Red. masses --      1.0355                 1.0349                 1.0363
 Frc consts  --      5.6521                 5.6515                 5.6882
 IR Inten    --     29.3353                23.7078                31.0703

                     91                     92                     93
                      A                      A                      A
 Frequencies --   3060.4331              3077.4250              3109.4911
 Red. masses --      1.0837                 1.0975                 1.1017
 Frc consts  --      5.9805                 6.1238                 6.2763
 IR Inten    --     47.3836                26.4490                 5.4542

                     94                     95                     96
                      A                      A                      A
 Frequencies --   3110.1210              3110.1651              3110.8764
 Red. masses --      1.1026                 1.1023                 1.1023
 Frc consts  --      6.2840                 6.2821                 6.2850
 IR Inten    --     12.4170                 6.0988                23.9494

                     97                     98                     99
                      A                      A                      A
 Frequencies --   3112.2282              3116.1380              3117.9085
 Red. masses --      1.1023                 1.1023                 1.1028
 Frc consts  --      6.2909                 6.3065                 6.3166
 IR Inten    --     91.1431                35.3733                23.6396

                    100                    101                    102
                      A                      A                      A
 Frequencies --   3118.2510              3123.9938              3126.2948
 Red. masses --      1.1014                 1.1021                 1.1013
 Frc consts  --      6.3098                 6.3372                 6.3418
 IR Inten    --     96.7371                20.1938                44.3244

                    103                    104                    105
                      A                      A                      A
 Frequencies --   3176.0347              3182.5732              3223.4826
 Red. masses --      1.0893                 1.0889                 1.0903
 Frc consts  --      6.4738                 6.4984                 6.6750
 IR Inten    --     22.9300                15.5666                15.6420

 - Thermochemistry -
 -------------------
 Temperature   298.150 Kelvin.  Pressure   1.00000 Atm.
 Atom     1 has atomic number  6 and mass  12.00000

 Molecular mass:   202.17215 amu.
 Principal axes and moments of inertia in atomic units:
                           1         2         3
     Eigenvalues --  1414.659855451.083215923.27542
           X            1.00000   0.00128  -0.00055
           Y           -0.00127   0.99989   0.01503
           Z            0.00057  -0.01503   0.99989
 This molecule is an asymmetric top.
 Rotational symmetry number  1.
 Warning -- assumption of classical behavior for rotation
           may cause significant error
 Rotational temperatures (Kelvin)      0.06123     0.01589     0.01462
 Rotational constants (GHZ):           1.27574     0.33108     0.30469
 Zero-point vibrational energy     879493.7 (Joules/Mol)
                                  210.20404 (Kcal/Mol)
 Warning -- explicit consideration of  24 degrees of freedom as
           vibrations may cause significant error
 Vibrational temperatures:     57.93    82.72   125.28   207.59   238.43
          (Kelvin)            270.37   328.45   337.05   357.71   368.26
                              392.38   424.41   445.48   468.83   485.73
                              503.32   532.02   587.44   635.55   642.04
                              682.78   717.36   761.57   844.98   906.64
                              989.43  1021.47  1090.99  1135.24  1184.54
                             1193.83  1215.60  1274.42  1315.07  1338.19
                             1352.76  1363.34  1371.28  1372.67  1402.30
                             1464.14  1485.85  1500.78  1522.79  1531.05
                             1577.13  1600.20  1609.59  1654.79  1687.75
                             1737.12  1748.99  1784.16  1789.09  1793.78
                             1810.04  1880.24  1895.46  1908.83  1925.35
                             1952.81  1983.13  2004.60  2050.84  2052.15
                             2062.62  2067.90  2098.33  2114.10  2175.69
                             2176.19  2182.61  2187.93  2193.57  2197.94
                             2201.30  2203.45  2205.86  2213.08  2222.56
                             2233.39  2356.05  2410.86  4360.16  4368.38
                             4377.20  4378.09  4379.24  4380.20  4391.45
                             4403.28  4427.73  4473.86  4474.77  4474.83
                             4475.86  4477.80  4483.43  4485.97  4486.47
                             4494.73  4498.04  4569.61  4579.01  4637.87

 Zero-point correction=                           0.334981 (Hartree/Particle)
 Thermal correction to Energy=                    0.350170
 Thermal correction to Enthalpy=                  0.351114
 Thermal correction to Gibbs Free Energy=         0.293823
 Sum of electronic and zero-point Energies=           -584.609001
 Sum of electronic and thermal Energies=              -584.593813
 Sum of electronic and thermal Enthalpies=            -584.592868
 Sum of electronic and thermal Free Energies=         -584.650159

                     E (Thermal)             CV                S
                      KCal/Mol        Cal/Mol-Kelvin    Cal/Mol-Kelvin
 Total                  219.735             60.854            120.579
 Electronic               0.000              0.000              0.000
 Translational            0.889              2.981             41.816
 Rotational               0.889              2.981             32.191
 Vibrational            217.957             54.892             46.572
 Vibration     1          0.594              1.981              5.246
 Vibration     2          0.596              1.975              4.541
 Vibration     3          0.601              1.958              3.725
 Vibration     4          0.616              1.909              2.746
 Vibration     5          0.624              1.885              2.483
 Vibration     6          0.633              1.856              2.248
 Vibration     7          0.651              1.798              1.892
 Vibration     8          0.654              1.788              1.846
 Vibration     9          0.662              1.765              1.740
 Vibration    10          0.666              1.753              1.689
 Vibration    11          0.676              1.724              1.579
 Vibration    12          0.689              1.683              1.445
 Vibration    13          0.699              1.655              1.364
 Vibration    14          0.710              1.624              1.281
 Vibration    15          0.718              1.600              1.223
 Vibration    16          0.727              1.576              1.167
 Vibration    17          0.742              1.534              1.081
 Vibration    18          0.773              1.452              0.933
 Vibration    19          0.801              1.379              0.821
 Vibration    20          0.805              1.369              0.807
 Vibration    21          0.831              1.306              0.725
 Vibration    22          0.854              1.253              0.662
 Vibration    23          0.884              1.185              0.589
 Vibration    24          0.944              1.059              0.472

 Optimization completed.
    -- Stationary point found.
 Normal termination of Gaussian 16 at Thu Dec 10 17:48:58 2020.

 ----------------------------------------------------------------------
 # B3LYP/6-311++G(d,p) empiricaldispersion=gd3bj scf=xqc pop=npa geom=c
 heck
 ----------------------------------------------------------------------

 ---------------------------------------
 CID_123522236_JID_5946_Energie_neutraal
 ---------------------------------------
 Structure from the checkpoint file:  "JID_5946.chk"
 Charge =  0 Multiplicity = 1

 SCF Done:  E(RB3LYP) =  -585.094346130     A.U. after   14 cycles
 Normal termination of Gaussian 16 at Thu Dec 10 17:56:06 2020.

 ----------------------------------------------------------------------
 # B3LYP/6-311++G(d,p) empiricaldispersion=gd3bj scf=xqc pop=npa geom=c
 heck
 ----------------------------------------------------------------------

 -------------------------------------
 CID_123522236_JID_5946_Energie_kation
 -------------------------------------
 Structure from the checkpoint file:  "JID_5946.chk"
 Charge =  1 Multiplicity = 2

 SCF Done:  E(UB3LYP) =  -584.801197295     A.U. after   20 cycles
 Normal termination of Gaussian 16 at Thu Dec 10 18:10:09 2020.
 Gaussian 16:  ES64L-G16RevA.03 25-Dec-2016

 ----------------------------------------------------------------------
 # B3LYP/6-311++G(d,p) empiricaldispersion=gd3bj scf=xqc pop=npa geom=c
 heck
 ----------------------------------------------------------------------

 ------------------------------------
 CID_123522236_JID_5946_Energie_anion
 ------------------------------------
 Structure from the checkpoint file:  "JID_5946.chk"
 Charge = -1 Multiplicity = 2

                         Standard orientation:
 ---------------------------------------------------------------------
 Center     Atomic      Atomic             Coordinates (Angstroms)
 Number     Number       Type             X           Y           Z
 ---------------------------------------------------------------------
      1          6           0        3.421936   -1.459491   -1.264437
      2          6           0        3.180106   -0.755389    0.074190
      3          6           0        1.959319   -1.371838    0.813291
      4          6           0        0.801894   -0.514983    0.350853
      5          6           0        1.277185    0.679900   -0.203883
      6          6           0        2.789724    0.739562   -0.139582
      7          6           0        3.267479    1.646796    1.006208
      8          6           0        0.375656    1.621013   -0.683817
      9          6           0       -0.997354    1.360435   -0.610479
     10          6           0       -1.491498    0.169718   -0.060177
     11          6           0       -0.561354   -0.768626    0.423317
     12          6           0       -2.992413   -0.143344    0.024944
     13          6           0       -3.292828   -1.429619   -0.774995
     14          6           0       -3.387454   -0.355081    1.502690
     15          6           0       -3.862028    0.989082   -0.545291
     16          1           0        4.252304   -0.997410   -1.810874
     17          1           0        2.528515   -1.400391   -1.897880
     18          1           0        3.660845   -2.519192   -1.118021
     19          1           0        4.087163   -0.830596    0.685507
     20          1           0        2.079168   -1.299778    1.903344
     21          1           0        1.828239   -2.435406    0.580916
     22          1           0        3.216537    1.115663   -1.078975
     23          1           0        4.362351    1.668007    1.059753
     24          1           0        2.911335    2.673642    0.868256
     25          1           0        2.885280    1.291105    1.970178
     26          1           0        0.725651    2.553597   -1.120875
     27          1           0       -1.684645    2.103528   -0.997749
     28          1           0       -0.908666   -1.705204    0.852011
     29          1           0       -2.734392   -2.287342   -0.387007
     30          1           0       -4.361012   -1.672465   -0.722026
     31          1           0       -3.022026   -1.302978   -1.829021
     32          1           0       -3.185758    0.546788    2.091165
     33          1           0       -4.456609   -0.585555    1.583662
     34          1           0       -2.831191   -1.181543    1.956074
     35          1           0       -3.712558    1.928228   -0.001339
     36          1           0       -3.650273    1.168604   -1.605044
     37          1           0       -4.920478    0.719896   -0.459050
 ---------------------------------------------------------------------

 SCF Done:  E(UB3LYP) =  -585.078791120     A.U. after   33 cycles
 SCF Done:  E(UB3LYP) =  -585.078791120     a.u. after    1 cycles

 The electronic state is 2-A.
 Alpha  occ. eigenvalues --  -10.09476 -10.08079 -10.08005 -10.07879 -10.07514
 Alpha  occ. eigenvalues --  -10.07373 -10.07323 -10.07112 -10.07104 -10.07055
 Alpha  occ. eigenvalues --  -10.06469 -10.06379 -10.06347 -10.06329 -10.06272
 Alpha  occ. eigenvalues --   -0.77940  -0.74268  -0.70488  -0.66556  -0.64122
 Alpha  occ. eigenvalues --   -0.62566  -0.59592  -0.59117  -0.57950  -0.54591
 Alpha  occ. eigenvalues --   -0.50200  -0.49125  -0.46374  -0.43741  -0.40484
 Alpha  occ. eigenvalues --   -0.37914  -0.36658  -0.35876  -0.34824  -0.34645
 Alpha  occ. eigenvalues --   -0.33080  -0.32727  -0.31658  -0.30926  -0.30650
 Alpha  occ. eigenvalues --   -0.30220  -0.29792  -0.28450  -0.27357  -0.27264
 Alpha  occ. eigenvalues --   -0.26398  -0.25498  -0.24897  -0.24168  -0.23529
 Alpha  occ. eigenvalues --   -0.22763  -0.22471  -0.21882  -0.21735  -0.14954
 Alpha  occ. eigenvalues --   -0.13621   0.04272
 Alpha virt. eigenvalues --    0.05816   0.06861   0.07237   0.07851   0.07873
 Alpha virt. eigenvalues --    0.08516   0.08633   0.09139   0.09574   0.09794
 Alpha virt. eigenvalues --    0.10076   0.10256   0.11069   0.11182   0.11901

  Beta  occ. eigenvalues --  -10.09473 -10.08074 -10.07997 -10.07869 -10.07510
  Beta  occ. eigenvalues --  -10.07365 -10.07307 -10.07107 -10.07097 -10.07047
  Beta  occ. eigenvalues --  -10.06443 -10.06354 -10.06327 -10.06307 -10.06245
  Beta  occ. eigenvalues --   -0.77922  -0.74250  -0.70469  -0.66534  -0.64095
  Beta  occ. eigenvalues --   -0.62538  -0.59550  -0.59071  -0.57911  -0.54546
  Beta  occ. eigenvalues --   -0.50163  -0.49092  -0.46338  -0.43701  -0.40451
  Beta  occ. eigenvalues --   -0.37891  -0.36614  -0.35851  -0.34794  -0.34613
  Beta  occ. eigenvalues --   -0.33055  -0.32702  -0.31630  -0.30895  -0.30624
  Beta  occ. eigenvalues --   -0.30193  -0.29766  -0.28420  -0.27324  -0.27237
  Beta  occ. eigenvalues --   -0.26370  -0.25470  -0.24868  -0.24138  -0.23503
  Beta  occ. eigenvalues --   -0.22739  -0.22442  -0.21860  -0.21714  -0.14937
  Beta  occ. eigenvalues --   -0.13594
  Beta virt. eigenvalues --    0.06189   0.06741   0.07375   0.07506   0.08131
  Beta virt. eigenvalues --    0.08500   0.08826   0.08991   0.09270   0.09845
  Beta virt. eigenvalues --    0.10169   0.10504   0.10589   0.11345   0.11406

 Mulliken charges and spin densities:
               1          2
     1  C    0.279840  -1.114734
     2  C   -0.406323   0.954473
     3  C   -0.451898  -0.195416
     4  C    0.688238  -0.495447
     5  C    0.808348  -0.409875
     6  C   -0.013928  -0.204138
     7  C    0.732568  -1.496988
     8  C   -0.162534  -0.451729
     9  C   -0.851363   0.362585
    10  C    0.871032  -0.167744
    11  C   -0.300045  -0.052853
    12  C   -0.520512   1.034503
    13  C    0.543166  -1.221155
    14  C    0.469000  -1.162869
    15  C   -0.367176  -0.113025
    16  H   -0.115362   0.250590
    17  H    0.054114   0.096584
    18  H   -0.069638   0.196693
    19  H   -0.377289   0.616441
    20  H   -0.037803   0.211564
    21  H   -0.126661   0.296417
    22  H   -0.163660   0.377943
    23  H   -0.219837   0.357282
    24  H   -0.020522   0.157853
    25  H   -0.033636   0.196442
    26  H   -0.248943   0.421154
    27  H   -0.024052   0.160741
    28  H    0.194162  -0.034862
    29  H   -0.240647   0.382667
    30  H   -0.115273   0.264365
    31  H    0.050693   0.092726
    32  H    0.047327   0.099101
    33  H   -0.158844   0.308457
    34  H   -0.285409   0.421674
    35  H   -0.050457   0.182386
    36  H   -0.089489   0.221941
    37  H   -0.287185   0.456257
 Sum of Mulliken charges =  -1.00000   1.00000

 Dipole moment (field-independent basis, Debye):
    X=             -0.1589    Y=              0.4671    Z=             -0.5581  Tot=              0.7449
 Quadrupole moment (field-independent basis, Debye-Ang):
   XX=           -195.2208   YY=           -135.6095   ZZ=           -131.5085
   XY=             -4.2026   XZ=              0.4341   YZ=              0.8412

 Summary of Natural Population Analysis:

                                       Natural Population
                Natural  -----------------------------------------------
    Atom  No    Charge         Core      Valence    Rydberg      Total
 -----------------------------------------------------------------------
      C    1   -0.28250      0.99965     2.27779    0.00507     3.28250
      C    2   -0.10362      0.99961     2.09241    0.01159     3.10362
      C    3   -0.19717      0.99959     2.18819    0.00939     3.19717
      C    4   -0.01302      0.99948     2.00245    0.01110     3.01302
      C    5   -0.01460      0.99945     2.00364    0.01151     3.01460
      C    6   -0.11550      0.99957     2.10428    0.01166     3.11550
      C    7   -0.27897      0.99965     2.27344    0.00588     3.27897
      C    8   -0.10091      0.99952     2.08964    0.01175     3.10091
      C    9   -0.08758      0.99951     2.08269    0.00537     3.08758
      C   10   -0.01266      0.99952     2.00028    0.01286     3.01266
      C   11   -0.08955      0.99946     2.08372    0.00637     3.08955
      C   12   -0.05443      0.99956     2.04238    0.01248     3.05443
      C   13   -0.27976      0.99963     2.27293    0.00720     3.27976
      C   14   -0.27994      0.99963     2.27309    0.00722     3.27994
      C   15   -0.28736      0.99964     2.27985    0.00787     3.28736
      H   16    0.09868      0.00000     0.40014    0.00117     0.40132
      H   17    0.09953      0.00000     0.39912    0.00135     0.40047
      H   18    0.09748      0.00000     0.40155    0.00097     0.40252
      H   19    0.09738      0.00000     0.40124    0.00138     0.40262
      H   20    0.10531      0.00000     0.39345    0.00125     0.39469
      H   21    0.10286      0.00000     0.39599    0.00115     0.39714
      H   22    0.09971      0.00000     0.39858    0.00171     0.40029
      H   23    0.09907      0.00000     0.39964    0.00129     0.40093
      H   24    0.09915      0.00000     0.39989    0.00096     0.40085
      H   25    0.09807      0.00000     0.40078    0.00115     0.40193
      H   26    0.09902      0.00000     0.39959    0.00140     0.40098
      H   27    0.09954      0.00000     0.39906    0.00140     0.40046
      H   28    0.09896      0.00000     0.39927    0.00178     0.40104
      H   29    0.10036      0.00000     0.39854    0.00110     0.39964
      H   30    0.09831      0.00000     0.40069    0.00099     0.40169
      H   31    0.10084      0.00000     0.39824    0.00091     0.39916
      H   32    0.10096      0.00000     0.39812    0.00092     0.39904
      H   33    0.09870      0.00000     0.40021    0.00108     0.40130
      H   34    0.10032      0.00000     0.39857    0.00112     0.39968
      H   35    0.10077      0.00000     0.39818    0.00106     0.39923
      H   36    0.10081      0.00000     0.39812    0.00107     0.39919
      H   37    0.10179      0.00000     0.39721    0.00100     0.39821
 =======================================================================
   * Total *    0.00004     14.99346    40.84295    0.16355    55.99996

 Normal termination of Gaussian 16 at Thu Dec 10 18:32:35 2020.
