 Gaussian 16, Revision A.03,

 -----------------------------------------------------------
 # opt freq B3LYP/6-31G(d) empiricaldispersion=gd3bj scf=xqc
 -----------------------------------------------------------

 -------------------------------
 CID_126857634_JID_8913_neutraal
 -------------------------------
 Symbolic Z-matrix:
 Charge =  0 Multiplicity = 1

 SCF Done:  E(RB3LYP) =  -785.656449679     A.U. after   15 cycles
 SCF Done:  E(RB3LYP) =  -785.664044329     A.U. after   13 cycles
 SCF Done:  E(RB3LYP) =  -785.664163007     A.U. after   12 cycles
 SCF Done:  E(RB3LYP) =  -785.665813034     A.U. after   12 cycles
 SCF Done:  E(RB3LYP) =  -785.666341568     A.U. after   12 cycles
 SCF Done:  E(RB3LYP) =  -785.666666554     A.U. after   11 cycles
 SCF Done:  E(RB3LYP) =  -785.667032690     A.U. after   12 cycles
 SCF Done:  E(RB3LYP) =  -785.667309591     A.U. after   12 cycles
 SCF Done:  E(RB3LYP) =  -785.667947224     A.U. after   14 cycles
 SCF Done:  E(RB3LYP) =  -785.668526432     A.U. after   12 cycles
 SCF Done:  E(RB3LYP) =  -785.669183688     A.U. after   10 cycles
 SCF Done:  E(RB3LYP) =  -785.669182320     A.U. after    9 cycles
 SCF Done:  E(RB3LYP) =  -785.669184463     A.U. after    9 cycles
 SCF Done:  E(RB3LYP) =  -785.669184351     A.U. after    7 cycles
 SCF Done:  E(RB3LYP) =  -785.669184616     A.U. after    7 cycles
 Optimization completed.
    -- Stationary point found.
 Normal termination of Gaussian 16 at Fri Dec 11 21:33:02 2020.

 --------------------------------------------------------------------
 #N Geom=AllCheck Guess=TCheck SCRF=Check GenChk RB3LYP/6-31G(d) Freq
 --------------------------------------------------------------------

 Structure from the checkpoint file:  "JID_8913.chk"
 -------------------------------
 CID_126857634_JID_8913_neutraal
 -------------------------------
 Charge =  0 Multiplicity = 1

 SCF Done:  E(RB3LYP) =  -785.669184616     A.U. after    1 cycles

  Exact polarizability: 221.968  -5.234 145.806  15.119   7.677 127.725
 Approx polarizability: 277.686   3.119 241.339  30.376  34.087 209.113

                      1                      2                      3
                      A                      A                      A
 Frequencies --     17.7932                32.3267                58.0362
 Red. masses --      4.4793                 3.5141                 3.4891
 Frc consts  --      0.0008                 0.0022                 0.0069
 IR Inten    --      0.4402                 0.1773                 0.5989

                      4                      5                      6
                      A                      A                      A
 Frequencies --     77.6130               121.8268               126.8278
 Red. masses --      4.6420                 3.2334                 3.5519
 Frc consts  --      0.0165                 0.0283                 0.0337
 IR Inten    --      1.1967                 0.4225                 0.5246

                      7                      8                      9
                      A                      A                      A
 Frequencies --    155.6311               164.6007               172.3456
 Red. masses --      4.4337                 3.1488                 3.1809
 Frc consts  --      0.0633                 0.0503                 0.0557
 IR Inten    --      4.3861                 0.6178                 0.2821

                     10                     11                     12
                      A                      A                      A
 Frequencies --    215.1145               257.8068               266.2957
 Red. masses --      2.6101                 1.2411                 3.3503
 Frc consts  --      0.0712                 0.0486                 0.1400
 IR Inten    --      0.4242                 0.6339                 1.1594

                     13                     14                     15
                      A                      A                      A
 Frequencies --    303.2132               334.0031               348.6106
 Red. masses --      2.5676                 2.4137                 2.7670
 Frc consts  --      0.1391                 0.1586                 0.1981
 IR Inten    --      3.9258                 4.4209                 2.0937

                     16                     17                     18
                      A                      A                      A
 Frequencies --    352.6017               390.4849               404.3089
 Red. masses --      2.7530                 2.6397                 2.9991
 Frc consts  --      0.2017                 0.2371                 0.2888
 IR Inten    --      0.3918                 0.0707                 4.5820

                     19                     20                     21
                      A                      A                      A
 Frequencies --    428.3105               472.6338               479.7906
 Red. masses --      3.6110                 2.6400                 3.2273
 Frc consts  --      0.3903                 0.3475                 0.4377
 IR Inten    --      1.3237                 7.6727                 8.5028

                     22                     23                     24
                      A                      A                      A
 Frequencies --    505.7049               522.2649               548.1521
 Red. masses --      3.5521                 2.5298                 4.0125
 Frc consts  --      0.5352                 0.4066                 0.7103
 IR Inten    --      8.4119                 3.7958                 1.1287

                     25                     26                     27
                      A                      A                      A
 Frequencies --    608.9137               622.8758               706.7787
 Red. masses --      2.4571                 5.5599                 6.1046
 Frc consts  --      0.5368                 1.2709                 1.7967
 IR Inten    --      1.6232                 4.1628                 0.3377

                     28                     29                     30
                      A                      A                      A
 Frequencies --    744.7172               751.3657               762.2183
 Red. masses --      3.1225                 2.9919                 3.3165
 Frc consts  --      1.0203                 0.9952                 1.1352
 IR Inten    --      9.1573                 3.7498                11.3515

                     31                     32                     33
                      A                      A                      A
 Frequencies --    797.6508               806.9664               831.6898
 Red. masses --      3.3877                 1.2441                 2.0001
 Frc consts  --      1.2699                 0.4773                 0.8151
 IR Inten    --      6.5607                 2.7569                11.5265

                     34                     35                     36
                      A                      A                      A
 Frequencies --    840.1851               860.4865               866.4389
 Red. masses --      1.5636                 2.4557                 1.4729
 Frc consts  --      0.6503                 1.0713                 0.6515
 IR Inten    --      1.4350                 0.6845                20.0490

                     37                     38                     39
                      A                      A                      A
 Frequencies --    891.8079               911.8162               918.3812
 Red. masses --      2.2388                 2.1282                 2.2763
 Frc consts  --      1.0491                 1.0425                 1.1311
 IR Inten    --      1.8361                 3.4083                 0.6543

                     40                     41                     42
                      A                      A                      A
 Frequencies --    921.6405               934.4345               958.2108
 Red. masses --      2.8347                 1.8632                 1.4816
 Frc consts  --      1.4187                 0.9585                 0.8015
 IR Inten    --      6.0794                10.2371                 0.7199

                     43                     44                     45
                      A                      A                      A
 Frequencies --    967.0073              1012.2802              1023.2628
 Red. masses --      3.1360                 1.8411                 2.2096
 Frc consts  --      1.7278                 1.1115                 1.3631
 IR Inten    --     42.7764                 5.3382                 5.3618

                     46                     47                     48
                      A                      A                      A
 Frequencies --   1062.3041              1063.3606              1079.4891
 Red. masses --      1.5595                 1.5107                 1.6419
 Frc consts  --      1.0369                 1.0064                 1.1273
 IR Inten    --     41.3861                16.8391                14.8141

                     49                     50                     51
                      A                      A                      A
 Frequencies --   1082.0396              1085.5714              1113.0258
 Red. masses --      1.8773                 1.3228                 1.8693
 Frc consts  --      1.2950                 0.9185                 1.3644
 IR Inten    --     10.7622                 3.2366                19.0248

                     52                     53                     54
                      A                      A                      A
 Frequencies --   1142.8160              1143.0314              1160.5897
 Red. masses --      1.7592                 1.1909                 1.4253
 Frc consts  --      1.3537                 0.9168                 1.1312
 IR Inten    --     11.5811                 2.1254                12.2760

                     55                     56                     57
                      A                      A                      A
 Frequencies --   1173.0919              1178.1230              1186.9488
 Red. masses --      3.1657                 1.9845                 1.7102
 Frc consts  --      2.5668                 1.6228                 1.4196
 IR Inten    --     25.1864                31.4347                 5.5523

                     58                     59                     60
                      A                      A                      A
 Frequencies --   1202.4366              1217.9942              1230.0713
 Red. masses --      2.5858                 1.3930                 2.2568
 Frc consts  --      2.2028                 1.2176                 2.0119
 IR Inten    --      2.4939                 0.6021                 3.6977

                     61                     62                     63
                      A                      A                      A
 Frequencies --   1231.3342              1247.4240              1279.5705
 Red. masses --      1.5849                 1.6210                 1.9232
 Frc consts  --      1.4158                 1.4862                 1.8553
 IR Inten    --      4.3876                46.2922                 5.6269

                     64                     65                     66
                      A                      A                      A
 Frequencies --   1309.2466              1319.5355              1330.8168
 Red. masses --      1.2465                 1.5894                 2.0467
 Frc consts  --      1.2589                 1.6305                 2.1357
 IR Inten    --      7.1217                 2.5412                11.4879

                     67                     68                     69
                      A                      A                      A
 Frequencies --   1335.0440              1343.0820              1378.1748
 Red. masses --      1.7289                 1.4021                 1.3884
 Frc consts  --      1.8155                 1.4901                 1.5538
 IR Inten    --     24.2005                 7.6706                15.3892

                     70                     71                     72
                      A                      A                      A
 Frequencies --   1382.2082              1401.2889              1404.8414
 Red. masses --      1.4988                 1.4721                 1.4236
 Frc consts  --      1.6871                 1.7031                 1.6554
 IR Inten    --     10.5345                 1.1273                 0.0597

                     73                     74                     75
                      A                      A                      A
 Frequencies --   1413.2225              1424.4316              1439.1007
 Red. masses --      1.3735                 1.3978                 1.7649
 Frc consts  --      1.6162                 1.6710                 2.1535
 IR Inten    --      5.0718                17.1274                51.4765

                     76                     77                     78
                      A                      A                      A
 Frequencies --   1441.8626              1487.5460              1490.4916
 Red. masses --      1.4359                 2.5252                 1.1759
 Frc consts  --      1.7588                 3.2922                 1.5392
 IR Inten    --     15.3625                82.7435                 2.5063

                     79                     80                     81
                      A                      A                      A
 Frequencies --   1496.6064              1506.1233              1508.1405
 Red. masses --      1.0868                 1.1005                 1.1442
 Frc consts  --      1.4342                 1.4709                 1.5334
 IR Inten    --      1.9523                 3.9693                16.6857

                     82                     83                     84
                      A                      A                      A
 Frequencies --   1512.7210              1516.2958              1531.8946
 Red. masses --      1.0757                 1.0889                 1.2600
 Frc consts  --      1.4503                 1.4750                 1.7421
 IR Inten    --     13.5574                 6.1098                19.0286

                     85                     86                     87
                      A                      A                      A
 Frequencies --   1532.3419              1548.2597              1561.8431
 Red. masses --      1.1804                 1.0745                 1.0718
 Frc consts  --      1.6330                 1.5175                 1.5404
 IR Inten    --      1.8103                 1.3546                 9.7638

                     88                     89                     90
                      A                      A                      A
 Frequencies --   1588.7672              1660.7100              1772.7433
 Red. masses --      5.2982                 6.6754                10.3367
 Frc consts  --      7.8795                10.8471                19.1392
 IR Inten    --     49.3382               223.8474               565.8616

                     91                     92                     93
                      A                      A                      A
 Frequencies --   2990.3661              3006.4731              3023.6370
 Red. masses --      1.0693                 1.0476                 1.0826
 Frc consts  --      5.6339                 5.5792                 5.8317
 IR Inten    --     17.0749                61.1202                31.5341

                     94                     95                     96
                      A                      A                      A
 Frequencies --   3040.8175              3042.5175              3049.4171
 Red. masses --      1.0643                 1.0619                 1.0644
 Frc consts  --      5.7985                 5.7918                 5.8314
 IR Inten    --     21.2531                21.4755                30.9809

                     97                     98                     99
                      A                      A                      A
 Frequencies --   3062.3468              3071.4527              3073.2222
 Red. masses --      1.0899                 1.0722                 1.0915
 Frc consts  --      6.0219                 5.9595                 6.0738
 IR Inten    --     47.3350                34.0056                48.7572

                    100                    101                    102
                      A                      A                      A
 Frequencies --   3078.8720              3088.7767              3096.9365
 Red. masses --      1.0948                 1.1042                 1.1036
 Frc consts  --      6.1145                 6.2070                 6.2364
 IR Inten    --     61.1232                20.9397                77.1026

                    103                    104                    105
                      A                      A                      A
 Frequencies --   3109.0100              3151.6164              3154.0658
 Red. masses --      1.1010                 1.0502                 1.0586
 Frc consts  --      6.2701                 6.1458                 6.2046
 IR Inten    --     31.6224                17.4450                 8.7592

                    106                    107                    108
                      A                      A                      A
 Frequencies --   3180.1437              3181.1197              3201.9505
 Red. masses --      1.0908                 1.0932                 1.0906
 Frc consts  --      6.4994                 6.5182                 6.5879
 IR Inten    --     17.2172                 3.3063                 2.9054

                    109                    110                    111
                      A                      A                      A
 Frequencies --   3227.8497              3228.2518              3243.0586
 Red. masses --      1.0918                 1.1196                 1.1154
 Frc consts  --      6.7022                 6.8748                 6.9120
 IR Inten    --      4.8892                 0.3431                18.4795

 - Thermochemistry -
 -------------------
 Temperature   298.150 Kelvin.  Pressure   1.00000 Atm.
 Atom     1 has atomic number  6 and mass  12.00000

 Molecular mass:   247.16846 amu.
 Principal axes and moments of inertia in atomic units:
                           1         2         3
     Eigenvalues --  1679.353908339.991888549.73947
           X            0.99998  -0.00518   0.00355
           Y            0.00548   0.99590  -0.09025
           Z           -0.00307   0.09026   0.99591
 This molecule is an asymmetric top.
 Rotational symmetry number  1.
 Warning -- assumption of classical behavior for rotation
           may cause significant error
 Rotational temperatures (Kelvin)      0.05158     0.01039     0.01013
 Rotational constants (GHZ):           1.07466     0.21640     0.21109
 Zero-point vibrational energy     899076.7 (Joules/Mol)
                                  214.88449 (Kcal/Mol)
 Warning -- explicit consideration of  25 degrees of freedom as
           vibrations may cause significant error
 Vibrational temperatures:     25.60    46.51    83.50   111.67   175.28
          (Kelvin)            182.48   223.92   236.82   247.97   309.50
                              370.93   383.14   436.26   480.56   501.57
                              507.32   561.82   581.71   616.24   680.01
                              690.31   727.60   751.42   788.67   876.09
                              896.18  1016.90  1071.48  1081.05  1096.66
                             1147.64  1161.04  1196.62  1208.84  1238.05
                             1246.61  1283.11  1311.90  1321.35  1326.04
                             1344.44  1378.65  1391.31  1456.45  1472.25
                             1528.42  1529.94  1553.14  1556.81  1561.90
                             1601.40  1644.26  1644.57  1669.83  1687.82
                             1695.06  1707.75  1730.04  1752.42  1769.80
                             1771.62  1794.76  1841.02  1883.71  1898.52
                             1914.75  1920.83  1932.40  1982.89  1988.69
                             2016.14  2021.25  2033.31  2049.44  2070.54
                             2074.52  2140.25  2144.48  2153.28  2166.98
                             2169.88  2176.47  2181.61  2204.05  2204.70
                             2227.60  2247.14  2285.88  2389.39  2550.58
                             4302.47  4325.64  4350.34  4375.06  4377.50
                             4387.43  4406.03  4419.14  4421.68  4429.81
                             4444.06  4455.80  4473.17  4534.47  4538.00
                             4575.52  4576.92  4606.89  4644.16  4644.73
                             4666.04

 Zero-point correction=                           0.342440 (Hartree/Particle)
 Thermal correction to Energy=                    0.358934
 Thermal correction to Enthalpy=                  0.359879
 Thermal correction to Gibbs Free Energy=         0.297251
 Sum of electronic and zero-point Energies=           -785.326744
 Sum of electronic and thermal Energies=              -785.310250
 Sum of electronic and thermal Enthalpies=            -785.309306
 Sum of electronic and thermal Free Energies=         -785.371934

                     E (Thermal)             CV                S
                      KCal/Mol        Cal/Mol-Kelvin    Cal/Mol-Kelvin
 Total                  225.235             64.867            131.811
 Electronic               0.000              0.000              0.000
 Translational            0.889              2.981             42.415
 Rotational               0.889              2.981             33.148
 Vibrational            223.457             58.905             56.248
 Vibration     1          0.593              1.986              6.866
 Vibration     2          0.594              1.983              5.681
 Vibration     3          0.596              1.974              4.523
 Vibration     4          0.599              1.964              3.950
 Vibration     5          0.609              1.931              3.071
 Vibration     6          0.611              1.926              2.994
 Vibration     7          0.620              1.896              2.602
 Vibration     8          0.623              1.886              2.496
 Vibration     9          0.626              1.877              2.410
 Vibration    10          0.645              1.818              2.000
 Vibration    11          0.667              1.750              1.677
 Vibration    12          0.672              1.735              1.620
 Vibration    13          0.695              1.668              1.399
 Vibration    14          0.716              1.608              1.241
 Vibration    15          0.726              1.578              1.172
 Vibration    16          0.729              1.570              1.155
 Vibration    17          0.758              1.491              0.998
 Vibration    18          0.769              1.461              0.947
 Vibration    19          0.790              1.409              0.864
 Vibration    20          0.829              1.311              0.730
 Vibration    21          0.836              1.295              0.711
 Vibration    22          0.861              1.237              0.644
 Vibration    23          0.877              1.201              0.605
 Vibration    24          0.903              1.144              0.548
 Vibration    25          0.968              1.013              0.435

                           ! Non-Optimized Parameters !
 Normal termination of Gaussian 16 at Fri Dec 11 21:50:33 2020.

 ----------------------------------------------------------------------
 # B3LYP/6-311++G(d,p) empiricaldispersion=gd3bj scf=xqc pop=npa geom=c
 heck
 ----------------------------------------------------------------------

 ---------------------------------------
 CID_126857634_JID_8913_Energie_neutraal
 ---------------------------------------
 Structure from the checkpoint file:  "JID_8913.chk"
 Charge =  0 Multiplicity = 1

 SCF Done:  E(RB3LYP) =  -785.879326276     A.U. after   16 cycles
 Normal termination of Gaussian 16 at Fri Dec 11 21:57:56 2020.

 ----------------------------------------------------------------------
 # B3LYP/6-311++G(d,p) empiricaldispersion=gd3bj scf=xqc pop=npa geom=c
 heck
 ----------------------------------------------------------------------

 -------------------------------------
 CID_126857634_JID_8913_Energie_kation
 -------------------------------------
 Structure from the checkpoint file:  "JID_8913.chk"
 Charge =  1 Multiplicity = 2

 SCF Done:  E(UB3LYP) =  -785.601810428     A.U. after   25 cycles
 Normal termination of Gaussian 16 at Fri Dec 11 22:14:03 2020.
 Gaussian 16:  ES64L-G16RevA.03 25-Dec-2016

 ----------------------------------------------------------------------
 # B3LYP/6-311++G(d,p) empiricaldispersion=gd3bj scf=xqc pop=npa geom=c
 heck
 ----------------------------------------------------------------------

 ------------------------------------
 CID_126857634_JID_8913_Energie_anion
 ------------------------------------
 Structure from the checkpoint file:  "JID_8913.chk"
 Charge = -1 Multiplicity = 2

                         Standard orientation:
 ---------------------------------------------------------------------
 Center     Atomic      Atomic             Coordinates (Angstroms)
 Number     Number       Type             X           Y           Z
 ---------------------------------------------------------------------
      1          6           0        0.949925    0.735288   -1.895399
      2          7           0        2.150756    0.398863   -1.149313
      3          6           0        2.688815    1.509563   -0.363747
      4          6           0        4.144145    1.231582    0.022101
      5          6           0        4.281013   -0.120860    0.730716
      6          6           0        3.634794   -1.231348   -0.109543
      7          6           0        2.176605   -0.893593   -0.477499
      8          6           0        1.292204   -1.055026    0.789637
      9          7           0       -0.134100   -0.807300    0.559773
     10          6           0       -0.871581   -1.675450   -0.174948
     11          7           0       -2.125067   -1.537113   -0.492689
     12          6           0       -2.753963   -0.398374   -0.030412
     13          6           0       -2.102309    0.529458    0.741697
     14          6           0       -0.716224    0.383063    1.092921
     15          8           0       -0.041869    1.161791    1.762565
     16          6           0       -4.173802   -0.278573   -0.436970
     17          6           0       -5.198784    0.359478    0.486081
     18          6           0       -4.778717    1.079201   -0.755606
     19          1           0        0.119452    1.128198   -1.288343
     20          1           0        1.197708    1.498878   -2.643385
     21          1           0        0.588472   -0.150836   -2.428568
     22          1           0        2.640489    2.407074   -0.991503
     23          1           0        2.079442    1.716382    0.532655
     24          1           0        4.518736    2.041078    0.659987
     25          1           0        4.751978    1.222531   -0.891862
     26          1           0        3.804827   -0.067694    1.718783
     27          1           0        5.336939   -0.356134    0.909672
     28          1           0        3.677032   -2.192262    0.418731
     29          1           0        4.193688   -1.347084   -1.045128
     30          1           0        1.827331   -1.632067   -1.212710
     31          1           0        1.405402   -2.074979    1.173248
     32          1           0        1.583606   -0.358818    1.573922
     33          1           0       -0.341008   -2.561827   -0.517811
     34          1           0       -2.594368    1.420033    1.115026
     35          1           0       -4.506147   -1.119113   -1.036698
     36          1           0       -6.185790   -0.092303    0.519254
     37          1           0       -4.838679    0.724171    1.443820
     38          1           0       -4.125687    1.941859   -0.658500
     39          1           0       -5.472325    1.130985   -1.589666
 ---------------------------------------------------------------------

 SCF Done:  E(UB3LYP) =  -785.879957887     A.U. after   33 cycles
 SCF Done:  E(UB3LYP) =  -785.879957887     a.u. after    1 cycles

 The electronic state is 2-A.
 Alpha  occ. eigenvalues --  -18.94255 -14.21492 -14.19110 -14.15983 -10.12597
 Alpha  occ. eigenvalues --  -10.09175 -10.08572 -10.08042 -10.07776 -10.07412
 Alpha  occ. eigenvalues --  -10.06788 -10.06672 -10.06575 -10.06542 -10.06338
 Alpha  occ. eigenvalues --  -10.06239 -10.06132 -10.01197  -0.89952  -0.83900
 Alpha  occ. eigenvalues --   -0.81702  -0.76892  -0.74332  -0.69623  -0.66144
 Alpha  occ. eigenvalues --   -0.63157  -0.60089  -0.57454  -0.53022  -0.51885
 Alpha  occ. eigenvalues --   -0.51360  -0.50119  -0.49697  -0.44759  -0.43242
 Alpha  occ. eigenvalues --   -0.40728  -0.39157  -0.38042  -0.36813  -0.36091
 Alpha  occ. eigenvalues --   -0.35438  -0.35070  -0.33018  -0.32401  -0.32146
 Alpha  occ. eigenvalues --   -0.30494  -0.29935  -0.29187  -0.28245  -0.28172
 Alpha  occ. eigenvalues --   -0.27375  -0.26599  -0.26042  -0.25363  -0.24879
 Alpha  occ. eigenvalues --   -0.24174  -0.23468  -0.22300  -0.21530  -0.21154
 Alpha  occ. eigenvalues --   -0.20145  -0.19564  -0.14429  -0.13325  -0.12286
 Alpha  occ. eigenvalues --   -0.10015  -0.09152   0.04824
 Alpha virt. eigenvalues --    0.06739   0.07734   0.08182   0.08607   0.09442
 Alpha virt. eigenvalues --    0.09660   0.10102   0.10664   0.11060   0.11523
 Alpha virt. eigenvalues --    0.11938   0.12303   0.13100   0.13385   0.13604

  Beta  occ. eigenvalues --  -18.94228 -14.21216 -14.19107 -14.16117 -10.12596
  Beta  occ. eigenvalues --  -10.09160 -10.08153 -10.08040 -10.07776 -10.07410
  Beta  occ. eigenvalues --  -10.06783 -10.06671 -10.06527 -10.06492 -10.06376
  Beta  occ. eigenvalues --  -10.06224 -10.05783 -10.01031  -0.89780  -0.83556
  Beta  occ. eigenvalues --   -0.81658  -0.76599  -0.74216  -0.69606  -0.66104
  Beta  occ. eigenvalues --   -0.62666  -0.59972  -0.57296  -0.52750  -0.51820
  Beta  occ. eigenvalues --   -0.51109  -0.49995  -0.49578  -0.44562  -0.43127
  Beta  occ. eigenvalues --   -0.40587  -0.39119  -0.37891  -0.36700  -0.35982
  Beta  occ. eigenvalues --   -0.35343  -0.34795  -0.32922  -0.32250  -0.31981
  Beta  occ. eigenvalues --   -0.30401  -0.29841  -0.28725  -0.28133  -0.28072
  Beta  occ. eigenvalues --   -0.27262  -0.26525  -0.25915  -0.25329  -0.24776
  Beta  occ. eigenvalues --   -0.24087  -0.22847  -0.22262  -0.21498  -0.21118
  Beta  occ. eigenvalues --   -0.19400  -0.19349  -0.13462  -0.13365  -0.12167
  Beta  occ. eigenvalues --   -0.09693  -0.08353
  Beta virt. eigenvalues --    0.06837   0.07679   0.08415   0.08631   0.09429
  Beta virt. eigenvalues --    0.09662   0.10019   0.10427   0.10827   0.11263
  Beta virt. eigenvalues --    0.11879   0.11956   0.12261   0.13176   0.13384

 Mulliken charges and spin densities:
               1          2
     1  C   -0.319552   0.007929
     2  N    0.091429   0.005813
     3  C   -0.199202  -0.021169
     4  C   -0.379875  -0.119381
     5  C   -0.182235  -0.094099
     6  C   -0.208700  -0.400997
     7  C    0.145790   0.257229
     8  C   -0.436434  -0.476266
     9  N    0.242772   0.054957
    10  C    0.079613   0.252299
    11  N   -0.105002  -0.065246
    12  C    0.100452   0.074852
    13  C    0.059234   0.221116
    14  C   -0.645489  -0.007363
    15  O   -0.327157   0.006346
    16  C   -0.279213  -0.020522
    17  C   -0.309320   0.017583
    18  C   -0.312122   0.001636
    19  H    0.201327   0.005659
    20  H    0.132513  -0.000538
    21  H    0.132833   0.000574
    22  H    0.132509  -0.014106
    23  H    0.181048   0.018068
    24  H    0.121176   0.012660
    25  H    0.105018   0.014353
    26  H    0.122739  -0.000766
    27  H   -0.008391   0.173391
    28  H   -0.243324   0.397619
    29  H    0.115873   0.021338
    30  H    0.217528  -0.015877
    31  H   -0.380186   0.590554
    32  H    0.297901  -0.067578
    33  H   -0.052427   0.162536
    34  H    0.184934  -0.008557
    35  H    0.222368   0.006916
    36  H    0.124760   0.001421
    37  H    0.125051  -0.000856
    38  H    0.138224  -0.002629
    39  H    0.113539   0.011102
 Sum of Mulliken charges =  -1.00000   1.00000

 Dipole moment (field-independent basis, Debye):
    X=              1.3045    Y=              3.0429    Z=             -2.9747  Tot=              4.4509
 Quadrupole moment (field-independent basis, Debye-Ang):
   XX=           -155.4306   YY=           -141.4139   ZZ=           -130.7309
   XY=              3.3942   XZ=             -1.6576   YZ=             -0.9458

 Summary of Natural Population Analysis:

                                       Natural Population
                Natural  -----------------------------------------------
    Atom  No    Charge         Core      Valence    Rydberg      Total
 -----------------------------------------------------------------------
      C    1   -0.17245      0.99965     2.16616    0.00663     3.17245
      N    2   -0.28807      0.99970     2.77588    0.01250     3.78807
      C    3   -0.08850      0.99962     2.08014    0.00874     3.08850
      C    4   -0.19132      0.99963     2.18434    0.00735     3.19132
      C    5   -0.19279      0.99963     2.18428    0.00888     3.19279
      C    6   -0.19232      0.99961     2.18201    0.01070     3.19232
      C    7   -0.00275      0.99957     1.98808    0.01509     3.00275
      C    8   -0.10342      0.99958     2.09148    0.01236     3.10342
      N    9   -0.20544      0.99962     2.69484    0.01098     3.70544
      C   10    0.23514      0.99963     1.74774    0.01750     2.76486
      N   11   -0.29795      0.99969     2.78793    0.01034     3.79795
      C   12    0.16651      0.99949     1.81843    0.01558     2.83349
      C   13   -0.16505      0.99946     2.15562    0.00997     3.16505
      C   14    0.31883      0.99960     1.65739    0.02418     2.68117
      O   15   -0.34950      0.99988     3.34409    0.00553     4.34950
      C   16   -0.12197      0.99957     2.11267    0.00973     3.12197
      C   17   -0.18830      0.99963     2.18252    0.00614     3.18830
      C   18   -0.18809      0.99963     2.18231    0.00614     3.18809
      H   19    0.09283      0.00000     0.40598    0.00119     0.40717
      H   20    0.08446      0.00000     0.41460    0.00094     0.41554
      H   21    0.09611      0.00000     0.40313    0.00076     0.40389
      H   22    0.09046      0.00000     0.40853    0.00101     0.40954
      H   23    0.10015      0.00000     0.39848    0.00137     0.39985
      H   24    0.09475      0.00000     0.40415    0.00110     0.40525
      H   25    0.09115      0.00000     0.40745    0.00140     0.40885
      H   26    0.09627      0.00000     0.40264    0.00109     0.40373
      H   27    0.09512      0.00000     0.40391    0.00097     0.40488
      H   28    0.10134      0.00000     0.39748    0.00117     0.39866
      H   29    0.09581      0.00000     0.40288    0.00131     0.40419
      H   30    0.09576      0.00000     0.40288    0.00137     0.40424
      H   31    0.10173      0.00000     0.39581    0.00246     0.39827
      H   32    0.11461      0.00000     0.38380    0.00159     0.38539
      H   33    0.07668      0.00000     0.42158    0.00174     0.42332
      H   34    0.09767      0.00000     0.40113    0.00120     0.40233
      H   35    0.10776      0.00000     0.39099    0.00125     0.39224
      H   36    0.09441      0.00000     0.40453    0.00106     0.40559
      H   37    0.10311      0.00000     0.39591    0.00098     0.39689
      H   38    0.10294      0.00000     0.39607    0.00099     0.39706
      H   39    0.09434      0.00000     0.40460    0.00106     0.40566
 =======================================================================
   * Total *   -0.00000     17.99320    48.78243    0.22437    67.00000

 Normal termination of Gaussian 16 at Fri Dec 11 22:35:08 2020.
