 Gaussian 16, Revision A.03,

 -----------------------------------------------------------
 # opt freq B3LYP/6-31G(d) empiricaldispersion=gd3bj scf=xqc
 -----------------------------------------------------------

 ------------------------------
 CID_91658569_JID_3505_neutraal
 ------------------------------
 Symbolic Z-matrix:
 Charge =  0 Multiplicity = 1

 SCF Done:  E(RB3LYP) =  -543.407271296     A.U. after   13 cycles
 SCF Done:  E(RB3LYP) =  -543.410171915     A.U. after   11 cycles
 SCF Done:  E(RB3LYP) =  -543.410418351     A.U. after   11 cycles
 SCF Done:  E(RB3LYP) =  -543.410480899     A.U. after   10 cycles
 SCF Done:  E(RB3LYP) =  -543.410511828     A.U. after    9 cycles
 SCF Done:  E(RB3LYP) =  -543.410535677     A.U. after    9 cycles
 SCF Done:  E(RB3LYP) =  -543.410547294     A.U. after    9 cycles
 SCF Done:  E(RB3LYP) =  -543.410549402     A.U. after    8 cycles
 SCF Done:  E(RB3LYP) =  -543.410549554     A.U. after    7 cycles
 Optimization completed.
    -- Stationary point found.
 Normal termination of Gaussian 16 at Wed Dec  9 23:28:48 2020.

 --------------------------------------------------------------------
 #N Geom=AllCheck Guess=TCheck SCRF=Check GenChk RB3LYP/6-31G(d) Freq
 --------------------------------------------------------------------

 Structure from the checkpoint file:  "JID_3505.chk"
 ------------------------------
 CID_91658569_JID_3505_neutraal
 ------------------------------
 Charge =  0 Multiplicity = 1

 SCF Done:  E(RB3LYP) =  -543.410549554     A.U. after    1 cycles

  Exact polarizability: 166.198  -6.851 135.872  11.679   1.975  84.372
 Approx polarizability: 227.533  -7.294 213.799  24.060   5.044 124.728

                      1                      2                      3
                      A                      A                      A
 Frequencies --     54.9727                67.4552                78.8954
 Red. masses --      2.9439                 3.5818                 4.1811
 Frc consts  --      0.0052                 0.0096                 0.0153
 IR Inten    --      0.9633                 0.0163                 1.4572

                      4                      5                      6
                      A                      A                      A
 Frequencies --    129.4890               139.2816               153.7180
 Red. masses --      2.2659                 1.0508                 1.1531
 Frc consts  --      0.0224                 0.0120                 0.0161
 IR Inten    --      0.4371                 0.0871                 0.0970

                      7                      8                      9
                      A                      A                      A
 Frequencies --    162.4042               200.3426               263.6174
 Red. masses --      1.2855                 2.0068                 2.1142
 Frc consts  --      0.0200                 0.0475                 0.0866
 IR Inten    --      0.9256                 1.2783                 2.2829

                     10                     11                     12
                      A                      A                      A
 Frequencies --    268.5301               275.5561               298.8715
 Red. masses --      1.3968                 2.0265                 2.1062
 Frc consts  --      0.0593                 0.0907                 0.1108
 IR Inten    --      5.4268                10.2661                 7.8207

                     13                     14                     15
                      A                      A                      A
 Frequencies --    307.5018               308.1940               356.7684
 Red. masses --      2.5056                 1.4607                 3.1017
 Frc consts  --      0.1396                 0.0817                 0.2326
 IR Inten    --      0.8420                62.6141                 1.3114

                     16                     17                     18
                      A                      A                      A
 Frequencies --    363.2226               422.6575               450.8584
 Red. masses --      2.8259                 2.6909                 2.7758
 Frc consts  --      0.2197                 0.2832                 0.3324
 IR Inten    --     25.4476                 5.8046                11.5142

                     19                     20                     21
                      A                      A                      A
 Frequencies --    466.2037               481.3555               528.1005
 Red. masses --      2.6322                 3.4205                 2.6632
 Frc consts  --      0.3371                 0.4669                 0.4376
 IR Inten    --      2.8108                 3.9105                 0.3730

                     22                     23                     24
                      A                      A                      A
 Frequencies --    559.7160               620.4779               696.5096
 Red. masses --      4.1733                 3.9056                 3.8057
 Frc consts  --      0.7703                 0.8859                 1.0878
 IR Inten    --      0.3688                 0.3529                 1.7570

                     25                     26                     27
                      A                      A                      A
 Frequencies --    736.0732               768.6461               836.4402
 Red. masses --      3.5630                 5.0179                 2.6379
 Frc consts  --      1.1374                 1.7467                 1.0874
 IR Inten    --      0.4480                 0.1367                 0.4784

                     28                     29                     30
                      A                      A                      A
 Frequencies --    846.9572               888.9279               906.9167
 Red. masses --      2.8875                 1.3261                 1.3796
 Frc consts  --      1.2204                 0.6174                 0.6685
 IR Inten    --      3.1537                 7.9005                 1.7549

                     31                     32                     33
                      A                      A                      A
 Frequencies --    916.9949               963.3738              1017.7503
 Red. masses --      1.3587                 2.0655                 1.5103
 Frc consts  --      0.6732                 1.1294                 0.9217
 IR Inten    --      0.3966                18.8041                 1.3109

                     34                     35                     36
                      A                      A                      A
 Frequencies --   1030.6551              1051.0511              1059.5844
 Red. masses --      1.3959                 1.5876                 1.4286
 Frc consts  --      0.8736                 1.0333                 0.9450
 IR Inten    --     10.6390                16.4535                 4.5951

                     37                     38                     39
                      A                      A                      A
 Frequencies --   1070.0503              1074.9457              1085.6865
 Red. masses --      1.8450                 1.5232                 1.5834
 Frc consts  --      1.2447                 1.0370                 1.0997
 IR Inten    --     48.5907                10.9901                 0.1449

                     40                     41                     42
                      A                      A                      A
 Frequencies --   1096.4074              1114.2486              1146.7361
 Red. masses --      2.9376                 2.2559                 1.8880
 Frc consts  --      2.0806                 1.6502                 1.4628
 IR Inten    --     18.1113                34.9679                64.6105

                     43                     44                     45
                      A                      A                      A
 Frequencies --   1203.8370              1235.6333              1239.7195
 Red. masses --      2.0883                 1.5556                 2.0144
 Frc consts  --      1.7832                 1.3993                 1.8241
 IR Inten    --     11.7359                 0.1971                 1.9800

                     46                     47                     48
                      A                      A                      A
 Frequencies --   1293.1255              1308.0746              1324.2616
 Red. masses --      1.4737                 4.2711                 1.2824
 Frc consts  --      1.4519                 4.3058                 1.3251
 IR Inten    --     12.4822                 1.2523                 0.3165

                     49                     50                     51
                      A                      A                      A
 Frequencies --   1350.6279              1369.2083              1394.4916
 Red. masses --      3.4933                 1.6943                 1.3751
 Frc consts  --      3.7545                 1.8715                 1.5755
 IR Inten    --      1.7050                 5.7679                 7.2687

                     52                     53                     54
                      A                      A                      A
 Frequencies --   1427.7164              1431.0994              1440.3687
 Red. masses --      1.2365                 1.7271                 1.2754
 Frc consts  --      1.4850                 2.0841                 1.5590
 IR Inten    --     29.8564                 0.7718                30.0942

                     55                     56                     57
                      A                      A                      A
 Frequencies --   1443.4935              1449.7843              1450.9735
 Red. masses --      1.3366                 1.8476                 1.2299
 Frc consts  --      1.6409                 2.2880                 1.5256
 IR Inten    --     18.7265                 0.9252                 0.1066

                     58                     59                     60
                      A                      A                      A
 Frequencies --   1507.2423              1513.9972              1516.3437
 Red. masses --      1.0453                 1.0743                 1.0594
 Frc consts  --      1.3992                 1.4508                 1.4352
 IR Inten    --      0.0023                 0.1755                 1.8152

                     61                     62                     63
                      A                      A                      A
 Frequencies --   1520.8788              1522.6171              1525.2342
 Red. masses --      1.0797                 1.0443                 1.1286
 Frc consts  --      1.4714                 1.4265                 1.5469
 IR Inten    --      3.9232                13.1967                 1.3606

                     64                     65                     66
                      A                      A                      A
 Frequencies --   1527.0154              1529.2662              1537.1854
 Red. masses --      1.0818                 1.0866                 1.1198
 Frc consts  --      1.4862                 1.4972                 1.5589
 IR Inten    --     14.1335                 6.7488                14.8041

                     67                     68                     69
                      A                      A                      A
 Frequencies --   1558.7981              1623.0586              1679.9208
 Red. masses --      2.6186                 6.2244                 6.0558
 Frc consts  --      3.7489                 9.6609                10.0693
 IR Inten    --     20.4275                 0.3542                 0.4683

                     70                     71                     72
                      A                      A                      A
 Frequencies --   3035.7920              3036.7807              3037.2207
 Red. masses --      1.0390                 1.0380                 1.0441
 Frc consts  --      5.6417                 5.6402                 5.6750
 IR Inten    --      8.1671                70.2270                11.4794

                     73                     74                     75
                      A                      A                      A
 Frequencies --   3044.7064              3050.8182              3069.9246
 Red. masses --      1.0426                 1.0557                 1.0840
 Frc consts  --      5.6948                 5.7891                 6.0189
 IR Inten    --     15.7589                42.0321                11.9102

                     76                     77                     78
                      A                      A                      A
 Frequencies --   3081.8352              3083.5144              3093.6944
 Red. masses --      1.1002                 1.1001                 1.1018
 Frc consts  --      6.1566                 6.1627                 6.2131
 IR Inten    --     43.3502                 0.2189                28.2221

                     79                     80                     81
                      A                      A                      A
 Frequencies --   3098.5581              3112.9525              3125.2063
 Red. masses --      1.0991                 1.0938                 1.0998
 Frc consts  --      6.2173                 6.2451                 6.3289
 IR Inten    --     22.1065                37.8627                34.8274

                     82                     83                     84
                      A                      A                      A
 Frequencies --   3125.9092              3126.6794              3138.7876
 Red. masses --      1.1008                 1.0996                 1.1034
 Frc consts  --      6.3373                 6.3336                 6.4048
 IR Inten    --     16.4486                 4.1967                27.3417

                     85                     86                     87
                      A                      A                      A
 Frequencies --   3161.3554              3167.1867              3720.3591
 Red. masses --      1.0893                 1.0896                 1.0657
 Frc consts  --      6.4141                 6.4398                 8.6910
 IR Inten    --     33.5783                17.7546                 7.6013

 - Thermochemistry -
 -------------------
 Temperature   298.150 Kelvin.  Pressure   1.00000 Atm.
 Atom     1 has atomic number  6 and mass  12.00000

 Molecular mass:   178.13577 amu.
 Principal axes and moments of inertia in atomic units:
                           1         2         3
     Eigenvalues --  1347.254953868.459374699.54988
           X            0.99975  -0.02255   0.00091
           Y            0.02255   0.99974   0.00178
           Z           -0.00095  -0.00176   1.00000
 This molecule is an asymmetric top.
 Rotational symmetry number  1.
 Warning -- assumption of classical behavior for rotation
           may cause significant error
 Rotational temperatures (Kelvin)      0.06429     0.02239     0.01843
 Rotational constants (GHZ):           1.33957     0.46653     0.38402
 Zero-point vibrational energy     720758.4 (Joules/Mol)
                                  172.26540 (Kcal/Mol)
 Warning -- explicit consideration of  23 degrees of freedom as
           vibrations may cause significant error
 Vibrational temperatures:     79.09    97.05   113.51   186.31   200.40
          (Kelvin)            221.17   233.66   288.25   379.29   386.35
                              396.46   430.01   442.43   443.42   513.31
                              522.60   608.11   648.68   670.76   692.56
                              759.82   805.31   892.73  1002.12  1059.05
                             1105.91  1203.45  1218.58  1278.97  1304.85
                             1319.35  1386.08  1464.32  1482.88  1512.23
                             1524.51  1539.56  1546.61  1562.06  1577.49
                             1603.16  1649.90  1732.05  1777.80  1783.68
                             1860.52  1882.03  1905.32  1943.25  1969.99
                             2006.36  2054.17  2059.03  2072.37  2076.87
                             2085.92  2087.63  2168.59  2178.30  2181.68
                             2188.21  2190.71  2194.47  2197.03  2200.27
                             2211.67  2242.76  2335.22  2417.03  4367.83
                             4369.25  4369.88  4380.65  4389.45  4416.94
                             4434.07  4436.49  4451.14  4458.13  4478.84
                             4496.47  4497.49  4498.59  4516.02  4548.49
                             4556.88  5352.77

 Zero-point correction=                           0.274522 (Hartree/Particle)
 Thermal correction to Energy=                    0.288920
 Thermal correction to Enthalpy=                  0.289865
 Thermal correction to Gibbs Free Energy=         0.234011
 Sum of electronic and zero-point Energies=           -543.136027
 Sum of electronic and thermal Energies=              -543.121629
 Sum of electronic and thermal Enthalpies=            -543.120685
 Sum of electronic and thermal Free Energies=         -543.176539

                     E (Thermal)             CV                S
                      KCal/Mol        Cal/Mol-Kelvin    Cal/Mol-Kelvin
 Total                  181.300             54.405            117.554
 Electronic               0.000              0.000              0.000
 Translational            0.889              2.981             41.439
 Rotational               0.889              2.981             31.572
 Vibrational            179.523             48.443             44.544
 Vibration     1          0.596              1.976              4.630
 Vibration     2          0.598              1.970              4.226
 Vibration     3          0.600              1.963              3.918
 Vibration     4          0.612              1.924              2.954
 Vibration     5          0.615              1.914              2.814
 Vibration     6          0.619              1.899              2.626
 Vibration     7          0.623              1.889              2.522
 Vibration     8          0.638              1.839              2.130
 Vibration     9          0.670              1.740              1.638
 Vibration    10          0.673              1.731              1.606
 Vibration    11          0.677              1.719              1.561
 Vibration    12          0.692              1.676              1.423
 Vibration    13          0.697              1.659              1.376
 Vibration    14          0.698              1.658              1.372
 Vibration    15          0.732              1.561              1.136
 Vibration    16          0.737              1.548              1.108
 Vibration    17          0.785              1.421              0.883
 Vibration    18          0.810              1.359              0.793
 Vibration    19          0.824              1.325              0.748
 Vibration    20          0.838              1.291              0.706
 Vibration    21          0.883              1.188              0.591
 Vibration    22          0.915              1.118              0.524
 Vibration    23          0.981              0.989              0.416

                           ! Non-Optimized Parameters !
 Normal termination of Gaussian 16 at Wed Dec  9 23:36:34 2020.

 ----------------------------------------------------------------------
 # B3LYP/6-311++G(d,p) empiricaldispersion=gd3bj scf=xqc pop=npa geom=c
 heck
 ----------------------------------------------------------------------

 --------------------------------------
 CID_91658569_JID_3505_Energie_neutraal
 --------------------------------------
 Structure from the checkpoint file:  "JID_3505.chk"
 Charge =  0 Multiplicity = 1

 SCF Done:  E(RB3LYP) =  -543.565374126     A.U. after   15 cycles
 Normal termination of Gaussian 16 at Wed Dec  9 23:39:49 2020.

 ----------------------------------------------------------------------
 # B3LYP/6-311++G(d,p) empiricaldispersion=gd3bj scf=xqc pop=npa geom=c
 heck
 ----------------------------------------------------------------------

 ------------------------------------
 CID_91658569_JID_3505_Energie_kation
 ------------------------------------
 Structure from the checkpoint file:  "JID_3505.chk"
 Charge =  1 Multiplicity = 2

 SCF Done:  E(UB3LYP) =  -543.272973140     A.U. after   23 cycles
 Normal termination of Gaussian 16 at Wed Dec  9 23:46:24 2020.
 Gaussian 16:  ES64L-G16RevA.03 25-Dec-2016

 ----------------------------------------------------------------------
 # B3LYP/6-311++G(d,p) empiricaldispersion=gd3bj scf=xqc pop=npa geom=c
 heck
 ----------------------------------------------------------------------

 -----------------------------------
 CID_91658569_JID_3505_Energie_anion
 -----------------------------------
 Structure from the checkpoint file:  "JID_3505.chk"
 Charge = -1 Multiplicity = 2

                         Standard orientation:
 ---------------------------------------------------------------------
 Center     Atomic      Atomic             Coordinates (Angstroms)
 Number     Number       Type             X           Y           Z
 ---------------------------------------------------------------------
      1          6           0        3.834162    0.462967    0.516639
      2          6           0        2.382367    0.299491    0.142356
      3          6           0        1.549013    1.413694    0.034843
      4          6           0        0.194763    1.322272   -0.306702
      5          6           0       -0.347019    0.049033   -0.555557
      6          6           0        0.491918   -1.067204   -0.455993
      7          6           0        1.840414   -0.974666   -0.111622
      8          6           0        2.695115   -2.213806   -0.019040
      9          6           0       -1.805558   -0.174321   -0.887353
     10          6           0       -2.619724   -0.746973    0.291967
     11          6           0       -2.695627    0.200231    1.487108
     12          8           0       -3.923013   -1.137422   -0.142365
     13          6           0       -0.632327    2.583184   -0.407475
     14          1           0        4.084543    1.515931    0.676279
     15          1           0        4.079322   -0.083087    1.436835
     16          1           0        4.500448    0.074867   -0.264685
     17          1           0        1.971484    2.398678    0.223809
     18          1           0        0.072896   -2.051083   -0.660711
     19          1           0        2.114448   -3.111716   -0.250165
     20          1           0        3.543021   -2.174585   -0.715089
     21          1           0        3.119819   -2.338821    0.985461
     22          1           0       -2.281726    0.756075   -1.220586
     23          1           0       -1.896237   -0.889436   -1.713147
     24          1           0       -2.147478   -1.683425    0.609807
     25          1           0       -3.201388    1.134136    1.205656
     26          1           0       -3.263527   -0.261399    2.300485
     27          1           0       -1.696089    0.455526    1.853218
     28          1           0       -4.391843   -0.326669   -0.398828
     29          1           0       -1.457866    2.592730    0.313362
     30          1           0       -0.015403    3.465768   -0.213843
     31          1           0       -1.075310    2.702477   -1.403962
 ---------------------------------------------------------------------

 SCF Done:  E(UB3LYP) =  -543.550901936     A.U. after   33 cycles
 SCF Done:  E(UB3LYP) =  -543.550901935     a.u. after    1 cycles

 The electronic state is 2-A.
 Alpha  occ. eigenvalues --  -19.02275 -10.12551 -10.07949 -10.07932 -10.07854
 Alpha  occ. eigenvalues --  -10.07728 -10.07075 -10.07063 -10.06899 -10.06778
 Alpha  occ. eigenvalues --  -10.06711 -10.06599 -10.06183  -0.92533  -0.76718
 Alpha  occ. eigenvalues --   -0.70658  -0.67965  -0.65679  -0.62593  -0.60719
 Alpha  occ. eigenvalues --   -0.57475  -0.54924  -0.51271  -0.49413  -0.45272
 Alpha  occ. eigenvalues --   -0.39539  -0.38996  -0.38253  -0.35911  -0.34624
 Alpha  occ. eigenvalues --   -0.34021  -0.33314  -0.31491  -0.31190  -0.30272
 Alpha  occ. eigenvalues --   -0.30203  -0.30068  -0.29366  -0.28732  -0.27506
 Alpha  occ. eigenvalues --   -0.27193  -0.26601  -0.24358  -0.23468  -0.23088
 Alpha  occ. eigenvalues --   -0.22318  -0.18274  -0.14513  -0.12995   0.04361
 Alpha virt. eigenvalues --    0.05873   0.07044   0.07831   0.08174   0.08731
 Alpha virt. eigenvalues --    0.09000   0.09230   0.09894   0.10052   0.10723
 Alpha virt. eigenvalues --    0.10899   0.11393   0.11839   0.12755   0.12901

  Beta  occ. eigenvalues --  -19.02243 -10.12549 -10.07948 -10.07931 -10.07852
  Beta  occ. eigenvalues --  -10.07725 -10.07047 -10.07045 -10.06893 -10.06741
  Beta  occ. eigenvalues --  -10.06700 -10.06568 -10.06152  -0.92468  -0.76705
  Beta  occ. eigenvalues --   -0.70634  -0.67940  -0.65645  -0.62551  -0.60672
  Beta  occ. eigenvalues --   -0.57424  -0.54873  -0.51216  -0.49372  -0.45230
  Beta  occ. eigenvalues --   -0.39520  -0.38938  -0.38217  -0.35880  -0.34588
  Beta  occ. eigenvalues --   -0.33982  -0.33276  -0.31456  -0.31159  -0.30238
  Beta  occ. eigenvalues --   -0.30167  -0.30034  -0.29326  -0.28692  -0.27479
  Beta  occ. eigenvalues --   -0.27152  -0.26576  -0.24326  -0.23442  -0.23065
  Beta  occ. eigenvalues --   -0.22278  -0.18244  -0.14491  -0.12972
  Beta virt. eigenvalues --    0.06462   0.07152   0.07566   0.07989   0.08744
  Beta virt. eigenvalues --    0.09004   0.09200   0.09503   0.10370   0.10440
  Beta virt. eigenvalues --    0.10959   0.11304   0.11750   0.12143   0.13064

 Mulliken charges and spin densities:
               1          2
     1  C    1.983000  -2.562888
     2  C   -0.924614   1.295830
     3  C    1.448644  -2.359533
     4  C   -0.890269   1.221425
     5  C   -0.101004   0.902803
     6  C   -0.221883  -0.543436
     7  C   -1.866918   2.373488
     8  C    0.569640  -1.177268
     9  C   -0.555184   0.372354
    10  C   -0.216971  -0.123462
    11  C    0.321413  -0.890059
    12  O   -0.233338   0.025351
    13  C    1.716885  -2.377552
    14  H   -0.486697   0.638577
    15  H   -0.119983   0.271156
    16  H   -0.153752   0.307244
    17  H   -0.063178   0.166434
    18  H    0.221406  -0.116575
    19  H   -0.194765   0.336694
    20  H   -0.150448   0.302057
    21  H   -0.122427   0.274844
    22  H   -0.236449   0.381790
    23  H   -0.084690   0.285445
    24  H    0.075681   0.085464
    25  H   -0.347445   0.513117
    26  H    0.032724   0.122983
    27  H    0.136732   0.013539
    28  H   -0.038403   0.287537
    29  H   -0.081342   0.240386
    30  H   -0.210615   0.357048
    31  H   -0.205750   0.375206
 Sum of Mulliken charges =  -1.00000   1.00000

 Dipole moment (field-independent basis, Debye):
    X=              0.1900    Y=             -1.9101    Z=              0.3696  Tot=              1.9548
 Quadrupole moment (field-independent basis, Debye-Ang):
   XX=           -173.0699   YY=           -125.5484   ZZ=           -110.5058
   XY=              5.2101   XZ=             -4.0803   YZ=              1.1058

 Summary of Natural Population Analysis:

                                       Natural Population
                Natural  -----------------------------------------------
    Atom  No    Charge         Core      Valence    Rydberg      Total
 -----------------------------------------------------------------------
      C    1   -0.29414      0.99964     2.28888    0.00562     3.29414
      C    2   -0.01355      0.99947     2.00433    0.00974     3.01355
      C    3   -0.09446      0.99947     2.08603    0.00896     3.09446
      C    4   -0.01507      0.99947     2.00594    0.00967     3.01507
      C    5   -0.01758      0.99946     2.00784    0.01028     3.01758
      C    6   -0.09351      0.99947     2.08611    0.00793     3.09351
      C    7   -0.01682      0.99947     2.00749    0.00986     3.01682
      C    8   -0.29392      0.99964     2.28876    0.00552     3.29392
      C    9   -0.21132      0.99958     2.20084    0.01091     3.21132
      C   10    0.06832      0.99957     1.91963    0.01248     2.93168
      C   11   -0.30031      0.99964     2.29503    0.00563     3.30031
      O   12   -0.37222      0.99990     3.36560    0.00672     4.37222
      C   13   -0.29486      0.99963     2.28943    0.00579     3.29486
      H   14    0.10245      0.00000     0.39641    0.00114     0.39755
      H   15    0.10408      0.00000     0.39466    0.00127     0.39592
      H   16    0.10489      0.00000     0.39363    0.00148     0.39511
      H   17    0.09611      0.00000     0.40254    0.00135     0.40389
      H   18    0.09515      0.00000     0.40344    0.00141     0.40485
      H   19    0.10055      0.00000     0.39857    0.00088     0.39945
      H   20    0.10477      0.00000     0.39401    0.00122     0.39523
      H   21    0.10439      0.00000     0.39445    0.00116     0.39561
      H   22    0.10309      0.00000     0.39509    0.00181     0.39691
      H   23    0.10629      0.00000     0.39245    0.00125     0.39371
      H   24    0.08255      0.00000     0.41535    0.00209     0.41745
      H   25    0.09781      0.00000     0.40045    0.00174     0.40219
      H   26    0.10135      0.00000     0.39782    0.00083     0.39865
      H   27    0.10594      0.00000     0.39307    0.00099     0.39406
      H   28    0.22750      0.00000     0.26825    0.00425     0.27250
      H   29    0.10596      0.00000     0.39265    0.00140     0.39404
      H   30    0.10172      0.00000     0.39724    0.00104     0.39828
      H   31    0.10483      0.00000     0.39396    0.00121     0.39517
 =======================================================================
   * Total *    0.00000     12.99443    35.86995    0.13562    49.00000

 Normal termination of Gaussian 16 at Wed Dec  9 23:56:05 2020.
