 Gaussian 16, Revision A.03,

 -----------------------------------------------------------
 # opt freq B3LYP/6-31G(d) empiricaldispersion=gd3bj scf=xqc
 -----------------------------------------------------------

 -------------------------------
 CID_146677017_JID_3341_neutraal
 -------------------------------
 Symbolic Z-matrix:
 Charge =  0 Multiplicity = 1

 SCF Done:  E(RB3LYP) =  -629.932250594     A.U. after   19 cycles
 SCF Done:  E(RB3LYP) =  -629.937930343     A.U. after   15 cycles
 SCF Done:  E(RB3LYP) =  -629.939356497     A.U. after   17 cycles
 SCF Done:  E(RB3LYP) =  -629.941126541     A.U. after   16 cycles
 SCF Done:  E(RB3LYP) =  -629.941517940     A.U. after   18 cycles
 SCF Done:  E(RB3LYP) =  -629.941905805     A.U. after   15 cycles
 SCF Done:  E(RB3LYP) =  -629.941919089     A.U. after   14 cycles
 SCF Done:  E(RB3LYP) =  -629.942109630     A.U. after   14 cycles
 SCF Done:  E(RB3LYP) =  -629.942184006     A.U. after   13 cycles
 SCF Done:  E(RB3LYP) =  -629.942208364     A.U. after   13 cycles
 SCF Done:  E(RB3LYP) =  -629.942214456     A.U. after   11 cycles
 SCF Done:  E(RB3LYP) =  -629.942217089     A.U. after   10 cycles
 SCF Done:  E(RB3LYP) =  -629.942217824     A.U. after   11 cycles
 SCF Done:  E(RB3LYP) =  -629.942217926     A.U. after    8 cycles
 Optimization completed.
    -- Stationary point found.
 Normal termination of Gaussian 16 at Wed Dec  9 22:58:57 2020.

 --------------------------------------------------------------------
 #N Geom=AllCheck Guess=TCheck SCRF=Check GenChk RB3LYP/6-31G(d) Freq
 --------------------------------------------------------------------

 Structure from the checkpoint file:  "JID_3341.chk"
 -------------------------------
 CID_146677017_JID_3341_neutraal
 -------------------------------
 Charge =  0 Multiplicity = 1

 SCF Done:  E(RB3LYP) =  -629.942217926     A.U. after    1 cycles

  Exact polarizability: 127.466   2.442 109.208  -9.609  -0.754  77.863
 Approx polarizability: 196.714  12.990 164.005 -26.509  -0.420 135.883

                      1                      2                      3
                      A                      A                      A
 Frequencies --     44.7431                60.5651                92.2773
 Red. masses --      6.0801                 4.6677                 2.7409
 Frc consts  --      0.0072                 0.0101                 0.0138
 IR Inten    --      3.1579                 0.5062                 2.1934

                      4                      5                      6
                      A                      A                      A
 Frequencies --     99.5408               120.5019               145.0633
 Red. masses --      5.0442                 3.5212                 4.9146
 Frc consts  --      0.0294                 0.0301                 0.0609
 IR Inten    --      3.5861                 0.7499                 5.8723

                      7                      8                      9
                      A                      A                      A
 Frequencies --    182.2609               223.0146               231.6276
 Red. masses --      4.9747                 2.5036                 2.0260
 Frc consts  --      0.0974                 0.0734                 0.0640
 IR Inten    --      0.1148                 1.5625                 0.5371

                     10                     11                     12
                      A                      A                      A
 Frequencies --    304.8381               336.5336               385.0592
 Red. masses --      2.7464                 2.6190                 3.3661
 Frc consts  --      0.1504                 0.1748                 0.2941
 IR Inten    --      1.9808                 3.2360                 1.3123

                     13                     14                     15
                      A                      A                      A
 Frequencies --    410.6268               418.7379               446.0371
 Red. masses --      6.4296                 4.6436                 3.5940
 Frc consts  --      0.6387                 0.4797                 0.4213
 IR Inten    --      9.9724                 4.9176                10.5017

                     16                     17                     18
                      A                      A                      A
 Frequencies --    500.4907               532.9839               606.2635
 Red. masses --      5.0689                 4.2956                 2.8244
 Frc consts  --      0.7481                 0.7190                 0.6116
 IR Inten    --      8.5569                 4.1994                 3.8050

                     19                     20                     21
                      A                      A                      A
 Frequencies --    618.1214               677.1630               741.3964
 Red. masses --      4.2943                 6.1241                 4.4259
 Frc consts  --      0.9667                 1.6546                 1.4334
 IR Inten    --      3.4629                 1.3411                 0.4037

                     22                     23                     24
                      A                      A                      A
 Frequencies --    766.9326               783.3707               842.1430
 Red. masses --      1.5290                 2.0742                 2.0862
 Frc consts  --      0.5299                 0.7500                 0.8717
 IR Inten    --      8.0216                28.1054                34.8261

                     25                     26                     27
                      A                      A                      A
 Frequencies --    851.2506               907.9227               934.9592
 Red. masses --      2.5994                 2.1789                 3.6274
 Frc consts  --      1.1098                 1.0582                 1.8682
 IR Inten    --     12.4146                 0.9160                 3.9868

                     28                     29                     30
                      A                      A                      A
 Frequencies --    975.3423               994.4222              1030.5306
 Red. masses --      3.0679                 2.0606                 2.0807
 Frc consts  --      1.7195                 1.2006                 1.3019
 IR Inten    --      6.5673                 2.0040                 4.8995

                     31                     32                     33
                      A                      A                      A
 Frequencies --   1032.2641              1080.0450              1098.3818
 Red. masses --      1.5427                 2.2162                 2.0298
 Frc consts  --      0.9685                 1.5231                 1.4428
 IR Inten    --      4.6743                10.8287                 7.6049

                     34                     35                     36
                      A                      A                      A
 Frequencies --   1121.7276              1148.1324              1185.1695
 Red. masses --      2.0106                 1.6170                 1.3108
 Frc consts  --      1.4906                 1.2559                 1.0848
 IR Inten    --     12.3253                 0.5419                39.5455

                     37                     38                     39
                      A                      A                      A
 Frequencies --   1235.0094              1247.1701              1264.0792
 Red. masses --      1.4317                 1.2524                 1.3636
 Frc consts  --      1.2866                 1.1477                 1.2838
 IR Inten    --      0.5518                15.8900                 0.2073

                     40                     41                     42
                      A                      A                      A
 Frequencies --   1280.9768              1299.9253              1318.7985
 Red. masses --      1.6416                 3.7361                 1.3285
 Frc consts  --      1.5871                 3.7196                 1.3613
 IR Inten    --     13.1405               100.7039                 2.7605

                     43                     44                     45
                      A                      A                      A
 Frequencies --   1350.4233              1372.6895              1388.8507
 Red. masses --      1.4140                 1.3210                 1.3581
 Frc consts  --      1.5193                 1.4665                 1.5435
 IR Inten    --      4.5781                 6.4964                 5.4845

                     46                     47                     48
                      A                      A                      A
 Frequencies --   1417.7688              1443.9137              1460.6061
 Red. masses --      1.7007                 1.2236                 1.0892
 Frc consts  --      2.0141                 1.5030                 1.3691
 IR Inten    --     11.6185                 1.8516                12.5125

                     49                     50                     51
                      A                      A                      A
 Frequencies --   1510.9920              1526.6230              1540.2972
 Red. masses --      1.0691                 1.0511                 1.0449
 Frc consts  --      1.4381                 1.4433                 1.4607
 IR Inten    --      6.8821                 4.6760                 5.6184

                     52                     53                     54
                      A                      A                      A
 Frequencies --   1678.7253              1691.8024              1787.0256
 Red. masses --     11.9019                 7.1311                10.9767
 Frc consts  --     19.7618                12.0256                20.6530
 IR Inten    --    136.3942                11.6728               337.5590

                     55                     56                     57
                      A                      A                      A
 Frequencies --   1822.2043              3025.4628              3051.2950
 Red. masses --     11.6314                 1.0698                 1.0666
 Frc consts  --     22.7551                 5.7694                 5.8508
 IR Inten    --    139.6742                 1.4691                10.0647

                     58                     59                     60
                      A                      A                      A
 Frequencies --   3054.5031              3058.3098              3080.9479
 Red. masses --      1.0753                 1.0433                 1.0835
 Frc consts  --      5.9107                 5.7494                 6.0599
 IR Inten    --      4.3003                22.6215                 2.2364

                     61                     62                     63
                      A                      A                      A
 Frequencies --   3101.2174              3123.7711              3148.1059
 Red. masses --      1.0984                 1.1011                 1.1000
 Frc consts  --      6.2240                 6.3305                 6.4230
 IR Inten    --      5.7415                25.7994                24.8765

                     64                     65                     66
                      A                      A                      A
 Frequencies --   3150.8213              3199.7933              3217.7910
 Red. masses --      1.0928                 1.0864                 1.0968
 Frc consts  --      6.3920                 6.5534                 6.6910
 IR Inten    --      0.9727                 0.5211                 6.9458

 - Thermochemistry -
 -------------------
 Temperature   298.150 Kelvin.  Pressure   1.00000 Atm.
 Atom     1 has atomic number  6 and mass  12.00000

 Molecular mass:   181.07389 amu.
 Principal axes and moments of inertia in atomic units:
                           1         2         3
     Eigenvalues --  1583.563782907.354263758.36614
           X            0.99876  -0.04912   0.00800
           Y            0.04940   0.99800  -0.03952
           Z           -0.00604   0.03987   0.99919
 This molecule is an asymmetric top.
 Rotational symmetry number  1.
 Warning -- assumption of classical behavior for rotation
           may cause significant error
 Rotational temperatures (Kelvin)      0.05470     0.02979     0.02305
 Rotational constants (GHZ):           1.13967     0.62075     0.48019
 Zero-point vibrational energy     501117.7 (Joules/Mol)
                                  119.77001 (Kcal/Mol)
 Warning -- explicit consideration of  19 degrees of freedom as
           vibrations may cause significant error
 Vibrational temperatures:     64.38    87.14   132.77   143.22   173.38
          (Kelvin)            208.71   262.23   320.87   333.26   438.59
                              484.20   554.01   590.80   602.47   641.75
                              720.09   766.84   872.28   889.34   974.29
                             1066.70  1103.45  1127.10  1211.66  1224.76
                             1306.30  1345.20  1403.30  1430.75  1482.70
                             1485.20  1553.94  1580.33  1613.92  1651.91
                             1705.19  1776.90  1794.40  1818.73  1843.04
                             1870.30  1897.46  1942.96  1974.99  1998.25
                             2039.85  2077.47  2101.49  2173.98  2196.47
                             2216.14  2415.31  2434.13  2571.13  2621.75
                             4352.97  4390.13  4394.75  4400.23  4432.80
                             4461.96  4494.41  4529.42  4533.33  4603.79
                             4629.68

 Zero-point correction=                           0.190866 (Hartree/Particle)
 Thermal correction to Energy=                    0.203541
 Thermal correction to Enthalpy=                  0.204485
 Thermal correction to Gibbs Free Energy=         0.151175
 Sum of electronic and zero-point Energies=           -629.751352
 Sum of electronic and thermal Energies=              -629.738677
 Sum of electronic and thermal Enthalpies=            -629.737733
 Sum of electronic and thermal Free Energies=         -629.791043

                     E (Thermal)             CV                S
                      KCal/Mol        Cal/Mol-Kelvin    Cal/Mol-Kelvin
 Total                  127.724             46.388            112.200
 Electronic               0.000              0.000              0.000
 Translational            0.889              2.981             41.488
 Rotational               0.889              2.981             31.226
 Vibrational            125.946             40.427             39.486
 Vibration     1          0.595              1.980              5.037
 Vibration     2          0.597              1.973              4.439
 Vibration     3          0.602              1.955              3.611
 Vibration     4          0.604              1.949              3.463
 Vibration     5          0.609              1.932              3.092
 Vibration     6          0.616              1.908              2.736
 Vibration     7          0.630              1.864              2.305
 Vibration     8          0.649              1.806              1.934
 Vibration     9          0.653              1.793              1.866
 Vibration    10          0.696              1.665              1.390
 Vibration    11          0.717              1.603              1.229
 Vibration    12          0.754              1.502              1.019
 Vibration    13          0.775              1.447              0.924
 Vibration    14          0.782              1.430              0.896
 Vibration    15          0.805              1.370              0.808
 Vibration    16          0.856              1.249              0.657
 Vibration    17          0.888              1.177              0.581
 Vibration    18          0.965              1.019              0.439
 Vibration    19          0.978              0.994              0.420

                           ! Non-Optimized Parameters !
 Normal termination of Gaussian 16 at Wed Dec  9 23:05:04 2020.

 ----------------------------------------------------------------------
 # B3LYP/6-311++G(d,p) empiricaldispersion=gd3bj scf=xqc pop=npa geom=c
 heck
 ----------------------------------------------------------------------

 ---------------------------------------
 CID_146677017_JID_3341_Energie_neutraal
 ---------------------------------------
 Structure from the checkpoint file:  "JID_3341.chk"
 Charge =  0 Multiplicity = 1

 SCF Done:  E(RB3LYP) =  -630.125120055     A.U. after   20 cycles
 Normal termination of Gaussian 16 at Wed Dec  9 23:08:15 2020.

 ----------------------------------------------------------------------
 # B3LYP/6-311++G(d,p) empiricaldispersion=gd3bj scf=xqc pop=npa geom=c
 heck
 ----------------------------------------------------------------------

 -------------------------------------
 CID_146677017_JID_3341_Energie_kation
 -------------------------------------
 Structure from the checkpoint file:  "JID_3341.chk"
 Charge =  1 Multiplicity = 2

 SCF Done:  E(UB3LYP) =  -629.795729147     A.U. after   33 cycles
 SCF Done:  E(UB3LYP) =  -629.795729150     a.u. after    2 cycles
 Normal termination of Gaussian 16 at Wed Dec  9 23:22:39 2020.
 Gaussian 16:  ES64L-G16RevA.03 25-Dec-2016

 ----------------------------------------------------------------------
 # B3LYP/6-311++G(d,p) empiricaldispersion=gd3bj scf=xqc pop=npa geom=c
 heck
 ----------------------------------------------------------------------

 ------------------------------------
 CID_146677017_JID_3341_Energie_anion
 ------------------------------------
 Structure from the checkpoint file:  "JID_3341.chk"
 Charge = -1 Multiplicity = 2

                         Standard orientation:
 ---------------------------------------------------------------------
 Center     Atomic      Atomic             Coordinates (Angstroms)
 Number     Number       Type             X           Y           Z
 ---------------------------------------------------------------------
      1          6           0       -1.775019    2.274753   -0.927343
      2          6           0       -2.274790    1.000311   -0.241104
      3          6           0       -1.376455   -0.241146   -0.457727
      4          6           0       -0.271847   -0.461361    0.605979
      5          6           0        0.638181   -1.603769    0.232572
      6          6           0        1.899013   -1.462422   -0.207306
      7          6           0        2.549244   -0.146980   -0.355680
      8          8           0        3.721237   -0.025360   -0.665313
      9          6           0        1.661185    1.076843   -0.116314
     10          6           0        0.515892    0.823154    0.842009
     11          8           0        0.225815    1.591191    1.736777
     12          7           0       -2.355109   -1.393557   -0.538804
     13          8           0       -2.291802   -2.187145    0.369039
     14          1           0       -0.834394    2.631285   -0.500004
     15          1           0       -2.509774    3.077168   -0.805482
     16          1           0       -1.632235    2.113574   -2.002258
     17          1           0       -2.384236    1.163023    0.836779
     18          1           0       -3.270534    0.754408   -0.630621
     19          1           0       -0.949348   -0.206185   -1.468593
     20          1           0       -0.789862   -0.701580    1.541153
     21          1           0        0.220198   -2.599423    0.349589
     22          1           0        2.515498   -2.324014   -0.446118
     23          1           0        1.222121    1.336374   -1.092760
     24          1           0        2.263914    1.924494    0.215411
 ---------------------------------------------------------------------

 SCF Done:  E(UB3LYP) =  -630.166991306     A.U. after   30 cycles

 The electronic state is 2-A.
 Alpha  occ. eigenvalues --  -18.99943 -18.98015 -18.95990 -14.19785 -10.14559
 Alpha  occ. eigenvalues --  -10.13089 -10.06822 -10.06262 -10.06226 -10.06208
 Alpha  occ. eigenvalues --  -10.05179 -10.04952 -10.04455  -0.95807  -0.93379
 Alpha  occ. eigenvalues --   -0.91651  -0.72110  -0.67725  -0.63646  -0.61695
 Alpha  occ. eigenvalues --   -0.57541  -0.49764  -0.48522  -0.44795  -0.43081
 Alpha  occ. eigenvalues --   -0.39242  -0.36819  -0.35645  -0.34001  -0.33794
 Alpha  occ. eigenvalues --   -0.32302  -0.31576  -0.30896  -0.29833  -0.29368
 Alpha  occ. eigenvalues --   -0.27156  -0.26745  -0.25478  -0.25133  -0.24541
 Alpha  occ. eigenvalues --   -0.24216  -0.22199  -0.20929  -0.20738  -0.15488
 Alpha  occ. eigenvalues --   -0.14216  -0.12801  -0.03984   0.02610
 Alpha virt. eigenvalues --    0.05433   0.08293   0.09076   0.10033   0.10722
 Alpha virt. eigenvalues --    0.11147   0.12172   0.12673   0.13351   0.14113
 Alpha virt. eigenvalues --    0.14375   0.14649   0.15539   0.16247   0.17294

  Beta  occ. eigenvalues --  -18.99945 -18.97849 -18.95134 -14.18863 -10.14554
  Beta  occ. eigenvalues --  -10.12971 -10.06831 -10.06254 -10.06231 -10.06047
  Beta  occ. eigenvalues --  -10.05172 -10.04965 -10.04366  -0.94156  -0.93372
  Beta  occ. eigenvalues --   -0.91349  -0.71906  -0.67462  -0.63516  -0.61573
  Beta  occ. eigenvalues --   -0.56892  -0.49188  -0.48161  -0.44535  -0.42222
  Beta  occ. eigenvalues --   -0.39083  -0.36586  -0.35534  -0.33855  -0.33574
  Beta  occ. eigenvalues --   -0.31794  -0.31214  -0.30752  -0.29321  -0.29028
  Beta  occ. eigenvalues --   -0.26777  -0.25694  -0.25256  -0.24629  -0.23943
  Beta  occ. eigenvalues --   -0.23063  -0.21712  -0.20092  -0.19105  -0.14940
  Beta  occ. eigenvalues --   -0.14005  -0.12658  -0.03031
  Beta virt. eigenvalues --    0.07043   0.08350   0.09131   0.10007   0.10699
  Beta virt. eigenvalues --    0.11121   0.12122   0.12677   0.13334   0.13379
  Beta virt. eigenvalues --    0.14195   0.14443   0.14674   0.15670   0.16510

 Mulliken charges and spin densities:
               1          2
     1  C   -0.636500   0.003356
     2  C   -0.267464   0.040063
     3  C   -0.178820  -0.029288
     4  C    0.422759  -0.012383
     5  C   -0.333608   0.139647
     6  C   -0.000894   0.016027
     7  C   -0.353594   0.077620
     8  O   -0.337439   0.054914
     9  C   -0.235856  -0.012340
    10  C   -0.301030   0.005675
    11  O   -0.258687  -0.000759
    12  N   -0.194956   0.445361
    13  O   -0.218865   0.264654
    14  H    0.161477   0.002852
    15  H    0.106744   0.001368
    16  H    0.126821  -0.000792
    17  H    0.168965  -0.000869
    18  H    0.119043   0.000681
    19  H    0.160648   0.004178
    20  H    0.258320  -0.002541
    21  H    0.224481  -0.006310
    22  H    0.164732   0.000198
    23  H    0.205019   0.007944
    24  H    0.198705   0.000744
 Sum of Mulliken charges =  -1.00000   1.00000

 Dipole moment (field-independent basis, Debye):
    X=              0.8226    Y=              3.1470    Z=             -0.7381  Tot=              3.3355
 Quadrupole moment (field-independent basis, Debye-Ang):
   XX=           -126.7219   YY=            -98.0980   ZZ=            -89.5970
   XY=            -12.9961   XZ=              2.2352   YZ=             -4.7180

 Summary of Natural Population Analysis:

                                       Natural Population
                Natural  -----------------------------------------------
    Atom  No    Charge         Core      Valence    Rydberg      Total
 -----------------------------------------------------------------------
      C    1   -0.28318      0.99966     2.27956    0.00396     3.28318
      C    2   -0.18836      0.99961     2.18049    0.00826     3.18836
      C    3   -0.05392      0.99957     2.03463    0.01972     3.05392
      C    4   -0.19142      0.99950     2.17633    0.01558     3.19142
      C    5    0.00625      0.99955     1.98425    0.00996     2.99375
      C    6   -0.17187      0.99949     2.16316    0.00922     3.17187
      C    7    0.28195      0.99964     1.69829    0.02013     2.71805
      O    8   -0.28587      0.99988     3.27827    0.00772     4.28587
      C    9   -0.28138      0.99954     2.27271    0.00912     3.28138
      C   10    0.30143      0.99963     1.67610    0.02283     2.69857
      O   11   -0.29823      0.99987     3.29021    0.00815     4.29823
      N   12    0.13646      0.99981     2.33189    0.03184     3.36354
      O   13   -0.10886      0.99990     3.09626    0.01270     4.10886
      H   14    0.09741      0.00000     0.40157    0.00103     0.40259
      H   15    0.09233      0.00000     0.40673    0.00094     0.40767
      H   16    0.09163      0.00000     0.40743    0.00094     0.40837
      H   17    0.09775      0.00000     0.40082    0.00143     0.40225
      H   18    0.09918      0.00000     0.39723    0.00358     0.40082
      H   19    0.09256      0.00000     0.40549    0.00195     0.40744
      H   20    0.12452      0.00000     0.37335    0.00213     0.37548
      H   21    0.10621      0.00000     0.39243    0.00136     0.39379
      H   22    0.10027      0.00000     0.39799    0.00175     0.39973
      H   23    0.12249      0.00000     0.37658    0.00093     0.37751
      H   24    0.11266      0.00000     0.38519    0.00215     0.38734
 =======================================================================
   * Total *   -0.00000     12.99565    34.80698    0.19737    48.00000

 Normal termination of Gaussian 16 at Wed Dec  9 23:29:12 2020.
