 Gaussian 16, Revision A.03,

 -----------------------------------------------------------
 # opt freq B3LYP/6-31G(d) empiricaldispersion=gd3bj scf=xqc
 -----------------------------------------------------------

 ------------------------------
 CID_80774637_JID_6006_neutraal
 ------------------------------
 Symbolic Z-matrix:
 Charge =  0 Multiplicity = 1

 SCF Done:  E(RB3LYP) =  -688.400969943     A.U. after   14 cycles
 SCF Done:  E(RB3LYP) =  -688.408816813     A.U. after   12 cycles
 SCF Done:  E(RB3LYP) =  -688.411459869     A.U. after   12 cycles
 SCF Done:  E(RB3LYP) =  -688.412939593     A.U. after   13 cycles
 SCF Done:  E(RB3LYP) =  -688.413938357     A.U. after   12 cycles
 SCF Done:  E(RB3LYP) =  -688.414044508     A.U. after   12 cycles
 SCF Done:  E(RB3LYP) =  -688.414375762     A.U. after   11 cycles
 SCF Done:  E(RB3LYP) =  -688.414469268     A.U. after   10 cycles
 SCF Done:  E(RB3LYP) =  -688.414518133     A.U. after   11 cycles
 SCF Done:  E(RB3LYP) =  -688.414538138     A.U. after   10 cycles
 SCF Done:  E(RB3LYP) =  -688.414734203     A.U. after   10 cycles
 SCF Done:  E(RB3LYP) =  -688.414737452     A.U. after   10 cycles
 SCF Done:  E(RB3LYP) =  -688.414737816     A.U. after    8 cycles
 SCF Done:  E(RB3LYP) =  -688.414737934     A.U. after    8 cycles
 SCF Done:  E(RB3LYP) =  -688.414738042     A.U. after    7 cycles
 SCF Done:  E(RB3LYP) =  -688.414738103     A.U. after    7 cycles
 Optimization completed.
    -- Stationary point found.
 Normal termination of Gaussian 16 at Thu Dec 10 21:37:30 2020.

 --------------------------------------------------------------------
 #N Geom=AllCheck Guess=TCheck SCRF=Check GenChk RB3LYP/6-31G(d) Freq
 --------------------------------------------------------------------

 Structure from the checkpoint file:  "JID_6006.chk"
 ------------------------------
 CID_80774637_JID_6006_neutraal
 ------------------------------
 Charge =  0 Multiplicity = 1

 SCF Done:  E(RB3LYP) =  -688.414738103     A.U. after    1 cycles

  Exact polarizability: 208.369  -1.529 157.331   2.450   0.425  99.454
 Approx polarizability: 278.979  -6.714 234.315   3.680  -0.567 147.200

                      1                      2                      3
                      A                      A                      A
 Frequencies --     24.5294                37.3510                71.1613
 Red. masses --      3.9866                 1.0351                 2.9999
 Frc consts  --      0.0014                 0.0009                 0.0090
 IR Inten    --      1.2466                 0.5507                 0.1925

                      4                      5                      6
                      A                      A                      A
 Frequencies --     76.1518                81.5660                98.2299
 Red. masses --      2.6510                 2.2798                 1.2788
 Frc consts  --      0.0091                 0.0089                 0.0073
 IR Inten    --      0.4678                 2.4280                 0.8659

                      7                      8                      9
                      A                      A                      A
 Frequencies --    105.4798               150.8617               157.2444
 Red. masses --      2.7214                 2.6391                 1.7725
 Frc consts  --      0.0178                 0.0354                 0.0258
 IR Inten    --      1.9993                 1.3396                 5.1372

                     10                     11                     12
                      A                      A                      A
 Frequencies --    198.9005               210.1583               225.7288
 Red. masses --      2.5868                 3.2592                 2.0462
 Frc consts  --      0.0603                 0.0848                 0.0614
 IR Inten    --      1.9624                 2.1728                 4.3405

                     13                     14                     15
                      A                      A                      A
 Frequencies --    237.6012               260.8070               279.5537
 Red. masses --      3.3068                 3.3905                 2.1679
 Frc consts  --      0.1100                 0.1359                 0.0998
 IR Inten    --      0.4599                 0.4385                 0.6081

                     16                     17                     18
                      A                      A                      A
 Frequencies --    333.1903               378.2177               393.1845
 Red. masses --      2.6645                 2.3667                 3.7988
 Frc consts  --      0.1743                 0.1995                 0.3460
 IR Inten    --     14.4555                37.3057                 5.6789

                     19                     20                     21
                      A                      A                      A
 Frequencies --    423.8887               477.1375               485.3426
 Red. masses --      1.5418                 3.6939                 2.7645
 Frc consts  --      0.1632                 0.4955                 0.3837
 IR Inten    --     79.7590                 7.2733                 0.5757

                     22                     23                     24
                      A                      A                      A
 Frequencies --    558.2250               582.0303               605.3437
 Red. masses --      2.2327                 4.1107                 3.5495
 Frc consts  --      0.4099                 0.8205                 0.7663
 IR Inten    --      3.1968                 3.9725                 7.3064

                     25                     26                     27
                      A                      A                      A
 Frequencies --    617.9114               649.8793               681.4084
 Red. masses --      3.1682                 2.6642                 3.0125
 Frc consts  --      0.7127                 0.6629                 0.8241
 IR Inten    --      7.8376                 1.1525                 3.4124

                     28                     29                     30
                      A                      A                      A
 Frequencies --    704.9283               752.6581               787.7408
 Red. masses --     10.4182                 1.4570                 1.8197
 Frc consts  --      3.0502                 0.4863                 0.6653
 IR Inten    --      1.7324                 6.9172                 2.4513

                     31                     32                     33
                      A                      A                      A
 Frequencies --    806.6021               852.5296               867.3093
 Red. masses --      5.6023                 2.2052                 2.0535
 Frc consts  --      2.1475                 0.9443                 0.9101
 IR Inten    --     43.1135                 1.9022                 1.1368

                     34                     35                     36
                      A                      A                      A
 Frequencies --    913.6766               939.4920               943.9372
 Red. masses --      2.4654                 2.1771                 2.6875
 Frc consts  --      1.2126                 1.1322                 1.4108
 IR Inten    --      0.3254                 1.8000                 1.2002

                     37                     38                     39
                      A                      A                      A
 Frequencies --    973.1903               996.8806               999.8614
 Red. masses --      1.6077                 5.2885                 3.4671
 Frc consts  --      0.8971                 3.0965                 2.0422
 IR Inten    --      2.0606                14.3625                 7.4006

                     40                     41                     42
                      A                      A                      A
 Frequencies --   1033.0137              1039.5093              1054.3012
 Red. masses --      1.9021                 1.4851                 1.7245
 Frc consts  --      1.1959                 0.9455                 1.1294
 IR Inten    --     10.9133                 5.4046                 4.5340

                     43                     44                     45
                      A                      A                      A
 Frequencies --   1075.3157              1082.4850              1103.0484
 Red. masses --      1.6277                 2.0973                 3.0440
 Frc consts  --      1.1089                 1.4480                 2.1822
 IR Inten    --      4.5215                21.0683                 4.2566

                     46                     47                     48
                      A                      A                      A
 Frequencies --   1139.4245              1156.4627              1158.4380
 Red. masses --      2.4495                 1.2905                 1.3831
 Frc consts  --      1.8737                 1.0169                 1.0936
 IR Inten    --      2.0927                10.9700                39.9977

                     49                     50                     51
                      A                      A                      A
 Frequencies --   1165.5859              1183.1226              1199.0347
 Red. masses --      1.5294                 1.7141                 1.5512
 Frc consts  --      1.2243                 1.4137                 1.3140
 IR Inten    --     11.2810                 1.9191                 5.4218

                     52                     53                     54
                      A                      A                      A
 Frequencies --   1219.1864              1248.2280              1262.1856
 Red. masses --      1.6133                 2.8660                 1.4208
 Frc consts  --      1.4129                 2.6309                 1.3336
 IR Inten    --     31.6998                56.6134                 1.2225

                     55                     56                     57
                      A                      A                      A
 Frequencies --   1269.8170              1306.1501              1323.3877
 Red. masses --      1.2779                 2.3245                 1.3273
 Frc consts  --      1.2140                 2.3365                 1.3696
 IR Inten    --      7.1273               108.8866                 1.0888

                     58                     59                     60
                      A                      A                      A
 Frequencies --   1330.9573              1345.2331              1362.4564
 Red. masses --      3.2796                 1.3137                 1.4643
 Frc consts  --      3.4229                 1.4007                 1.6015
 IR Inten    --    105.2868                29.8693                40.1378

                     61                     62                     63
                      A                      A                      A
 Frequencies --   1365.6777              1369.4199              1403.5015
 Red. masses --      1.3369                 1.4160                 1.7941
 Frc consts  --      1.4691                 1.5645                 2.0822
 IR Inten    --      1.0043                 0.1969                15.9133

                     64                     65                     66
                      A                      A                      A
 Frequencies --   1424.9599              1438.0303              1457.7697
 Red. masses --      1.6786                 1.7939                 1.5603
 Frc consts  --      2.0081                 2.1856                 1.9537
 IR Inten    --     23.2395                33.8810                 9.5071

                     67                     68                     69
                      A                      A                      A
 Frequencies --   1478.1673              1487.8898              1501.3582
 Red. masses --      1.5337                 1.3630                 1.3613
 Frc consts  --      1.9744                 1.7778                 1.8079
 IR Inten    --     35.1331                57.0836                25.9962

                     70                     71                     72
                      A                      A                      A
 Frequencies --   1507.7889              1509.3820              1510.8989
 Red. masses --      1.0891                 1.0672                 1.1002
 Frc consts  --      1.4588                 1.4325                 1.4797
 IR Inten    --      2.2026                46.6298                29.4542

                     73                     74                     75
                      A                      A                      A
 Frequencies --   1513.5430              1514.9782              1519.1676
 Red. masses --      1.0911                 1.0447                 1.0937
 Frc consts  --      1.4727                 1.4127                 1.4872
 IR Inten    --     11.0843                 4.4880                 5.9422

                     76                     77                     78
                      A                      A                      A
 Frequencies --   1535.3013              1539.7055              1547.3918
 Red. masses --      1.3649                 1.1199                 1.3945
 Frc consts  --      1.8956                 1.5643                 1.9673
 IR Inten    --      6.0031                12.8935                16.2942

                     79                     80                     81
                      A                      A                      A
 Frequencies --   1554.2757              1576.9901              1615.1275
 Red. masses --      1.1354                 3.1159                 3.9405
 Frc consts  --      1.6160                 4.5656                 6.0564
 IR Inten    --     56.8299               226.9790               182.3078

                     82                     83                     84
                      A                      A                      A
 Frequencies --   1652.2645              3014.0407              3028.3992
 Red. masses --      4.8761                 1.0420                 1.0512
 Frc consts  --      7.8430                 5.5775                 5.6802
 IR Inten    --   1025.5405                61.4155                87.3355

                     85                     86                     87
                      A                      A                      A
 Frequencies --   3031.2268              3049.3838              3058.5635
 Red. masses --      1.0685                 1.0745                 1.0393
 Frc consts  --      5.7843                 5.8866                 5.7284
 IR Inten    --     41.3652                24.2564                11.9195

                     88                     89                     90
                      A                      A                      A
 Frequencies --   3058.9468              3070.0819              3070.8252
 Red. masses --      1.1018                 1.0688                 1.0628
 Frc consts  --      6.0742                 5.9352                 5.9051
 IR Inten    --     35.5337                50.2054                37.6252

                     91                     92                     93
                      A                      A                      A
 Frequencies --   3084.7994              3094.4565              3113.7057
 Red. masses --      1.0833                 1.0929                 1.0860
 Frc consts  --      6.0736                 6.1662                 6.2035
 IR Inten    --     49.3417                33.7852                41.6931

                     94                     95                     96
                      A                      A                      A
 Frequencies --   3116.5675              3119.9640              3140.1037
 Red. masses --      1.0981                 1.1035                 1.0988
 Frc consts  --      6.2843                 6.3287                 6.3832
 IR Inten    --     13.9830                36.0193                24.3367

                     97                     98                     99
                      A                      A                      A
 Frequencies --   3151.6441              3158.0350              3164.8144
 Red. masses --      1.0944                 1.0947                 1.1023
 Frc consts  --      6.4045                 6.4328                 6.5048
 IR Inten    --     22.3621                35.2456                12.9497

                    100                    101                    102
                      A                      A                      A
 Frequencies --   3165.1216              3229.6934              3628.9688
 Red. masses --      1.1022                 1.0902                 1.0765
 Frc consts  --      6.5058                 6.6999                 8.3529
 IR Inten    --     12.8929                12.0161                22.8327

 - Thermochemistry -
 -------------------
 Temperature   298.150 Kelvin.  Pressure   1.00000 Atm.
 Atom     1 has atomic number  6 and mass  12.00000

 Molecular mass:   220.16880 amu.
 Principal axes and moments of inertia in atomic units:
                           1         2         3
     Eigenvalues --  1844.690985425.001836750.69401
           X            1.00000   0.00218   0.00154
           Y           -0.00218   1.00000   0.00145
           Z           -0.00153  -0.00145   1.00000
 This molecule is an asymmetric top.
 Rotational symmetry number  1.
 Warning -- assumption of classical behavior for rotation
           may cause significant error
 Rotational temperatures (Kelvin)      0.04695     0.01597     0.01283
 Rotational constants (GHZ):           0.97834     0.33267     0.26734
 Zero-point vibrational energy     834815.0 (Joules/Mol)
                                  199.52557 (Kcal/Mol)
 Warning -- explicit consideration of  25 degrees of freedom as
           vibrations may cause significant error
 Vibrational temperatures:     35.29    53.74   102.39   109.57   117.36
          (Kelvin)            141.33   151.76   217.06   226.24   286.17
                              302.37   324.77   341.86   375.24   402.22
                              479.39   544.17   565.70   609.88   686.49
                              698.30   803.16   837.41   870.95   889.04
                              935.03   980.39  1014.23  1082.91  1133.38
                             1160.52  1226.60  1247.86  1314.58  1351.72
                             1358.12  1400.20  1434.29  1438.58  1486.28
                             1495.62  1516.90  1547.14  1557.45  1587.04
                             1639.38  1663.89  1666.73  1677.02  1702.25
                             1725.14  1754.14  1795.92  1816.00  1826.98
                             1879.26  1904.06  1914.95  1935.49  1960.27
                             1964.91  1970.29  2019.33  2050.20  2069.00
                             2097.41  2126.75  2140.74  2160.12  2169.37
                             2171.66  2173.85  2177.65  2179.72  2185.74
                             2208.96  2215.29  2226.35  2236.26  2268.94
                             2323.81  2377.24  4336.53  4357.19  4361.26
                             4387.38  4400.59  4401.14  4417.16  4418.23
                             4438.34  4452.23  4479.93  4484.05  4488.93
                             4517.91  4534.51  4543.71  4553.46  4553.90
                             4646.81  5221.28

 Zero-point correction=                           0.317964 (Hartree/Particle)
 Thermal correction to Energy=                    0.334635
 Thermal correction to Enthalpy=                  0.335579
 Thermal correction to Gibbs Free Energy=         0.272495
 Sum of electronic and zero-point Energies=           -688.096774
 Sum of electronic and thermal Energies=              -688.080103
 Sum of electronic and thermal Enthalpies=            -688.079159
 Sum of electronic and thermal Free Energies=         -688.142243

                     E (Thermal)             CV                S
                      KCal/Mol        Cal/Mol-Kelvin    Cal/Mol-Kelvin
 Total                  209.987             61.643            132.772
 Electronic               0.000              0.000              0.000
 Translational            0.889              2.981             42.071
 Rotational               0.889              2.981             32.580
 Vibrational            208.209             55.682             58.122
 Vibration     1          0.593              1.985              6.229
 Vibration     2          0.594              1.982              5.395
 Vibration     3          0.598              1.968              4.121
 Vibration     4          0.599              1.965              3.988
 Vibration     5          0.600              1.962              3.853
 Vibration     6          0.604              1.950              3.489
 Vibration     7          0.605              1.945              3.350
 Vibration     8          0.618              1.902              2.661
 Vibration     9          0.621              1.895              2.583
 Vibration    10          0.637              1.841              2.143
 Vibration    11          0.642              1.825              2.042
 Vibration    12          0.650              1.802              1.913
 Vibration    13          0.656              1.783              1.821
 Vibration    14          0.669              1.744              1.656
 Vibration    15          0.680              1.711              1.536
 Vibration    16          0.715              1.609              1.245
 Vibration    17          0.748              1.517              1.046
 Vibration    18          0.760              1.485              0.988
 Vibration    19          0.786              1.418              0.879
 Vibration    20          0.834              1.301              0.718
 Vibration    21          0.841              1.283              0.696
 Vibration    22          0.914              1.122              0.527
 Vibration    23          0.939              1.070              0.482
 Vibration    24          0.964              1.020              0.441
 Vibration    25          0.978              0.994              0.420

                           ! Non-Optimized Parameters !
 Normal termination of Gaussian 16 at Thu Dec 10 21:50:18 2020.

 ----------------------------------------------------------------------
 # B3LYP/6-311++G(d,p) empiricaldispersion=gd3bj scf=xqc pop=npa geom=c
 heck
 ----------------------------------------------------------------------

 --------------------------------------
 CID_80774637_JID_6006_Energie_neutraal
 --------------------------------------
 Structure from the checkpoint file:  "JID_6006.chk"
 Charge =  0 Multiplicity = 1

 SCF Done:  E(RB3LYP) =  -688.599387635     A.U. after   15 cycles
 Normal termination of Gaussian 16 at Thu Dec 10 21:56:06 2020.

 ----------------------------------------------------------------------
 # B3LYP/6-311++G(d,p) empiricaldispersion=gd3bj scf=xqc pop=npa geom=c
 heck
 ----------------------------------------------------------------------

 ------------------------------------
 CID_80774637_JID_6006_Energie_kation
 ------------------------------------
 Structure from the checkpoint file:  "JID_6006.chk"
 Charge =  1 Multiplicity = 2

 SCF Done:  E(UB3LYP) =  -688.331664287     A.U. after   21 cycles
 Normal termination of Gaussian 16 at Thu Dec 10 22:07:02 2020.
 Gaussian 16:  ES64L-G16RevA.03 25-Dec-2016

 ----------------------------------------------------------------------
 # B3LYP/6-311++G(d,p) empiricaldispersion=gd3bj scf=xqc pop=npa geom=c
 heck
 ----------------------------------------------------------------------

 -----------------------------------
 CID_80774637_JID_6006_Energie_anion
 -----------------------------------
 Structure from the checkpoint file:  "JID_6006.chk"
 Charge = -1 Multiplicity = 2

                         Standard orientation:
 ---------------------------------------------------------------------
 Center     Atomic      Atomic             Coordinates (Angstroms)
 Number     Number       Type             X           Y           Z
 ---------------------------------------------------------------------
      1          6           0       -0.783452    2.916025    0.054343
      2          6           0       -1.028124    1.429085    0.045998
      3          7           0       -2.304055    1.028797    0.016787
      4          6           0       -2.499920   -0.305951    0.026678
      5          6           0       -1.438728   -1.221949    0.055057
      6          6           0       -0.140792   -0.686878    0.084320
      7          7           0        0.056055    0.654701    0.075378
      8          7           0        0.975896   -1.479741    0.124713
      9          6           0        0.804522   -2.920812    0.089417
     10          6           0        2.333127   -0.914672    0.074702
     11          6           0        2.691163   -0.186681   -1.246141
     12          6           0        3.756466    0.836069   -0.828323
     13          6           0        3.242897    1.340537    0.532000
     14          6           0        2.698452    0.077581    1.225737
     15          7           0       -3.800310   -0.736908    0.029914
     16          6           0       -4.911059    0.163100   -0.224922
     17          1           0       -1.714319    3.455671   -0.128859
     18          1           0       -0.378621    3.225015    1.025516
     19          1           0       -0.041317    3.184371   -0.704401
     20          1           0       -1.633350   -2.286610    0.058255
     21          1           0        1.782576   -3.399537    0.148037
     22          1           0        0.202928   -3.273967    0.937630
     23          1           0        0.314476   -3.256078   -0.836243
     24          1           0        2.990665   -1.782639    0.166362
     25          1           0        3.031485   -0.885670   -2.018270
     26          1           0        1.806248    0.333464   -1.618664
     27          1           0        3.887843    1.637550   -1.563342
     28          1           0        4.731175    0.342936   -0.705274
     29          1           0        2.418317    2.040810    0.369017
     30          1           0        4.015025    1.849813    1.118675
     31          1           0        1.833016    0.292830    1.852780
     32          1           0        3.467478   -0.377327    1.861806
     33          1           0       -3.942951   -1.713468   -0.181572
     34          1           0       -4.932064    0.530686   -1.260818
     35          1           0       -5.843515   -0.368023   -0.015271
     36          1           0       -4.835514    1.029518    0.433893
 ---------------------------------------------------------------------

 SCF Done:  E(UB3LYP) =  -688.587917871     A.U. after   31 cycles

 The electronic state is 2-A.
 Alpha  occ. eigenvalues --  -14.23609 -14.22868 -14.19073 -14.18841 -10.14579
 Alpha  occ. eigenvalues --  -10.14491 -10.13927 -10.10917 -10.09931 -10.09835
 Alpha  occ. eigenvalues --  -10.07206 -10.07046 -10.06504 -10.06329 -10.06229
 Alpha  occ. eigenvalues --  -10.06048  -0.89193  -0.85890  -0.82486  -0.75603
 Alpha  occ. eigenvalues --   -0.73383  -0.68572  -0.63263  -0.61899  -0.61259
 Alpha  occ. eigenvalues --   -0.60454  -0.57969  -0.52442  -0.51066  -0.47759
 Alpha  occ. eigenvalues --   -0.47060  -0.43161  -0.42081  -0.39762  -0.38632
 Alpha  occ. eigenvalues --   -0.37034  -0.36129  -0.35277  -0.34909  -0.34027
 Alpha  occ. eigenvalues --   -0.33528  -0.32057  -0.31966  -0.31514  -0.30428
 Alpha  occ. eigenvalues --   -0.29445  -0.29254  -0.28984  -0.26712  -0.25915
 Alpha  occ. eigenvalues --   -0.24551  -0.24136  -0.23791  -0.22673  -0.22095
 Alpha  occ. eigenvalues --   -0.19417  -0.19126  -0.14950  -0.12907  -0.10972
 Alpha  occ. eigenvalues --    0.04114
 Alpha virt. eigenvalues --    0.05769   0.06719   0.07565   0.07926   0.08045
 Alpha virt. eigenvalues --    0.08426   0.09662   0.09686   0.09899   0.09978
 Alpha virt. eigenvalues --    0.10228   0.10358   0.11441   0.12101   0.12211

  Beta  occ. eigenvalues --  -14.23606 -14.22835 -14.19065 -14.18840 -10.14581
  Beta  occ. eigenvalues --  -10.14490 -10.13927 -10.10903 -10.09907 -10.09792
  Beta  occ. eigenvalues --  -10.07203 -10.07035 -10.06501 -10.06321 -10.06220
  Beta  occ. eigenvalues --  -10.06031  -0.89181  -0.85868  -0.82456  -0.75584
  Beta  occ. eigenvalues --   -0.73366  -0.68554  -0.63238  -0.61868  -0.61238
  Beta  occ. eigenvalues --   -0.60412  -0.57924  -0.52395  -0.51032  -0.47730
  Beta  occ. eigenvalues --   -0.47030  -0.43130  -0.42038  -0.39721  -0.38601
  Beta  occ. eigenvalues --   -0.36989  -0.36108  -0.35242  -0.34866  -0.33994
  Beta  occ. eigenvalues --   -0.33512  -0.32030  -0.31945  -0.31490  -0.30411
  Beta  occ. eigenvalues --   -0.29421  -0.29222  -0.28967  -0.26689  -0.25893
  Beta  occ. eigenvalues --   -0.24530  -0.24119  -0.23776  -0.22652  -0.22075
  Beta  occ. eigenvalues --   -0.19403  -0.19117  -0.14942  -0.12889  -0.10951
  Beta virt. eigenvalues --    0.06193   0.06832   0.07234   0.08079   0.08085
  Beta virt. eigenvalues --    0.08537   0.08657   0.09942   0.09998   0.10102
  Beta virt. eigenvalues --    0.10234   0.10363   0.10592   0.11541   0.12223

 Mulliken charges and spin densities:
               1          2
     1  C   -0.053331  -0.336324
     2  C   -0.186807   0.012872
     3  N   -0.052411  -0.049641
     4  C    0.565438  -0.527552
     5  C   -0.246122  -0.216244
     6  C   -0.406574   0.052887
     7  N   -0.024075   0.035275
     8  N    0.292157   0.040766
     9  C    1.251428  -1.505171
    10  C   -1.011464   0.775182
    11  C    0.456593  -0.564655
    12  C   -0.152506  -0.388496
    13  C   -0.094371  -0.216117
    14  C    0.090796  -0.313625
    15  N   -0.219031   0.094865
    16  C    0.387845  -0.739589
    17  H    0.141519   0.000718
    18  H    0.120971   0.036438
    19  H    0.113982   0.032997
    20  H   -0.262303   0.437119
    21  H   -0.511289   0.664343
    22  H   -0.233176   0.390474
    23  H   -0.296603   0.466457
    24  H   -0.235748   0.413555
    25  H   -0.079493   0.234840
    26  H    0.120977   0.054094
    27  H    0.056693   0.094426
    28  H   -0.059281   0.178000
    29  H    0.173858  -0.030924
    30  H    0.065046   0.084273
    31  H    0.114180   0.060265
    32  H   -0.138134   0.289159
    33  H   -0.404147   0.681363
    34  H   -0.023787   0.180714
    35  H   -0.339220   0.482532
    36  H    0.078388   0.094724
 Sum of Mulliken charges =  -1.00000   1.00000

 Dipole moment (field-independent basis, Debye):
    X=              2.6588    Y=              7.4905    Z=              0.2728  Tot=              7.9530
 Quadrupole moment (field-independent basis, Debye-Ang):
   XX=           -186.6130   YY=           -153.4092   ZZ=           -125.7767
   XY=             -5.4789   XZ=             -1.1306   YZ=             -0.8981

 Summary of Natural Population Analysis:

                                       Natural Population
                Natural  -----------------------------------------------
    Atom  No    Charge         Core      Valence    Rydberg      Total
 -----------------------------------------------------------------------
      C    1   -0.30010      0.99963     2.29516    0.00531     3.30010
      C    2    0.23123      0.99963     1.75265    0.01649     2.76877
      N    3   -0.30025      0.99965     2.79167    0.00894     3.80025
      C    4    0.22063      0.99954     1.76476    0.01508     2.77937
      C    5   -0.19438      0.99949     2.18656    0.00833     3.19438
      C    6    0.22697      0.99952     1.75939    0.01413     2.77303
      N    7   -0.30468      0.99964     2.79493    0.01011     3.80468
      N    8   -0.24412      0.99963     2.73222    0.01226     3.74412
      C    9   -0.17360      0.99964     2.16578    0.00818     3.17360
      C   10    0.00384      0.99957     1.98260    0.01398     2.99616
      C   11   -0.19678      0.99961     2.18882    0.00835     3.19678
      C   12   -0.19181      0.99964     2.18466    0.00751     3.19181
      C   13   -0.19374      0.99964     2.18619    0.00791     3.19374
      C   14   -0.19362      0.99962     2.18530    0.00870     3.19362
      N   15   -0.30366      0.99967     2.79262    0.01136     3.80366
      C   16   -0.17811      0.99965     2.16953    0.00893     3.17811
      H   17    0.10477      0.00000     0.39441    0.00082     0.39523
      H   18    0.10436      0.00000     0.39463    0.00101     0.39564
      H   19    0.10424      0.00000     0.39474    0.00102     0.39576
      H   20    0.11210      0.00000     0.38606    0.00184     0.38790
      H   21    0.10179      0.00000     0.39651    0.00170     0.39821
      H   22    0.09636      0.00000     0.40205    0.00159     0.40364
      H   23    0.09537      0.00000     0.40288    0.00175     0.40463
      H   24    0.09879      0.00000     0.39946    0.00175     0.40121
      H   25    0.09805      0.00000     0.40099    0.00097     0.40195
      H   26    0.10761      0.00000     0.39093    0.00146     0.39239
      H   27    0.09672      0.00000     0.40252    0.00076     0.40328
      H   28    0.09177      0.00000     0.40709    0.00114     0.40823
      H   29    0.10204      0.00000     0.39650    0.00146     0.39796
      H   30    0.09376      0.00000     0.40542    0.00082     0.40624
      H   31    0.10934      0.00000     0.38967    0.00099     0.39066
      H   32    0.09406      0.00000     0.40485    0.00108     0.40594
      H   33    0.19409      0.00000     0.29707    0.00885     0.30591
      H   34    0.08822      0.00000     0.41056    0.00122     0.41178
      H   35    0.09642      0.00000     0.40236    0.00121     0.40358
      H   36    0.10231      0.00000     0.39639    0.00131     0.39769
 =======================================================================
   * Total *    0.00000     15.99375    43.80792    0.19834    60.00000

 Normal termination of Gaussian 16 at Thu Dec 10 22:24:03 2020.
