 Gaussian 16, Revision A.03,

 -----------------------------------------------------------
 # opt freq B3LYP/6-31G(d) empiricaldispersion=gd3bj scf=xqc
 -----------------------------------------------------------

 ------------------------------
 CID_23174459_JID_3593_neutraal
 ------------------------------
 Symbolic Z-matrix:
 Charge =  0 Multiplicity = 1

 SCF Done:  E(RB3LYP) =  -631.256707022     A.U. after   14 cycles
 SCF Done:  E(RB3LYP) =  -631.259920501     A.U. after   12 cycles
 SCF Done:  E(RB3LYP) =  -631.258451066     A.U. after   13 cycles
 SCF Done:  E(RB3LYP) =  -631.260609314     A.U. after   12 cycles
 SCF Done:  E(RB3LYP) =  -631.260694523     A.U. after   11 cycles
 SCF Done:  E(RB3LYP) =  -631.260875907     A.U. after   12 cycles
 SCF Done:  E(RB3LYP) =  -631.261120986     A.U. after   12 cycles
 SCF Done:  E(RB3LYP) =  -631.261449778     A.U. after   11 cycles
 SCF Done:  E(RB3LYP) =  -631.261587596     A.U. after   11 cycles
 SCF Done:  E(RB3LYP) =  -631.261517139     A.U. after   12 cycles
 SCF Done:  E(RB3LYP) =  -631.261582079     A.U. after   11 cycles
 SCF Done:  E(RB3LYP) =  -631.261619009     A.U. after   11 cycles
 SCF Done:  E(RB3LYP) =  -631.261620386     A.U. after    8 cycles
 SCF Done:  E(RB3LYP) =  -631.261620943     A.U. after    8 cycles
 SCF Done:  E(RB3LYP) =  -631.261621996     A.U. after    8 cycles
 SCF Done:  E(RB3LYP) =  -631.261622067     A.U. after    7 cycles
 Optimization completed.
    -- Stationary point found.
 Normal termination of Gaussian 16 at Wed Dec  9 23:30:33 2020.

 --------------------------------------------------------------------
 #N Geom=AllCheck Guess=TCheck SCRF=Check GenChk RB3LYP/6-31G(d) Freq
 --------------------------------------------------------------------

 Structure from the checkpoint file:  "JID_3593.chk"
 ------------------------------
 CID_23174459_JID_3593_neutraal
 ------------------------------
 Charge =  0 Multiplicity = 1

 SCF Done:  E(RB3LYP) =  -631.261622067     A.U. after    1 cycles

  Exact polarizability: 132.501   4.661  93.963   0.263  -0.572  85.660
 Approx polarizability: 180.496  10.224 140.239  -5.785  -4.050 131.979

                      1                      2                      3
                      A                      A                      A
 Frequencies --     28.0907                42.6659                57.1855
 Red. masses --     10.6448                 5.6604                 3.5627
 Frc consts  --      0.0049                 0.0061                 0.0069
 IR Inten    --      1.7895                 1.0940                 1.4366

                      4                      5                      6
                      A                      A                      A
 Frequencies --     67.7657               118.7545               152.5549
 Red. masses --      4.2321                 4.6435                 1.0379
 Frc consts  --      0.0115                 0.0386                 0.0142
 IR Inten    --      0.6959                 1.6198                 0.1869

                      7                      8                      9
                      A                      A                      A
 Frequencies --    192.5242               208.4517               245.0125
 Red. masses --      4.7156                 3.7557                 1.2943
 Frc consts  --      0.1030                 0.0961                 0.0458
 IR Inten    --      0.2394                 2.3458                 0.2979

                     10                     11                     12
                      A                      A                      A
 Frequencies --    262.3321               311.7165               346.2795
 Red. masses --      2.0285                 3.1737                 3.0019
 Frc consts  --      0.0822                 0.1817                 0.2121
 IR Inten    --      0.0119                 0.8502                 2.3757

                     13                     14                     15
                      A                      A                      A
 Frequencies --    383.5038               439.5383               477.2033
 Red. masses --      2.5981                 4.6083                 3.6257
 Frc consts  --      0.2251                 0.5245                 0.4865
 IR Inten    --      0.9001                19.9283                 5.8412

                     16                     17                     18
                      A                      A                      A
 Frequencies --    494.1245               527.9127               540.9686
 Red. masses --      2.3257                 3.8982                 1.6894
 Frc consts  --      0.3346                 0.6401                 0.2913
 IR Inten    --     14.6748                12.7022                20.0179

                     19                     20                     21
                      A                      A                      A
 Frequencies --    593.7521               626.5325               631.0841
 Red. masses --      2.6792                 1.6043                 1.4828
 Frc consts  --      0.5565                 0.3710                 0.3479
 IR Inten    --      9.3888                46.8700                93.0441

                     22                     23                     24
                      A                      A                      A
 Frequencies --    672.8272               769.9952               775.6111
 Red. masses --      3.5821                 1.9616                 4.3989
 Frc consts  --      0.9554                 0.6852                 1.5591
 IR Inten    --     44.0541                44.5886                15.3708

                     25                     26                     27
                      A                      A                      A
 Frequencies --    794.4494               807.5534               849.3095
 Red. masses --      3.6980                 3.7881                 2.4692
 Frc consts  --      1.3751                 1.4555                 1.0494
 IR Inten    --     11.1725                 2.6889                 8.0940

                     28                     29                     30
                      A                      A                      A
 Frequencies --    890.8967               936.5106               957.3450
 Red. masses --      2.4979                 2.2357                 1.8096
 Frc consts  --      1.1681                 1.1553                 0.9772
 IR Inten    --     10.8890                 3.2113                 0.8491

                     31                     32                     33
                      A                      A                      A
 Frequencies --    978.0592               991.4254              1024.9526
 Red. masses --      1.3499                 1.8574                 2.1222
 Frc consts  --      0.7608                 1.0757                 1.3135
 IR Inten    --      0.2914                 3.2832                 5.8096

                     34                     35                     36
                      A                      A                      A
 Frequencies --   1047.6906              1064.1514              1091.4524
 Red. masses --      1.6532                 1.7366                 1.9903
 Frc consts  --      1.0691                 1.1587                 1.3970
 IR Inten    --     15.6507                 4.2298                 5.7973

                     37                     38                     39
                      A                      A                      A
 Frequencies --   1120.4193              1138.3273              1170.8274
 Red. masses --      1.3404                 2.9118                 2.7961
 Frc consts  --      0.9914                 2.2230                 2.2583
 IR Inten    --      4.9421               213.9277                18.2342

                     40                     41                     42
                      A                      A                      A
 Frequencies --   1216.7516              1231.2151              1270.3095
 Red. masses --      2.2411                 1.8990                 1.5550
 Frc consts  --      1.9548                 1.6961                 1.4785
 IR Inten    --     14.5340                73.8393                 2.0117

                     43                     44                     45
                      A                      A                      A
 Frequencies --   1302.3360              1329.1343              1353.4637
 Red. masses --      1.6272                 1.3579                 1.6496
 Frc consts  --      1.6261                 1.4134                 1.7804
 IR Inten    --      0.9170                 1.0348               142.3126

                     46                     47                     48
                      A                      A                      A
 Frequencies --   1375.1843              1375.8627              1396.5741
 Red. masses --      1.9303                 1.7956                 1.9098
 Frc consts  --      2.1508                 2.0027                 2.1946
 IR Inten    --     36.6202                59.1288                 3.6514

                     49                     50                     51
                      A                      A                      A
 Frequencies --   1425.2472              1433.4467              1481.7634
 Red. masses --      1.5094                 1.2437                 1.6665
 Frc consts  --      1.8064                 1.5057                 2.1559
 IR Inten    --     93.3200                 9.2299               109.1549

                     52                     53                     54
                      A                      A                      A
 Frequencies --   1502.5949              1510.3106              1516.0648
 Red. masses --      1.0662                 1.0845                 1.0474
 Frc consts  --      1.4184                 1.4575                 1.4184
 IR Inten    --      6.9659                 3.0722                11.0380

                     55                     56                     57
                      A                      A                      A
 Frequencies --   1521.2009              1532.0618              1706.0351
 Red. masses --      1.0526                 1.0620                 6.7108
 Frc consts  --      1.4351                 1.4686                11.5080
 IR Inten    --      4.3633                 9.5522                 0.8450

                     58                     59                     60
                      A                      A                      A
 Frequencies --   1796.8876              1839.0285              3057.6555
 Red. masses --      8.1660                10.1453                 1.0402
 Frc consts  --     15.5347                20.2159                 5.7300
 IR Inten    --    430.8700               256.9715                 4.6608

                     61                     62                     63
                      A                      A                      A
 Frequencies --   3060.4991              3075.9796              3088.6422
 Red. masses --      1.0340                 1.0752                 1.0710
 Frc consts  --      5.7061                 5.9938                 6.0197
 IR Inten    --     18.8046                10.6545                29.6015

                     64                     65                     66
                      A                      A                      A
 Frequencies --   3117.3824              3132.9353              3137.1716
 Red. masses --      1.1004                 1.1036                 1.1037
 Frc consts  --      6.3009                 6.3823                 6.3997
 IR Inten    --     11.2649                 9.3023                24.8515

                     67                     68                     69
                      A                      A                      A
 Frequencies --   3144.1245              3180.0036              3213.7698
 Red. masses --      1.1037                 1.1002                 1.0878
 Frc consts  --      6.4281                 6.5549                 6.6194
 IR Inten    --     18.0416                 9.6759                 5.5756

                     70                     71                     72
                      A                      A                      A
 Frequencies --   3241.7144              3591.8855              3682.6001
 Red. masses --      1.1020                 1.0761                 1.0640
 Frc consts  --      6.8232                 8.1799                 8.5018
 IR Inten    --      7.0483                14.5216                53.9939

 - Thermochemistry -
 -------------------
 Temperature   298.150 Kelvin.  Pressure   1.00000 Atm.
 Atom     1 has atomic number  6 and mass  12.00000

 Molecular mass:   183.08954 amu.
 Principal axes and moments of inertia in atomic units:
                           1         2         3
     Eigenvalues --  1055.589704388.244704581.99414
           X            0.99978   0.00584   0.02033
           Y           -0.00731   0.99729   0.07318
           Z           -0.01984  -0.07332   0.99711
 This molecule is an asymmetric top.
 Rotational symmetry number  1.
 Warning -- assumption of classical behavior for rotation
           may cause significant error
 Rotational temperatures (Kelvin)      0.08205     0.01974     0.01890
 Rotational constants (GHZ):           1.70970     0.41127     0.39388
 Zero-point vibrational energy     566249.9 (Joules/Mol)
                                  135.33698 (Kcal/Mol)
 Warning -- explicit consideration of  19 degrees of freedom as
           vibrations may cause significant error
 Vibrational temperatures:     40.42    61.39    82.28    97.50   170.86
          (Kelvin)            219.49   277.00   299.92   352.52   377.44
                              448.49   498.22   551.78   632.40   686.59
                              710.93   759.55   778.33   854.28   901.44
                              907.99   968.05  1107.85  1115.93  1143.04
                             1161.89  1221.97  1281.80  1347.43  1377.41
                             1407.21  1426.44  1474.68  1507.39  1531.08
                             1570.36  1612.03  1637.80  1684.56  1750.63
                             1771.44  1827.69  1873.77  1912.33  1947.33
                             1978.58  1979.56  2009.36  2050.61  2062.41
                             2131.93  2161.90  2173.00  2181.28  2188.67
                             2204.30  2454.60  2585.32  2645.95  4399.28
                             4403.38  4425.65  4443.87  4485.22  4507.60
                             4513.69  4523.69  4575.32  4623.90  4664.10
                             5167.92  5298.44

 Zero-point correction=                           0.215673 (Hartree/Particle)
 Thermal correction to Energy=                    0.229038
 Thermal correction to Enthalpy=                  0.229982
 Thermal correction to Gibbs Free Energy=         0.174292
 Sum of electronic and zero-point Energies=           -631.045949
 Sum of electronic and thermal Energies=              -631.032584
 Sum of electronic and thermal Enthalpies=            -631.031640
 Sum of electronic and thermal Free Energies=         -631.087330

                     E (Thermal)             CV                S
                      KCal/Mol        Cal/Mol-Kelvin    Cal/Mol-Kelvin
 Total                  143.724             49.253            117.209
 Electronic               0.000              0.000              0.000
 Translational            0.889              2.981             41.521
 Rotational               0.889              2.981             31.429
 Vibrational            141.946             43.291             44.259
 Vibration     1          0.593              1.984              5.960
 Vibration     2          0.595              1.980              5.131
 Vibration     3          0.596              1.975              4.552
 Vibration     4          0.598              1.970              4.217
 Vibration     5          0.609              1.934              3.121
 Vibration     6          0.619              1.900              2.640
 Vibration     7          0.635              1.850              2.203
 Vibration     8          0.642              1.828              2.057
 Vibration     9          0.660              1.771              1.766
 Vibration    10          0.670              1.742              1.646
 Vibration    11          0.700              1.651              1.353
 Vibration    12          0.724              1.583              1.183
 Vibration    13          0.753              1.505              1.025
 Vibration    14          0.800              1.384              0.828
 Vibration    15          0.834              1.301              0.718
 Vibration    16          0.850              1.263              0.673
 Vibration    17          0.883              1.188              0.592
 Vibration    18          0.896              1.159              0.563
 Vibration    19          0.951              1.045              0.461

 Optimization completed.
    -- Stationary point found.
 Normal termination of Gaussian 16 at Wed Dec  9 23:36:58 2020.

 ----------------------------------------------------------------------
 # B3LYP/6-311++G(d,p) empiricaldispersion=gd3bj scf=xqc pop=npa geom=c
 heck
 ----------------------------------------------------------------------

 --------------------------------------
 CID_23174459_JID_3593_Energie_neutraal
 --------------------------------------
 Structure from the checkpoint file:  "JID_3593.chk"
 Charge =  0 Multiplicity = 1

 SCF Done:  E(RB3LYP) =  -631.458156621     A.U. after   15 cycles
 Normal termination of Gaussian 16 at Wed Dec  9 23:39:21 2020.

 ----------------------------------------------------------------------
 # B3LYP/6-311++G(d,p) empiricaldispersion=gd3bj scf=xqc pop=npa geom=c
 heck
 ----------------------------------------------------------------------

 ------------------------------------
 CID_23174459_JID_3593_Energie_kation
 ------------------------------------
 Structure from the checkpoint file:  "JID_3593.chk"
 Charge =  1 Multiplicity = 2

 SCF Done:  E(UB3LYP) =  -631.128954803     A.U. after   29 cycles
 Normal termination of Gaussian 16 at Wed Dec  9 23:45:32 2020.
 Gaussian 16:  ES64L-G16RevA.03 25-Dec-2016

 ----------------------------------------------------------------------
 # B3LYP/6-311++G(d,p) empiricaldispersion=gd3bj scf=xqc pop=npa geom=c
 heck
 ----------------------------------------------------------------------

 -----------------------------------
 CID_23174459_JID_3593_Energie_anion
 -----------------------------------
 Structure from the checkpoint file:  "JID_3593.chk"
 Charge = -1 Multiplicity = 2

                         Standard orientation:
 ---------------------------------------------------------------------
 Center     Atomic      Atomic             Coordinates (Angstroms)
 Number     Number       Type             X           Y           Z
 ---------------------------------------------------------------------
      1          6           0       -3.318138   -1.131677   -0.961434
      2          6           0       -3.093630   -0.179573    0.202887
      3          8           0       -3.884885   -0.079513    1.130935
      4          7           0       -1.955849    0.587985    0.154104
      5          6           0       -0.843858    0.475858   -0.787803
      6          6           0        0.207518   -0.615635   -0.435909
      7          6           0        1.365862    0.136968    0.282123
      8          6           0        1.161010    1.566405   -0.178476
      9          6           0       -0.025496    1.747999   -0.757854
     10          6           0        1.263840    0.029716    1.823944
     11          6           0        2.737918   -0.375490   -0.124767
     12          8           0        3.679713    0.308508   -0.459377
     13          8           0        2.817777   -1.727467   -0.035245
     14          1           0       -4.242415   -1.678756   -0.774640
     15          1           0       -2.491217   -1.842624   -1.068162
     16          1           0       -3.409348   -0.585944   -1.907831
     17          1           0       -1.817984    1.168826    0.972442
     18          1           0       -1.271200    0.292357   -1.778635
     19          1           0       -0.216266   -1.413451    0.178630
     20          1           0        0.577285   -1.068479   -1.360873
     21          1           0        1.916033    2.326684   -0.013027
     22          1           0       -0.418419    2.692078   -1.121849
     23          1           0        1.416346   -1.003852    2.148518
     24          1           0        2.012444    0.663341    2.311352
     25          1           0        0.272245    0.354644    2.151742
     26          1           0        3.732450   -1.960367   -0.283167
 ---------------------------------------------------------------------

 SCF Done:  E(UB3LYP) =  -631.449655301     A.U. after   31 cycles

 The electronic state is 2-A.
 Alpha  occ. eigenvalues --  -19.07029 -19.02062 -18.99484 -14.24168 -10.20981
 Alpha  occ. eigenvalues --  -10.18194 -10.12758 -10.11215 -10.08748 -10.08496
 Alpha  occ. eigenvalues --  -10.08120 -10.08094 -10.08092  -1.01266  -0.94557
 Alpha  occ. eigenvalues --   -0.92446  -0.83692  -0.76461  -0.67611  -0.64671
 Alpha  occ. eigenvalues --   -0.62841  -0.58679  -0.54848  -0.49753  -0.48785
 Alpha  occ. eigenvalues --   -0.44736  -0.42775  -0.40721  -0.39145  -0.38122
 Alpha  occ. eigenvalues --   -0.36961  -0.36448  -0.35174  -0.33206  -0.32727
 Alpha  occ. eigenvalues --   -0.31538  -0.30877  -0.30157  -0.29590  -0.29264
 Alpha  occ. eigenvalues --   -0.27662  -0.26547  -0.26139  -0.25022  -0.22861
 Alpha  occ. eigenvalues --   -0.19037  -0.18050  -0.16472  -0.15884   0.04125
 Alpha virt. eigenvalues --    0.06317   0.07058   0.07855   0.08313   0.08911
 Alpha virt. eigenvalues --    0.09357   0.09598   0.09774   0.10679   0.11136
 Alpha virt. eigenvalues --    0.11880   0.12121   0.12852   0.13602   0.14094

  Beta  occ. eigenvalues --  -19.06968 -19.02047 -18.99479 -14.24163 -10.20976
  Beta  occ. eigenvalues --  -10.18190 -10.12740 -10.11206 -10.08740 -10.08472
  Beta  occ. eigenvalues --  -10.08093 -10.08068 -10.08057  -1.01190  -0.94546
  Beta  occ. eigenvalues --   -0.92380  -0.83672  -0.76430  -0.67567  -0.64622
  Beta  occ. eigenvalues --   -0.62795  -0.58619  -0.54762  -0.49691  -0.48742
  Beta  occ. eigenvalues --   -0.44687  -0.42707  -0.40675  -0.39109  -0.38090
  Beta  occ. eigenvalues --   -0.36921  -0.36412  -0.35137  -0.33172  -0.32682
  Beta  occ. eigenvalues --   -0.31509  -0.30845  -0.30124  -0.29550  -0.29230
  Beta  occ. eigenvalues --   -0.27626  -0.26512  -0.26104  -0.24982  -0.22820
  Beta  occ. eigenvalues --   -0.18985  -0.17999  -0.16457  -0.15857
  Beta virt. eigenvalues --    0.06535   0.07301   0.07865   0.08384   0.08606
  Beta virt. eigenvalues --    0.09127   0.09802   0.09989   0.10183   0.10860
  Beta virt. eigenvalues --    0.11394   0.12205   0.12463   0.13034   0.14020

 Mulliken charges and spin densities:
               1          2
     1  C    0.502930  -0.929421
     2  C    0.019983   0.079528
     3  O   -0.361845   0.005733
     4  N   -0.051776  -0.017281
     5  C    0.238967  -0.370056
     6  C    0.377557  -0.928568
     7  C    0.202299   0.496502
     8  C   -0.747359   0.499338
     9  C    0.080886  -0.562235
    10  C    0.201248  -0.843208
    11  C    0.750106  -0.886316
    12  O   -0.277023  -0.002379
    13  O   -0.177304   0.059713
    14  H    0.129199   0.059376
    15  H   -0.328008   0.499354
    16  H   -0.293936   0.457044
    17  H    0.249817   0.032868
    18  H   -0.225238   0.463706
    19  H    0.344771  -0.150826
    20  H   -0.494337   0.735878
    21  H   -0.019755   0.234029
    22  H   -0.498121   0.672958
    23  H   -0.170976   0.335095
    24  H   -0.039856   0.213304
    25  H    0.075125   0.050955
    26  H   -0.487353   0.794908
 Sum of Mulliken charges =  -1.00000   1.00000

 Dipole moment (field-independent basis, Debye):
    X=             -1.4875    Y=              2.6779    Z=              2.7188  Tot=              4.0958
 Quadrupole moment (field-independent basis, Debye-Ang):
   XX=           -157.1262   YY=           -115.2356   ZZ=           -115.1221
   XY=              8.8842   XZ=              5.1410   YZ=              0.1556

 Summary of Natural Population Analysis:

                                       Natural Population
                Natural  -----------------------------------------------
    Atom  No    Charge         Core      Valence    Rydberg      Total
 -----------------------------------------------------------------------
      C    1   -0.33586      0.99962     2.33134    0.00489     3.33586
      C    2    0.34609      0.99970     1.63286    0.02135     2.65391
      O    3   -0.32560      0.99988     3.31972    0.00601     4.32560
      N    4   -0.32270      0.99966     2.81304    0.01000     3.82270
      C    5   -0.03003      0.99957     2.01588    0.01459     3.03003
      C    6   -0.18329      0.99960     2.17334    0.01036     3.18329
      C    7   -0.09986      0.99951     2.08547    0.01488     3.09986
      C    8   -0.07384      0.99949     2.06339    0.01096     3.07384
      C    9   -0.09274      0.99950     2.08225    0.01099     3.09274
      C   10   -0.27529      0.99962     2.27010    0.00557     3.27529
      C   11    0.41823      0.99963     1.55574    0.02640     2.58177
      O   12   -0.30587      0.99987     3.29957    0.00643     4.30587
      O   13   -0.34474      0.99988     3.33746    0.00741     4.34474
      H   14    0.11157      0.00000     0.38765    0.00077     0.38843
      H   15    0.11142      0.00000     0.38731    0.00127     0.38858
      H   16    0.11164      0.00000     0.38698    0.00138     0.38836
      H   17    0.19334      0.00000     0.30414    0.00252     0.30666
      H   18    0.10791      0.00000     0.38945    0.00264     0.39209
      H   19    0.10611      0.00000     0.39225    0.00164     0.39389
      H   20    0.11228      0.00000     0.38498    0.00273     0.38772
      H   21    0.10952      0.00000     0.38955    0.00093     0.39048
      H   22    0.10477      0.00000     0.39405    0.00118     0.39523
      H   23    0.10859      0.00000     0.39018    0.00123     0.39141
      H   24    0.10202      0.00000     0.39690    0.00108     0.39798
      H   25    0.10039      0.00000     0.39839    0.00122     0.39961
      H   26    0.24595      0.00000     0.23120    0.02285     0.25405
 =======================================================================
   * Total *   -0.00000     12.99551    35.81321    0.19128    49.00000

 Normal termination of Gaussian 16 at Wed Dec  9 23:52:11 2020.
