 Gaussian 16, Revision A.03,

 -----------------------------------------------------------
 # opt freq B3LYP/6-31G(d) empiricaldispersion=gd3bj scf=xqc
 -----------------------------------------------------------

 ------------------------------
 CID_47108011_JID_9836_neutraal
 ------------------------------
 Symbolic Z-matrix:
 Charge =  0 Multiplicity = 1

 SCF Done:  E(RB3LYP) =  -880.745935008     A.U. after   15 cycles
 SCF Done:  E(RB3LYP) =  -880.754164484     A.U. after   12 cycles
 SCF Done:  E(RB3LYP) =  -880.749799322     A.U. after   15 cycles
 SCF Done:  E(RB3LYP) =  -880.753880660     A.U. after   13 cycles
 SCF Done:  E(RB3LYP) =  -880.755677319     A.U. after    9 cycles
 SCF Done:  E(RB3LYP) =  -880.755689163     A.U. after   12 cycles
 SCF Done:  E(RB3LYP) =  -880.756398170     A.U. after   12 cycles
 SCF Done:  E(RB3LYP) =  -880.756493805     A.U. after   12 cycles
 SCF Done:  E(RB3LYP) =  -880.756706815     A.U. after   10 cycles
 SCF Done:  E(RB3LYP) =  -880.756922789     A.U. after   13 cycles
 SCF Done:  E(RB3LYP) =  -880.757366384     A.U. after   10 cycles
 SCF Done:  E(RB3LYP) =  -880.757367658     A.U. after    9 cycles
 SCF Done:  E(RB3LYP) =  -880.757367626     A.U. after    7 cycles
 SCF Done:  E(RB3LYP) =  -880.757367679     A.U. after    7 cycles
 SCF Done:  E(RB3LYP) =  -880.757367696     A.U. after    6 cycles
 Optimization completed.
    -- Stationary point found.
 Normal termination of Gaussian 16 at Mon Dec 14 13:54:22 2020.

 --------------------------------------------------------------------
 #N Geom=AllCheck Guess=TCheck SCRF=Check GenChk RB3LYP/6-31G(d) Freq
 --------------------------------------------------------------------

 Structure from the checkpoint file:  "JID_9836.chk"
 ------------------------------
 CID_47108011_JID_9836_neutraal
 ------------------------------
 Charge =  0 Multiplicity = 1

 SCF Done:  E(RB3LYP) =  -880.757367696     A.U. after    1 cycles

  Exact polarizability: 190.560  21.757 150.935   2.949  -0.171 145.048
 Approx polarizability: 258.451  45.643 226.279  14.115  -0.568 252.070

                      1                      2                      3
                      A                      A                      A
 Frequencies --     23.7527                26.9214                39.7444
 Red. masses --      4.6546                 4.5470                 5.4454
 Frc consts  --      0.0015                 0.0019                 0.0051
 IR Inten    --      0.4344                 0.1760                 0.8777

                      4                      5                      6
                      A                      A                      A
 Frequencies --     52.6012                72.1880                92.5671
 Red. masses --      3.5173                 3.3930                 2.5163
 Frc consts  --      0.0057                 0.0104                 0.0127
 IR Inten    --      0.3365                 0.7165                 9.5381

                      7                      8                      9
                      A                      A                      A
 Frequencies --    116.5752               122.2168               148.1431
 Red. masses --      3.1413                 2.3598                 3.6837
 Frc consts  --      0.0252                 0.0208                 0.0476
 IR Inten    --      1.3023                 0.3337                 0.4744

                     10                     11                     12
                      A                      A                      A
 Frequencies --    162.9108               197.3169               223.5726
 Red. masses --      4.1933                 3.0103                 2.1251
 Frc consts  --      0.0656                 0.0691                 0.0626
 IR Inten    --      1.1611                 5.0328                 0.6127

                     13                     14                     15
                      A                      A                      A
 Frequencies --    233.4580               250.7751               260.1245
 Red. masses --      2.0411                 2.2808                 2.9636
 Frc consts  --      0.0655                 0.0845                 0.1181
 IR Inten    --      0.5183                 0.0970                 0.3792

                     16                     17                     18
                      A                      A                      A
 Frequencies --    298.3612               308.2806               335.2344
 Red. masses --      1.6192                 2.6980                 3.4665
 Frc consts  --      0.0849                 0.1511                 0.2295
 IR Inten    --      0.2176                 4.3334                 2.2510

                     19                     20                     21
                      A                      A                      A
 Frequencies --    353.6327               407.2016               421.1227
 Red. masses --      4.0800                 3.1203                 2.0027
 Frc consts  --      0.3006                 0.3048                 0.2093
 IR Inten    --      0.6570                 1.5660                 4.3108

                     22                     23                     24
                      A                      A                      A
 Frequencies --    429.4664               430.3986               488.7145
 Red. masses --      3.1784                 4.2676                 1.7456
 Frc consts  --      0.3454                 0.4658                 0.2456
 IR Inten    --      1.7804                 7.0090                26.0219

                     25                     26                     27
                      A                      A                      A
 Frequencies --    504.1171               525.5880               556.4458
 Red. masses --      2.2693                 2.9039                 3.3554
 Frc consts  --      0.3398                 0.4726                 0.6121
 IR Inten    --     17.7049                 7.2717                35.2084

                     28                     29                     30
                      A                      A                      A
 Frequencies --    590.0189               607.4966               652.0810
 Red. masses --      3.9631                 3.9758                 3.4796
 Frc consts  --      0.8129                 0.8645                 0.8717
 IR Inten    --     11.9911                15.0211                25.2755

                     31                     32                     33
                      A                      A                      A
 Frequencies --    692.5044               717.1758               740.1212
 Red. masses --      4.7615                 5.6237                 7.8438
 Frc consts  --      1.3454                 1.7042                 2.5315
 IR Inten    --     16.6514                 3.1897                 2.6125

                     34                     35                     36
                      A                      A                      A
 Frequencies --    772.3885               783.4185               802.9093
 Red. masses --      4.2941                 2.0252                 1.3419
 Frc consts  --      1.5094                 0.7323                 0.5097
 IR Inten    --      5.7824                 3.3332                 3.8516

                     37                     38                     39
                      A                      A                      A
 Frequencies --    824.1529               829.1319               835.9665
 Red. masses --      1.4050                 1.2889                 5.2710
 Frc consts  --      0.5623                 0.5221                 2.1703
 IR Inten    --     21.6028                16.2325                12.5078

                     40                     41                     42
                      A                      A                      A
 Frequencies --    858.0960               871.7371               910.1337
 Red. masses --      3.4803                 1.4201                 2.1292
 Frc consts  --      1.5099                 0.6358                 1.0392
 IR Inten    --      7.5141                10.8970                 2.1086

                     43                     44                     45
                      A                      A                      A
 Frequencies --    929.7629               941.6439               966.9272
 Red. masses --      1.2926                 3.6623                 2.7102
 Frc consts  --      0.6584                 1.9133                 1.4929
 IR Inten    --      0.4227                17.9476                20.2858

                     46                     47                     48
                      A                      A                      A
 Frequencies --    974.1372               996.6658              1020.2782
 Red. masses --      3.7811                 2.4666                 2.2043
 Frc consts  --      2.1140                 1.4436                 1.3519
 IR Inten    --     31.1406                 9.9933                 1.7917

                     49                     50                     51
                      A                      A                      A
 Frequencies --   1074.9888              1086.6113              1108.7340
 Red. masses --      4.9858                 2.0188                 2.3566
 Frc consts  --      3.3947                 1.4044                 1.7068
 IR Inten    --    122.0230                 2.2181                21.0354

                     52                     53                     54
                      A                      A                      A
 Frequencies --   1115.6293              1129.6089              1138.3510
 Red. masses --      2.3338                 1.7255                 2.5304
 Frc consts  --      1.7114                 1.2972                 1.9319
 IR Inten    --     11.0924                19.0532                 6.0918

                     55                     56                     57
                      A                      A                      A
 Frequencies --   1150.6950              1153.2614              1160.3614
 Red. masses --      1.8994                 1.5025                 1.5869
 Frc consts  --      1.4818                 1.1774                 1.2588
 IR Inten    --     20.4595                 5.7830                12.6806

                     58                     59                     60
                      A                      A                      A
 Frequencies --   1202.0027              1209.7525              1225.9857
 Red. masses --      1.7594                 1.2569                 1.6331
 Frc consts  --      1.4977                 1.0838                 1.4462
 IR Inten    --     49.7812                 1.0706                10.4599

                     61                     62                     63
                      A                      A                      A
 Frequencies --   1260.4462              1274.1958              1300.3150
 Red. masses --      2.2138                 1.6120                 3.8556
 Frc consts  --      2.0722                 1.5421                 3.8410
 IR Inten    --     55.8786                54.5889               207.8691

                     64                     65                     66
                      A                      A                      A
 Frequencies --   1304.9026              1319.6468              1334.4532
 Red. masses --      1.7167                 1.2042                 1.4403
 Frc consts  --      1.7223                 1.2356                 1.5111
 IR Inten    --    106.0382                11.8432               100.8637

                     67                     68                     69
                      A                      A                      A
 Frequencies --   1365.8726              1384.3600              1392.3926
 Red. masses --      1.2507                 1.8528                 1.5960
 Frc consts  --      1.3747                 2.0920                 1.8231
 IR Inten    --      3.6752                32.1175                15.1643

                     70                     71                     72
                      A                      A                      A
 Frequencies --   1410.5016              1418.5094              1431.5052
 Red. masses --      1.3290                 1.2622                 1.8760
 Frc consts  --      1.5579                 1.4964                 2.2651
 IR Inten    --     16.2941                 5.8791                 1.2650

                     73                     74                     75
                      A                      A                      A
 Frequencies --   1437.4970              1447.1072              1447.3277
 Red. masses --      1.2695                 1.4623                 1.3765
 Frc consts  --      1.5456                 1.8042                 1.6989
 IR Inten    --      9.4110                11.3436                 5.1817

                     76                     77                     78
                      A                      A                      A
 Frequencies --   1452.0130              1478.1978              1491.1007
 Red. masses --      1.4333                 1.6769                 1.2036
 Frc consts  --      1.7805                 2.1589                 1.5767
 IR Inten    --     37.1536                42.0334                18.5946

                     79                     80                     81
                      A                      A                      A
 Frequencies --   1494.9699              1509.0262              1520.9952
 Red. masses --      2.8170                 1.0730                 1.0454
 Frc consts  --      3.7094                 1.4395                 1.4249
 IR Inten    --     80.0902                 2.6508                 7.2761

                     82                     83                     84
                      A                      A                      A
 Frequencies --   1523.2976              1524.1763              1530.2892
 Red. masses --      1.0645                 1.1128                 1.0709
 Frc consts  --      1.4553                 1.5231                 1.4775
 IR Inten    --     15.8293                13.3386                 4.4214

                     85                     86                     87
                      A                      A                      A
 Frequencies --   1537.5998              1544.6005              1549.7609
 Red. masses --      1.0598                 2.7713                 1.0749
 Frc consts  --      1.4762                 3.8955                 1.5211
 IR Inten    --      5.7764               200.7347                 1.1459

                     88                     89                     90
                      A                      A                      A
 Frequencies --   1573.0174              1668.9418              1684.1596
 Red. masses --      1.1767                 7.0291                 7.6199
 Frc consts  --      1.7154                11.5354                12.7341
 IR Inten    --      1.8643                 5.3153                 1.1042

                     91                     92                     93
                      A                      A                      A
 Frequencies --   1776.6224              3019.3657              3025.4709
 Red. masses --      7.8217                 1.0609                 1.0629
 Frc consts  --     14.5460                 5.6987                 5.7324
 IR Inten    --    322.5484                22.8500                54.0301

                     94                     95                     96
                      A                      A                      A
 Frequencies --   3031.6309              3048.8829              3051.8170
 Red. masses --      1.0668                 1.0797                 1.0612
 Frc consts  --      5.7769                 5.9133                 5.8234
 IR Inten    --    126.3029                22.2260                28.5064

                     97                     98                     99
                      A                      A                      A
 Frequencies --   3053.4238              3059.3243              3060.5084
 Red. masses --      1.0532                 1.0559                 1.0560
 Frc consts  --      5.7857                 5.8226                 5.8280
 IR Inten    --     15.8910                58.9237                 1.9394

                    100                    101                    102
                      A                      A                      A
 Frequencies --   3078.9848              3087.9519              3120.1693
 Red. masses --      1.0975                 1.1043                 1.1020
 Frc consts  --      6.1300                 6.2041                 6.3212
 IR Inten    --     18.5697                16.1836                24.6010

                    103                    104                    105
                      A                      A                      A
 Frequencies --   3122.5581              3129.0697              3129.6660
 Red. masses --      1.0990                 1.1047                 1.1010
 Frc consts  --      6.3136                 6.3726                 6.3538
 IR Inten    --     48.4954                54.1714                32.0314

                    106                    107                    108
                      A                      A                      A
 Frequencies --   3133.2845              3153.5598              3206.3722
 Red. masses --      1.0947                 1.0998                 1.0886
 Frc consts  --      6.3318                 6.4442                 6.5937
 IR Inten    --     24.1988                36.7406                 5.1144

                    109                    110                    111
                      A                      A                      A
 Frequencies --   3211.7305              3231.0609              3595.0979
 Red. masses --      1.0914                 1.0939                 1.0766
 Frc consts  --      6.6330                 6.7288                 8.1982
 IR Inten    --      3.8130                 3.7442                18.2304

 - Thermochemistry -
 -------------------
 Temperature   298.150 Kelvin.  Pressure   1.00000 Atm.
 Atom     1 has atomic number  6 and mass  12.00000

 Molecular mass:   264.14739 amu.
 Principal axes and moments of inertia in atomic units:
                           1         2         3
     Eigenvalues --  2765.055997863.939698764.75263
           X            0.99988  -0.01454  -0.00506
           Y            0.01445   0.99974  -0.01788
           Z            0.00532   0.01781   0.99983
 This molecule is an asymmetric top.
 Rotational symmetry number  1.
 Warning -- assumption of classical behavior for rotation
           may cause significant error
 Rotational temperatures (Kelvin)      0.03132     0.01101     0.00988
 Rotational constants (GHZ):           0.65270     0.22950     0.20591
 Zero-point vibrational energy     873823.6 (Joules/Mol)
                                  208.84884 (Kcal/Mol)
 Warning -- explicit consideration of  29 degrees of freedom as
           vibrations may cause significant error
 Vibrational temperatures:     34.17    38.73    57.18    75.68   103.86
          (Kelvin)            133.18   167.73   175.84   213.14   234.39
                              283.89   321.67   335.89   360.81   374.26
                              429.28   443.55   482.33   508.80   585.87
                              605.90   617.91   619.25   703.15   725.31
                              756.20   800.60   848.91   874.05   938.20
                              996.36  1031.86  1064.87  1111.29  1127.16
                             1155.21  1185.77  1192.94  1202.77  1234.61
                             1254.24  1309.48  1337.72  1354.82  1391.19
                             1401.57  1433.98  1467.95  1546.67  1563.39
                             1595.22  1605.14  1625.26  1637.83  1655.59
                             1659.29  1669.50  1729.41  1740.56  1763.92
                             1813.50  1833.28  1870.86  1877.46  1898.68
                             1919.98  1965.19  1991.79  2003.34  2029.40
                             2040.92  2059.62  2068.24  2082.06  2082.38
                             2089.12  2126.80  2145.36  2150.93  2171.15
                             2188.37  2191.69  2192.95  2201.74  2212.26
                             2222.34  2229.76  2263.22  2401.24  2423.13
                             2556.16  4344.19  4352.98  4361.84  4386.66
                             4390.88  4393.20  4401.69  4403.39  4429.97
                             4442.87  4489.23  4492.66  4502.03  4502.89
                             4508.10  4537.27  4613.25  4620.96  4648.78
                             5172.54

 Zero-point correction=                           0.332822 (Hartree/Particle)
 Thermal correction to Energy=                    0.351549
 Thermal correction to Enthalpy=                  0.352493
 Thermal correction to Gibbs Free Energy=         0.284200
 Sum of electronic and zero-point Energies=           -880.424546
 Sum of electronic and thermal Energies=              -880.405819
 Sum of electronic and thermal Enthalpies=            -880.404875
 Sum of electronic and thermal Free Energies=         -880.473168

                     E (Thermal)             CV                S
                      KCal/Mol        Cal/Mol-Kelvin    Cal/Mol-Kelvin
 Total                  220.600             70.485            143.735
 Electronic               0.000              0.000              0.000
 Translational            0.889              2.981             42.613
 Rotational               0.889              2.981             33.610
 Vibrational            218.823             64.523             67.512
 Vibration     1          0.593              1.985              6.293
 Vibration     2          0.593              1.984              6.044
 Vibration     3          0.594              1.981              5.272
 Vibration     4          0.596              1.977              4.717
 Vibration     5          0.598              1.967              4.093
 Vibration     6          0.602              1.954              3.605
 Vibration     7          0.608              1.936              3.156
 Vibration     8          0.610              1.931              3.065
 Vibration     9          0.618              1.905              2.696
 Vibration    10          0.623              1.888              2.516
 Vibration    11          0.637              1.844              2.158
 Vibration    12          0.649              1.805              1.930
 Vibration    13          0.654              1.790              1.852
 Vibration    14          0.663              1.761              1.725
 Vibration    15          0.668              1.746              1.661
 Vibration    16          0.691              1.677              1.426
 Vibration    17          0.698              1.658              1.372
 Vibration    18          0.716              1.605              1.235
 Vibration    19          0.730              1.568              1.150
 Vibration    20          0.772              1.455              0.937
 Vibration    21          0.784              1.424              0.888
 Vibration    22          0.791              1.406              0.860
 Vibration    23          0.792              1.404              0.857
 Vibration    24          0.845              1.275              0.687
 Vibration    25          0.859              1.241              0.648
 Vibration    26          0.881              1.193              0.597
 Vibration    27          0.912              1.126              0.531
 Vibration    28          0.947              1.053              0.467
 Vibration    29          0.966              1.016              0.437

                           ! Non-Optimized Parameters !
 Normal termination of Gaussian 16 at Mon Dec 14 14:17:57 2020.

 ----------------------------------------------------------------------
 # B3LYP/6-311++G(d,p) empiricaldispersion=gd3bj scf=xqc pop=npa geom=c
 heck
 ----------------------------------------------------------------------

 --------------------------------------
 CID_47108011_JID_9836_Energie_neutraal
 --------------------------------------
 Structure from the checkpoint file:  "JID_9836.chk"
 Charge =  0 Multiplicity = 1

 SCF Done:  E(RB3LYP) =  -881.003897468     A.U. after   15 cycles
 Normal termination of Gaussian 16 at Mon Dec 14 14:28:37 2020.

 ----------------------------------------------------------------------
 # B3LYP/6-311++G(d,p) empiricaldispersion=gd3bj scf=xqc pop=npa geom=c
 heck
 ----------------------------------------------------------------------

 ------------------------------------
 CID_47108011_JID_9836_Energie_kation
 ------------------------------------
 Structure from the checkpoint file:  "JID_9836.chk"
 Charge =  1 Multiplicity = 2

 SCF Done:  E(UB3LYP) =  -880.739059822     A.U. after   25 cycles
 Normal termination of Gaussian 16 at Mon Dec 14 14:52:17 2020.
 Gaussian 16:  ES64L-G16RevA.03 25-Dec-2016

 ----------------------------------------------------------------------
 # B3LYP/6-311++G(d,p) empiricaldispersion=gd3bj scf=xqc pop=npa geom=c
 heck
 ----------------------------------------------------------------------

 -----------------------------------
 CID_47108011_JID_9836_Energie_anion
 -----------------------------------
 Structure from the checkpoint file:  "JID_9836.chk"
 Charge = -1 Multiplicity = 2

                         Standard orientation:
 ---------------------------------------------------------------------
 Center     Atomic      Atomic             Coordinates (Angstroms)
 Number     Number       Type             X           Y           Z
 ---------------------------------------------------------------------
      1          6           0        4.491905   -1.484226   -1.087072
      2          6           0        3.420894   -1.717176   -0.025045
      3          7           0        2.092975   -1.258120   -0.438812
      4          6           0        1.018170   -1.673179    0.460713
      5          6           0        1.100405   -1.209837    1.924287
      6          6           0        1.975364    0.097108   -0.943740
      7          6           0        2.300901    1.230360    0.042177
      8          8           0        3.300667    1.199535    0.752660
      9          7           0        1.457218    2.313246    0.075867
     10          6           0        0.202400    2.501992   -0.643208
     11          6           0       -0.921230    1.574395   -0.209889
     12          6           0       -1.707174    0.936512   -1.190950
     13          6           0       -2.702152    0.086024   -0.753940
     14          6           0       -2.934388   -0.142302    0.600486
     15          6           0       -2.184491    0.479220    1.578902
     16          6           0       -1.168336    1.346946    1.145081
     17          8           0       -3.987044   -1.013571    0.748046
     18          6           0       -4.278142   -1.485598   -0.572751
     19          8           0       -3.600538   -0.633052   -1.504475
     20          1           0        4.167591   -1.860813   -2.063913
     21          1           0        5.412862   -2.005773   -0.805054
     22          1           0        4.733903   -0.420640   -1.176530
     23          1           0        3.322271   -2.796688    0.156332
     24          1           0        3.753017   -1.257095    0.915369
     25          1           0        0.072019   -1.328612    0.026346
     26          1           0        0.990766   -2.772092    0.444061
     27          1           0        1.117703   -0.120717    2.005301
     28          1           0        0.226209   -1.574213    2.476533
     29          1           0        1.998211   -1.595963    2.417007
     30          1           0        2.670210    0.224687   -1.783016
     31          1           0        0.968103    0.204052   -1.351142
     32          1           0        1.752150    3.029552    0.727381
     33          1           0       -0.088098    3.545775   -0.479745
     34          1           0        0.363483    2.399828   -1.722854
     35          1           0       -1.529924    1.094076   -2.249992
     36          1           0       -2.368809    0.298304    2.631734
     37          1           0       -0.539805    1.831920    1.884904
     38          1           0       -3.907543   -2.514256   -0.683463
     39          1           0       -5.355117   -1.431937   -0.748793
 ---------------------------------------------------------------------

 SCF Done:  E(UB3LYP) =  -880.993717829     A.U. after   33 cycles
 SCF Done:  E(UB3LYP) =  -880.993717829     a.u. after    1 cycles

 The electronic state is 2-A.
 Alpha  occ. eigenvalues --  -19.07972 -19.07872 -18.99216 -14.24046 -14.21260
 Alpha  occ. eigenvalues --  -10.19983 -10.17574 -10.14565 -10.14218 -10.12106
 Alpha  occ. eigenvalues --  -10.10968 -10.10010 -10.09942 -10.09120 -10.09030
 Alpha  occ. eigenvalues --  -10.08923 -10.08231 -10.07458 -10.06264  -1.04174
 Alpha  occ. eigenvalues --   -0.95049  -0.94356  -0.83167  -0.82853  -0.77341
 Alpha  occ. eigenvalues --   -0.68664  -0.67254  -0.66859  -0.65830  -0.61923
 Alpha  occ. eigenvalues --   -0.60333  -0.57601  -0.53808  -0.53728  -0.52697
 Alpha  occ. eigenvalues --   -0.50496  -0.45901  -0.43728  -0.43493  -0.43149
 Alpha  occ. eigenvalues --   -0.40946  -0.40789  -0.39906  -0.39140  -0.37683
 Alpha  occ. eigenvalues --   -0.36582  -0.35953  -0.35306  -0.33330  -0.32963
 Alpha  occ. eigenvalues --   -0.32300  -0.31232  -0.30893  -0.30785  -0.30101
 Alpha  occ. eigenvalues --   -0.30028  -0.29407  -0.28598  -0.28402  -0.27797
 Alpha  occ. eigenvalues --   -0.27525  -0.26435  -0.25834  -0.25033  -0.24238
 Alpha  occ. eigenvalues --   -0.22439  -0.17482  -0.16528  -0.16213  -0.12169
 Alpha  occ. eigenvalues --   -0.11440   0.04073
 Alpha virt. eigenvalues --    0.05613   0.06401   0.07087   0.07208   0.07825
 Alpha virt. eigenvalues --    0.08068   0.08601   0.08821   0.09393   0.09570
 Alpha virt. eigenvalues --    0.09793   0.10152   0.11034   0.11099   0.11797

  Beta  occ. eigenvalues --  -19.07970 -19.07866 -18.99213 -14.24015 -14.21258
  Beta  occ. eigenvalues --  -10.19944 -10.17576 -10.14572 -10.14174 -10.12075
  Beta  occ. eigenvalues --  -10.10955 -10.10008 -10.09937 -10.09117 -10.08975
  Beta  occ. eigenvalues --  -10.08892 -10.08222 -10.07454 -10.06261  -1.04158
  Beta  occ. eigenvalues --   -0.95036  -0.94348  -0.83156  -0.82802  -0.77285
  Beta  occ. eigenvalues --   -0.68567  -0.67248  -0.66819  -0.65813  -0.61855
  Beta  occ. eigenvalues --   -0.60307  -0.57537  -0.53772  -0.53716  -0.52636
  Beta  occ. eigenvalues --   -0.50457  -0.45863  -0.43684  -0.43445  -0.43096
  Beta  occ. eigenvalues --   -0.40905  -0.40738  -0.39882  -0.39055  -0.37671
  Beta  occ. eigenvalues --   -0.36555  -0.35920  -0.35269  -0.33298  -0.32936
  Beta  occ. eigenvalues --   -0.32253  -0.31206  -0.30872  -0.30743  -0.30054
  Beta  occ. eigenvalues --   -0.30009  -0.29382  -0.28583  -0.28358  -0.27760
  Beta  occ. eigenvalues --   -0.27509  -0.26405  -0.25826  -0.25024  -0.24229
  Beta  occ. eigenvalues --   -0.22333  -0.17466  -0.16479  -0.16081  -0.12021
  Beta  occ. eigenvalues --   -0.11429
  Beta virt. eigenvalues --    0.06130   0.06685   0.07143   0.07277   0.07367
  Beta virt. eigenvalues --    0.08179   0.08395   0.08776   0.09282   0.09667
  Beta virt. eigenvalues --    0.09912   0.10115   0.10205   0.11189   0.11301

 Mulliken charges and spin densities:
               1          2
     1  C   -0.344221  -0.177615
     2  C   -0.320962   0.075549
     3  N    0.158627   0.042375
     4  C   -0.242182   0.066092
     5  C   -0.465999  -0.056926
     6  C    0.551816  -0.812711
     7  C   -0.482144   0.322195
     8  O   -0.308383   0.018539
     9  N   -0.367452   0.218517
    10  C    2.261318  -2.965372
    11  C    0.051135   0.635404
    12  C   -2.688560   2.151766
    13  C    0.560531  -0.706477
    14  C    0.866374  -0.793354
    15  C   -1.554412   1.189238
    16  C    0.790296  -0.891685
    17  O   -0.171948   0.051563
    18  C    1.507002  -1.586927
    19  O   -0.145806   0.033891
    20  H    0.105921   0.035467
    21  H    0.100257   0.022710
    22  H    0.156509   0.021504
    23  H    0.096468   0.019516
    24  H    0.174096  -0.016727
    25  H    0.407260  -0.218628
    26  H    0.020808   0.157735
    27  H    0.083251   0.069777
    28  H    0.129248   0.000258
    29  H    0.116438   0.031650
    30  H    0.069097   0.112904
    31  H    0.351210  -0.177486
    32  H   -0.218318   0.544020
    33  H   -1.053403   1.272573
    34  H    0.190575   0.011676
    35  H   -0.324213   0.496474
    36  H   -0.163405   0.345597
    37  H   -0.065801   0.249658
    38  H   -0.347002   0.535066
    39  H   -0.484026   0.672194
 Sum of Mulliken charges =  -1.00000   1.00000

 Dipole moment (field-independent basis, Debye):
    X=              3.4860    Y=             -4.9960    Z=             -0.1048  Tot=              6.0929
 Quadrupole moment (field-independent basis, Debye-Ang):
   XX=           -196.1567   YY=           -180.1370   ZZ=           -143.7136
   XY=            -14.3871   XZ=             -8.7748   YZ=             -5.5581

 Summary of Natural Population Analysis:

                                       Natural Population
                Natural  -----------------------------------------------
    Atom  No    Charge         Core      Valence    Rydberg      Total
 -----------------------------------------------------------------------
      C    1   -0.29219      0.99966     2.28817    0.00435     3.29219
      C    2   -0.08470      0.99962     2.07541    0.00966     3.08470
      N    3   -0.27677      0.99972     2.76478    0.01226     3.77677
      C    4   -0.08463      0.99963     2.07381    0.01119     3.08463
      C    5   -0.29656      0.99966     2.29278    0.00412     3.29656
      C    6   -0.12904      0.99956     2.11781    0.01167     3.12904
      C    7    0.33582      0.99967     1.64134    0.02317     2.66418
      O    8   -0.32936      0.99988     3.32369    0.00579     4.32936
      N    9   -0.31801      0.99967     2.80612    0.01222     3.81801
      C   10   -0.09588      0.99957     2.08266    0.01365     3.09588
      C   11   -0.02356      0.99951     2.01237    0.01168     3.02356
      C   12   -0.12043      0.99946     2.11173    0.00924     3.12043
      C   13    0.13259      0.99933     1.85428    0.01380     2.86741
      C   14    0.13422      0.99932     1.85303    0.01342     2.86578
      C   15   -0.11970      0.99951     2.11087    0.00931     3.11970
      C   16   -0.10234      0.99951     2.09222    0.01061     3.10234
      O   17   -0.27183      0.99987     3.26428    0.00768     4.27183
      C   18    0.15596      0.99962     1.82862    0.01580     2.84404
      O   19   -0.27152      0.99987     3.26378    0.00788     4.27152
      H   20    0.09596      0.00000     0.40283    0.00121     0.40404
      H   21    0.09748      0.00000     0.40175    0.00077     0.40252
      H   22    0.10236      0.00000     0.39638    0.00126     0.39764
      H   23    0.08681      0.00000     0.41168    0.00151     0.41319
      H   24    0.09332      0.00000     0.40497    0.00172     0.40668
      H   25    0.09826      0.00000     0.39988    0.00186     0.40174
      H   26    0.08831      0.00000     0.41055    0.00114     0.41169
      H   27    0.10298      0.00000     0.39602    0.00100     0.39702
      H   28    0.09862      0.00000     0.40041    0.00097     0.40138
      H   29    0.09477      0.00000     0.40442    0.00081     0.40523
      H   30    0.10559      0.00000     0.39313    0.00128     0.39441
      H   31    0.10452      0.00000     0.39342    0.00206     0.39548
      H   32    0.19922      0.00000     0.29654    0.00424     0.30078
      H   33    0.11643      0.00000     0.37527    0.00830     0.38357
      H   34    0.09532      0.00000     0.40326    0.00141     0.40468
      H   35    0.10724      0.00000     0.39149    0.00127     0.39276
      H   36    0.10708      0.00000     0.39188    0.00104     0.39292
      H   37    0.10594      0.00000     0.39266    0.00140     0.39406
      H   38    0.07428      0.00000     0.42327    0.00245     0.42572
      H   39    0.08344      0.00000     0.41379    0.00276     0.41656
 =======================================================================
   * Total *    0.00000     18.99266    51.76136    0.24598    71.00000

 Normal termination of Gaussian 16 at Mon Dec 14 15:23:45 2020.
