 Gaussian 16, Revision A.03,

 -----------------------------------------------------------
 # opt freq B3LYP/6-31G(d) empiricaldispersion=gd3bj scf=xqc
 -----------------------------------------------------------

 ------------------------------
 CID_93710544_JID_7455_neutraal
 ------------------------------
 Symbolic Z-matrix:
 Charge =  0 Multiplicity = 1

 SCF Done:  E(RB3LYP) =  -771.242523577     A.U. after   15 cycles
 SCF Done:  E(RB3LYP) =  -771.246555322     A.U. after   13 cycles
 SCF Done:  E(RB3LYP) =  -771.233533770     A.U. after   15 cycles
 SCF Done:  E(RB3LYP) =  -771.245310673     A.U. after   13 cycles
 SCF Done:  E(RB3LYP) =  -771.247720946     A.U. after   10 cycles
 SCF Done:  E(RB3LYP) =  -771.249290036     A.U. after   13 cycles
 SCF Done:  E(RB3LYP) =  -771.249778435     A.U. after   13 cycles
 SCF Done:  E(RB3LYP) =  -771.251397536     A.U. after   13 cycles
 SCF Done:  E(RB3LYP) =  -771.252969769     A.U. after   13 cycles
 SCF Done:  E(RB3LYP) =  -771.255232144     A.U. after   14 cycles
 SCF Done:  E(RB3LYP) =  -771.261299405     A.U. after    9 cycles
 SCF Done:  E(RB3LYP) =  -771.261299274     A.U. after   10 cycles
 SCF Done:  E(RB3LYP) =  -771.261299853     A.U. after   10 cycles
 SCF Done:  E(RB3LYP) =  -771.261300059     A.U. after    9 cycles
 SCF Done:  E(RB3LYP) =  -771.261300065     A.U. after    7 cycles
 Optimization completed.
    -- Stationary point found.
 Normal termination of Gaussian 16 at Fri Dec 11 12:46:40 2020.

 --------------------------------------------------------------------
 #N Geom=AllCheck Guess=TCheck SCRF=Check GenChk RB3LYP/6-31G(d) Freq
 --------------------------------------------------------------------

 Structure from the checkpoint file:  "JID_7455.chk"
 ------------------------------
 CID_93710544_JID_7455_neutraal
 ------------------------------
 Charge =  0 Multiplicity = 1

 SCF Done:  E(RB3LYP) =  -771.261300065     A.U. after    1 cycles

  Exact polarizability: 184.807   1.990 169.756 -15.601  -1.122 108.810
 Approx polarizability: 242.720   1.778 252.489 -26.750  -2.022 179.692

                      1                      2                      3
                      A                      A                      A
 Frequencies --     19.7102                36.9013                41.4101
 Red. masses --      3.4233                 4.0907                 4.7802
 Frc consts  --      0.0008                 0.0033                 0.0048
 IR Inten    --      1.0414                 2.6158                 1.4962

                      4                      5                      6
                      A                      A                      A
 Frequencies --     70.7107                78.9889                99.1631
 Red. masses --      3.0450                 4.4526                 2.4858
 Frc consts  --      0.0090                 0.0164                 0.0144
 IR Inten    --      2.1970                 0.4219                 1.3413

                      7                      8                      9
                      A                      A                      A
 Frequencies --    118.1049               132.7810               163.4999
 Red. masses --      2.3497                 2.9223                 1.1313
 Frc consts  --      0.0193                 0.0304                 0.0178
 IR Inten    --      1.1421                 1.0079                 1.0916

                     10                     11                     12
                      A                      A                      A
 Frequencies --    183.2018               202.6838               241.2026
 Red. masses --      3.9081                 4.1075                 2.0765
 Frc consts  --      0.0773                 0.0994                 0.0712
 IR Inten    --      3.3857                 1.7587                 0.1688

                     13                     14                     15
                      A                      A                      A
 Frequencies --    252.9045               264.8136               275.2230
 Red. masses --      1.3228                 1.4786                 1.3691
 Frc consts  --      0.0498                 0.0611                 0.0611
 IR Inten    --      2.6596                 2.4067                 1.5954

                     16                     17                     18
                      A                      A                      A
 Frequencies --    287.1880               318.0683               336.4939
 Red. masses --      1.6691                 3.1642                 3.3474
 Frc consts  --      0.0811                 0.1886                 0.2233
 IR Inten    --      0.0689                 0.8489                 0.1344

                     19                     20                     21
                      A                      A                      A
 Frequencies --    352.7221               372.9242               400.4877
 Red. masses --      3.4583                 2.7731                 2.8880
 Frc consts  --      0.2535                 0.2272                 0.2729
 IR Inten    --      1.9864                 0.5317                 0.7303

                     22                     23                     24
                      A                      A                      A
 Frequencies --    447.7848               458.1900               496.4797
 Red. masses --      2.4155                 3.0721                 3.3156
 Frc consts  --      0.2854                 0.3800                 0.4815
 IR Inten    --      3.1174                 1.6608                 2.7768

                     25                     26                     27
                      A                      A                      A
 Frequencies --    522.7085               542.8297               555.2204
 Red. masses --      2.8634                 4.4647                 4.2548
 Frc consts  --      0.4609                 0.7751                 0.7728
 IR Inten    --     13.1782                 2.7461                 4.9421

                     28                     29                     30
                      A                      A                      A
 Frequencies --    600.9294               616.3174               622.8056
 Red. masses --      4.3578                 4.0140                 4.6530
 Frc consts  --      0.9272                 0.8983                 1.0634
 IR Inten    --      3.8205                 3.2542                 2.3344

                     31                     32                     33
                      A                      A                      A
 Frequencies --    728.7234               754.0041               770.2490
 Red. masses --      4.0528                 1.8583                 1.9367
 Frc consts  --      1.2680                 0.6225                 0.6770
 IR Inten    --      1.2703                27.3170                22.2819

                     34                     35                     36
                      A                      A                      A
 Frequencies --    801.9307               824.7507               834.2878
 Red. masses --      3.6455                 3.2032                 2.4020
 Frc consts  --      1.3813                 1.2837                 0.9851
 IR Inten    --     14.3271                 9.3742                 4.5086

                     37                     38                     39
                      A                      A                      A
 Frequencies --    842.3931               864.1377               911.9143
 Red. masses --      1.3069                 1.4002                 2.7480
 Frc consts  --      0.5464                 0.6160                 1.3464
 IR Inten    --      0.6380                 0.2703                51.2663

                     40                     41                     42
                      A                      A                      A
 Frequencies --    921.5770               933.2932               951.2210
 Red. masses --      1.8006                 1.5521                 2.3353
 Frc consts  --      0.9010                 0.7965                 1.2450
 IR Inten    --      0.1558                15.2232                11.6423

                     43                     44                     45
                      A                      A                      A
 Frequencies --    959.1536               962.0603               972.4737
 Red. masses --      1.6667                 1.2250                 1.9217
 Frc consts  --      0.9034                 0.6680                 1.0708
 IR Inten    --     28.7684                 0.2266                17.8903

                     46                     47                     48
                      A                      A                      A
 Frequencies --    996.8837              1050.7994              1068.9387
 Red. masses --      1.4902                 1.7579                 1.5055
 Frc consts  --      0.8726                 1.1437                 1.0135
 IR Inten    --      7.8200                 4.4903                 1.6432

                     49                     50                     51
                      A                      A                      A
 Frequencies --   1078.8590              1082.0936              1139.0932
 Red. masses --      2.3074                 2.8552                 1.9516
 Frc consts  --      1.5823                 1.9698                 1.4920
 IR Inten    --      8.3382                49.6755                32.2482

                     52                     53                     54
                      A                      A                      A
 Frequencies --   1154.7122              1159.8403              1187.2705
 Red. masses --      1.6839                 1.8369                 1.9080
 Frc consts  --      1.3229                 1.4559                 1.5846
 IR Inten    --    101.7051                36.3156               142.3882

                     55                     56                     57
                      A                      A                      A
 Frequencies --   1195.6330              1196.6893              1235.1432
 Red. masses --      1.1077                 1.5057                 2.5337
 Frc consts  --      0.9330                 1.2705                 2.2774
 IR Inten    --      5.8076                 4.5372                11.2905

                     58                     59                     60
                      A                      A                      A
 Frequencies --   1252.3360              1260.9842              1303.9227
 Red. masses --      3.2430                 2.7539                 2.8727
 Frc consts  --      2.9967                 2.5800                 2.8777
 IR Inten    --    201.5571                 6.0862               165.5058

                     61                     62                     63
                      A                      A                      A
 Frequencies --   1316.2950              1316.5162              1325.0617
 Red. masses --      1.8165                 1.1529                 1.9142
 Frc consts  --      1.8543                 1.1773                 1.9802
 IR Inten    --     85.1218                 7.3352                34.4112

                     64                     65                     66
                      A                      A                      A
 Frequencies --   1346.6247              1357.0390              1409.8542
 Red. masses --      1.5803                 6.1057                 1.3303
 Frc consts  --      1.6884                 6.6248                 1.5579
 IR Inten    --     58.4161                29.5746                46.1393

                     67                     68                     69
                      A                      A                      A
 Frequencies --   1421.7161              1430.9723              1447.4932
 Red. masses --      1.2561                 1.3191                 1.2513
 Frc consts  --      1.4959                 1.5914                 1.5447
 IR Inten    --      9.4184                16.1131                10.3218

                     70                     71                     72
                      A                      A                      A
 Frequencies --   1452.5784              1492.2231              1499.4202
 Red. masses --      1.3630                 1.0565                 2.3032
 Frc consts  --      1.6945                 1.3860                 3.0509
 IR Inten    --     52.3923                 8.9094                21.5703

                     73                     74                     75
                      A                      A                      A
 Frequencies --   1503.0550              1511.2405              1512.2980
 Red. masses --      1.0509                 1.0806                 1.0698
 Frc consts  --      1.3988                 1.4540                 1.4416
 IR Inten    --      6.2618                 2.7130                 0.6353

                     76                     77                     78
                      A                      A                      A
 Frequencies --   1514.6723              1518.7776              1529.0824
 Red. masses --      1.0404                 1.0532                 1.0693
 Frc consts  --      1.4063                 1.4313                 1.4731
 IR Inten    --      5.6088                 5.1879                13.3221

                     79                     80                     81
                      A                      A                      A
 Frequencies --   1530.0493              1544.2568              1547.3970
 Red. masses --      1.0566                 1.3161                 1.2633
 Frc consts  --      1.4574                 1.8492                 1.7822
 IR Inten    --      6.7627                47.4936                58.4898

                     82                     83                     84
                      A                      A                      A
 Frequencies --   1561.0464              1643.6466              1654.7855
 Red. masses --      1.4996                 6.3754                 5.8723
 Frc consts  --      2.1531                10.1478                 9.4742
 IR Inten    --     42.8365                 2.6257                29.5477

                     85                     86                     87
                      A                      A                      A
 Frequencies --   1807.9084              3015.1905              3047.1803
 Red. masses --      9.9530                 1.0553                 1.0380
 Frc consts  --     19.1671                 5.6529                 5.6787
 IR Inten    --    124.7450                37.7284                 1.6028

                     88                     89                     90
                      A                      A                      A
 Frequencies --   3052.4664              3059.8506              3063.4101
 Red. masses --      1.1086                 1.0362                 1.0352
 Frc consts  --      6.0861                 5.7158                 5.7239
 IR Inten    --     35.2755                19.3666                16.5006

                     91                     92                     93
                      A                      A                      A
 Frequencies --   3066.4549              3077.3714              3104.9337
 Red. masses --      1.0564                 1.0380                 1.0988
 Frc consts  --      5.8527                 5.7914                 6.2412
 IR Inten    --      7.7846                 7.3534                 9.2467

                     94                     95                     96
                      A                      A                      A
 Frequencies --   3118.4294              3130.8117              3135.1591
 Red. masses --      1.1053                 1.1028                 1.1026
 Frc consts  --      6.3328                 6.3687                 6.3854
 IR Inten    --     10.1717                22.1260                30.6439

                     97                     98                     99
                      A                      A                      A
 Frequencies --   3141.6510              3144.0688              3147.3933
 Red. masses --      1.1039                 1.1027                 1.0985
 Frc consts  --      6.4194                 6.4221                 6.4115
 IR Inten    --     25.8015                16.9044                18.3454

                    100                    101                    102
                      A                      A                      A
 Frequencies --   3167.0816              3172.4912              3190.1305
 Red. masses --      1.1023                 1.1038                 1.0858
 Frc consts  --      6.5143                 6.5452                 6.5105
 IR Inten    --     14.2828                 7.9551                 1.4538

                    103                    104                    105
                      A                      A                      A
 Frequencies --   3205.1252              3219.6537              3229.4375
 Red. masses --      1.0913                 1.0940                 1.0923
 Frc consts  --      6.6050                 6.6815                 6.7120
 IR Inten    --     26.9244                19.7229                 9.6317

 - Thermochemistry -
 -------------------
 Temperature   298.150 Kelvin.  Pressure   1.00000 Atm.
 Atom     1 has atomic number  6 and mass  12.00000

 Molecular mass:   236.14124 amu.
 Principal axes and moments of inertia in atomic units:
                           1         2         3
     Eigenvalues --  2593.876796188.402407865.10399
           X            0.99970  -0.01813  -0.01628
           Y            0.01809   0.99983  -0.00246
           Z            0.01632   0.00217   0.99986
 This molecule is an asymmetric top.
 Rotational symmetry number  1.
 Warning -- assumption of classical behavior for rotation
           may cause significant error
 Rotational temperatures (Kelvin)      0.03339     0.01400     0.01101
 Rotational constants (GHZ):           0.69577     0.29163     0.22946
 Zero-point vibrational energy     832541.8 (Joules/Mol)
                                  198.98226 (Kcal/Mol)
 Warning -- explicit consideration of  29 degrees of freedom as
           vibrations may cause significant error
 Vibrational temperatures:     28.36    53.09    59.58   101.74   113.65
          (Kelvin)            142.67   169.93   191.04   235.24   263.59
                              291.62   347.04   363.87   381.01   395.98
                              413.20   457.63   484.14   507.49   536.55
                              576.21   644.26   659.23   714.32   752.06
                              781.01   798.84   864.60   886.74   896.08
                             1048.47  1084.84  1108.22  1153.80  1186.63
                             1200.35  1212.02  1243.30  1312.04  1325.94
                             1342.80  1368.59  1380.01  1384.19  1399.17
                             1434.29  1511.87  1537.96  1552.24  1556.89
                             1638.90  1661.37  1668.75  1708.22  1720.25
                             1721.77  1777.10  1801.83  1814.28  1876.05
                             1893.85  1894.17  1906.47  1937.49  1952.48
                             2028.47  2045.53  2058.85  2082.62  2089.94
                             2146.98  2157.33  2162.56  2174.34  2175.86
                             2179.28  2185.18  2200.01  2201.40  2221.84
                             2226.36  2246.00  2364.84  2380.87  2601.18
                             4338.19  4384.21  4391.82  4402.44  4407.56
                             4411.94  4427.65  4467.31  4486.72  4504.54
                             4510.79  4520.14  4523.61  4528.40  4556.72
                             4564.51  4589.89  4611.46  4632.36  4646.44

 Zero-point correction=                           0.317098 (Hartree/Particle)
 Thermal correction to Energy=                    0.335306
 Thermal correction to Enthalpy=                  0.336250
 Thermal correction to Gibbs Free Energy=         0.269743
 Sum of electronic and zero-point Energies=           -770.944202
 Sum of electronic and thermal Energies=              -770.925994
 Sum of electronic and thermal Enthalpies=            -770.925050
 Sum of electronic and thermal Free Energies=         -770.991557

                     E (Thermal)             CV                S
                      KCal/Mol        Cal/Mol-Kelvin    Cal/Mol-Kelvin
 Total                  210.408             68.195            139.976
 Electronic               0.000              0.000              0.000
 Translational            0.889              2.981             42.279
 Rotational               0.889              2.981             33.201
 Vibrational            208.630             62.233             64.495
 Vibration     1          0.593              1.986              6.663
 Vibration     2          0.594              1.982              5.419
 Vibration     3          0.594              1.981              5.190
 Vibration     4          0.598              1.968              4.133
 Vibration     5          0.600              1.963              3.916
 Vibration     6          0.604              1.950              3.471
 Vibration     7          0.608              1.934              3.131
 Vibration     8          0.613              1.921              2.905
 Vibration     9          0.623              1.887              2.509
 Vibration    10          0.631              1.863              2.296
 Vibration    11          0.639              1.836              2.109
 Vibration    12          0.658              1.777              1.794
 Vibration    13          0.664              1.758              1.710
 Vibration    14          0.671              1.737              1.630
 Vibration    15          0.677              1.719              1.563
 Vibration    16          0.684              1.698              1.490
 Vibration    17          0.704              1.639              1.320
 Vibration    18          0.717              1.603              1.229
 Vibration    19          0.729              1.570              1.154
 Vibration    20          0.744              1.528              1.068
 Vibration    21          0.766              1.469              0.961
 Vibration    22          0.807              1.366              0.803
 Vibration    23          0.816              1.343              0.771
 Vibration    24          0.852              1.258              0.667
 Vibration    25          0.878              1.200              0.604
 Vibration    26          0.898              1.155              0.559
 Vibration    27          0.911              1.128              0.533
 Vibration    28          0.959              1.030              0.448
 Vibration    29          0.976              0.997              0.422

 Optimization completed.
    -- Stationary point found.
 Normal termination of Gaussian 16 at Fri Dec 11 13:00:54 2020.

 ----------------------------------------------------------------------
 # B3LYP/6-311++G(d,p) empiricaldispersion=gd3bj scf=xqc pop=npa geom=c
 heck
 ----------------------------------------------------------------------

 --------------------------------------
 CID_93710544_JID_7455_Energie_neutraal
 --------------------------------------
 Structure from the checkpoint file:  "JID_7455.chk"
 Charge =  0 Multiplicity = 1

 SCF Done:  E(RB3LYP) =  -771.477506467     A.U. after   15 cycles
 Normal termination of Gaussian 16 at Fri Dec 11 13:06:58 2020.

 ----------------------------------------------------------------------
 # B3LYP/6-311++G(d,p) empiricaldispersion=gd3bj scf=xqc pop=npa geom=c
 heck
 ----------------------------------------------------------------------

 ------------------------------------
 CID_93710544_JID_7455_Energie_kation
 ------------------------------------
 Structure from the checkpoint file:  "JID_7455.chk"
 Charge =  1 Multiplicity = 2

 SCF Done:  E(UB3LYP) =  -771.189893421     A.U. after   24 cycles
 Normal termination of Gaussian 16 at Fri Dec 11 13:19:45 2020.
 Gaussian 16:  ES64L-G16RevA.03 25-Dec-2016

 ----------------------------------------------------------------------
 # B3LYP/6-311++G(d,p) empiricaldispersion=gd3bj scf=xqc pop=npa geom=c
 heck
 ----------------------------------------------------------------------

 -----------------------------------
 CID_93710544_JID_7455_Energie_anion
 -----------------------------------
 Structure from the checkpoint file:  "JID_7455.chk"
 Charge = -1 Multiplicity = 2

                         Standard orientation:
 ---------------------------------------------------------------------
 Center     Atomic      Atomic             Coordinates (Angstroms)
 Number     Number       Type             X           Y           Z
 ---------------------------------------------------------------------
      1          6           0       -3.216071    3.118191    0.028439
      2          6           0       -3.346837    1.620308    0.232550
      3          8           0       -2.129523    1.025621   -0.207950
      4          6           0       -1.997499   -0.326543   -0.111111
      5          6           0       -2.983662   -1.188612    0.375832
      6          6           0       -2.751117   -2.566815    0.425244
      7          6           0       -1.543415   -3.095141   -0.017627
      8          6           0       -0.555598   -2.235077   -0.506719
      9          6           0       -0.762568   -0.859074   -0.545055
     10          8           0        0.174107   -0.011589   -1.082875
     11          6           0        1.238410    0.510616   -0.233809
     12          6           0        1.756786    1.708420   -1.026699
     13          6           0        0.724764    0.936410    1.139499
     14          6           0        2.322765   -0.594966   -0.111766
     15          6           0        3.644566   -0.099175    0.463835
     16          8           0        3.739830    0.290529    1.614014
     17          6           0        4.836382   -0.108083   -0.473081
     18          1           0       -2.381840    3.514776    0.615593
     19          1           0       -4.134863    3.624345    0.342845
     20          1           0       -3.034361    3.345786   -1.026271
     21          1           0       -3.518423    1.379770    1.291444
     22          1           0       -4.189609    1.215938   -0.345816
     23          1           0       -3.934613   -0.796094    0.715714
     24          1           0       -3.529165   -3.221615    0.806837
     25          1           0       -1.366665   -4.166031    0.007490
     26          1           0        0.384588   -2.624604   -0.882492
     27          1           0        2.112332    1.392122   -2.013034
     28          1           0        0.945142    2.426707   -1.170896
     29          1           0        2.575002    2.204302   -0.494545
     30          1           0        0.265027    0.091543    1.661469
     31          1           0        1.559648    1.287318    1.749354
     32          1           0       -0.021000    1.727083    1.034450
     33          1           0        1.943732   -1.386099    0.544657
     34          1           0        2.477182   -1.020384   -1.108208
     35          1           0        5.042177   -1.132346   -0.809444
     36          1           0        4.613399    0.479774   -1.372157
     37          1           0        5.715556    0.298456    0.030310
 ---------------------------------------------------------------------

 SCF Done:  E(UB3LYP) =  -771.466416364     A.U. after   33 cycles
 SCF Done:  E(UB3LYP) =  -771.466416364     a.u. after    1 cycles

 The electronic state is 2-A.
 Alpha  occ. eigenvalues --  -19.06020 -19.03764 -19.00796 -10.15499 -10.14887
 Alpha  occ. eigenvalues --  -10.14264 -10.13517 -10.13290 -10.08415 -10.08264
 Alpha  occ. eigenvalues --  -10.08176 -10.07996 -10.07837 -10.07689 -10.07596
 Alpha  occ. eigenvalues --  -10.07115 -10.05830  -0.98176  -0.95193  -0.94210
 Alpha  occ. eigenvalues --   -0.76329  -0.71857  -0.68847  -0.66220  -0.65002
 Alpha  occ. eigenvalues --   -0.63280  -0.60899  -0.59933  -0.55781  -0.52790
 Alpha  occ. eigenvalues --   -0.50030  -0.48021  -0.44881  -0.43005  -0.41201
 Alpha  occ. eigenvalues --   -0.39683  -0.39594  -0.38331  -0.37522  -0.36762
 Alpha  occ. eigenvalues --   -0.35317  -0.35194  -0.34474  -0.33180  -0.31979
 Alpha  occ. eigenvalues --   -0.31383  -0.30736  -0.30578  -0.30256  -0.29199
 Alpha  occ. eigenvalues --   -0.28823  -0.28325  -0.27708  -0.27609  -0.26689
 Alpha  occ. eigenvalues --   -0.26092  -0.25066  -0.24341  -0.23184  -0.22734
 Alpha  occ. eigenvalues --   -0.18407  -0.15814  -0.15101  -0.13028   0.04041
 Alpha virt. eigenvalues --    0.05319   0.06280   0.06470   0.07554   0.07725
 Alpha virt. eigenvalues --    0.08247   0.08800   0.09000   0.09016   0.09651
 Alpha virt. eigenvalues --    0.09787   0.10796   0.11096   0.11263   0.11514

  Beta  occ. eigenvalues --  -19.06013 -19.03761 -19.00690 -10.15349 -10.14878
  Beta  occ. eigenvalues --  -10.14263 -10.13490 -10.13289 -10.08403 -10.08254
  Beta  occ. eigenvalues --  -10.08164 -10.07989 -10.07824 -10.07688 -10.07566
  Beta  occ. eigenvalues --  -10.07106 -10.05825  -0.98160  -0.95175  -0.93989
  Beta  occ. eigenvalues --   -0.76311  -0.71816  -0.68815  -0.66094  -0.64959
  Beta  occ. eigenvalues --   -0.63253  -0.60859  -0.59913  -0.55723  -0.52752
  Beta  occ. eigenvalues --   -0.49978  -0.47968  -0.44782  -0.42849  -0.41131
  Beta  occ. eigenvalues --   -0.39661  -0.39555  -0.38261  -0.37456  -0.36668
  Beta  occ. eigenvalues --   -0.35236  -0.35153  -0.34406  -0.33052  -0.31932
  Beta  occ. eigenvalues --   -0.31341  -0.30702  -0.30529  -0.30219  -0.29157
  Beta  occ. eigenvalues --   -0.28780  -0.28243  -0.27686  -0.27553  -0.26619
  Beta  occ. eigenvalues --   -0.25966  -0.24779  -0.24297  -0.23151  -0.22705
  Beta  occ. eigenvalues --   -0.18379  -0.15798  -0.15010  -0.13011
  Beta virt. eigenvalues --    0.06144   0.06607   0.06743   0.07388   0.07656
  Beta virt. eigenvalues --    0.08145   0.08698   0.09009   0.09140   0.09248
  Beta virt. eigenvalues --    0.09939   0.10234   0.10906   0.11230   0.11526

 Mulliken charges and spin densities:
               1          2
     1  C    1.055577  -1.741517
     2  C   -0.053805   0.076931
     3  O   -0.094607   0.028699
     4  C   -0.177687   0.143838
     5  C    1.440513  -1.184209
     6  C   -0.458756   0.100902
     7  C    0.581818  -0.824860
     8  C    0.010729   0.197196
     9  C   -1.202888   0.867257
    10  O    0.022117   0.006896
    11  C    0.518234  -0.453026
    12  C   -0.249944  -0.325542
    13  C   -0.287010  -0.306498
    14  C   -0.712060   0.481162
    15  C   -0.599869   0.702711
    16  O   -0.283059   0.034028
    17  C    0.465794  -1.117389
    18  H   -0.101895   0.238374
    19  H   -0.426504   0.580889
    20  H    0.012150   0.138626
    21  H   -0.060633   0.222854
    22  H   -0.204195   0.358301
    23  H   -0.427978   0.619900
    24  H   -0.205533   0.372493
    25  H   -0.088920   0.254171
    26  H   -0.127183   0.291386
    27  H    0.041562   0.128332
    28  H    0.183553  -0.029352
    29  H    0.150910   0.016658
    30  H    0.184052  -0.036201
    31  H    0.163865   0.030246
    32  H    0.206588  -0.041067
    33  H   -0.046322   0.264207
    34  H    0.101397   0.096722
    35  H   -0.507057   0.688547
    36  H    0.108703   0.037343
    37  H    0.068344   0.080994
 Sum of Mulliken charges =  -1.00000   1.00000

 Dipole moment (field-independent basis, Debye):
    X=              1.8282    Y=              1.0526    Z=             -1.3122  Tot=              2.4843
 Quadrupole moment (field-independent basis, Debye-Ang):
   XX=           -204.2040   YY=           -149.4153   ZZ=           -136.6531
   XY=             17.4011   XZ=              0.8106   YZ=             -4.6298

 Summary of Natural Population Analysis:

                                       Natural Population
                Natural  -----------------------------------------------
    Atom  No    Charge         Core      Valence    Rydberg      Total
 -----------------------------------------------------------------------
      C    1   -0.29130      0.99966     2.28558    0.00606     3.29130
      C    2   -0.01160      0.99958     2.00014    0.01188     3.01160
      O    3   -0.27439      0.99985     3.26387    0.01067     4.27439
      C    4    0.14962      0.99934     1.83818    0.01286     2.85038
      C    5   -0.14184      0.99953     2.13285    0.00946     3.14184
      C    6   -0.09853      0.99957     2.08892    0.01004     3.09853
      C    7   -0.11368      0.99956     2.10502    0.00910     3.11368
      C    8   -0.11456      0.99951     2.10548    0.00956     3.11456
      C    9    0.13429      0.99934     1.85133    0.01504     2.86571
      O   10   -0.30059      0.99985     3.28962    0.01112     4.30059
      C   11    0.14997      0.99952     1.83739    0.01311     2.85003
      C   12   -0.29204      0.99960     2.28653    0.00592     3.29204
      C   13   -0.30855      0.99960     2.30310    0.00586     3.30855
      C   14   -0.25392      0.99953     2.24274    0.01166     3.25392
      C   15    0.30920      0.99969     1.66970    0.02141     2.69080
      O   16   -0.28529      0.99987     3.27907    0.00634     4.28529
      C   17   -0.33370      0.99962     2.32901    0.00507     3.33370
      H   18    0.09978      0.00000     0.39907    0.00115     0.40022
      H   19    0.10367      0.00000     0.39490    0.00143     0.39633
      H   20    0.10087      0.00000     0.39808    0.00105     0.39913
      H   21    0.08421      0.00000     0.41400    0.00179     0.41579
      H   22    0.08522      0.00000     0.41290    0.00187     0.41478
      H   23    0.10784      0.00000     0.39046    0.00170     0.39216
      H   24    0.10079      0.00000     0.39825    0.00097     0.39921
      H   25    0.10086      0.00000     0.39828    0.00086     0.39914
      H   26    0.10644      0.00000     0.39203    0.00154     0.39356
      H   27    0.10158      0.00000     0.39747    0.00095     0.39842
      H   28    0.10717      0.00000     0.39193    0.00090     0.39283
      H   29    0.10134      0.00000     0.39802    0.00064     0.39866
      H   30    0.10503      0.00000     0.39414    0.00082     0.39497
      H   31    0.11597      0.00000     0.38317    0.00086     0.38403
      H   32    0.10608      0.00000     0.39276    0.00116     0.39392
      H   33    0.11710      0.00000     0.38150    0.00140     0.38290
      H   34    0.10650      0.00000     0.39197    0.00152     0.39350
      H   35    0.11362      0.00000     0.38317    0.00321     0.38638
      H   36    0.10672      0.00000     0.39236    0.00092     0.39328
      H   37    0.10613      0.00000     0.39298    0.00090     0.39387
 =======================================================================
   * Total *   -0.00000     16.99322    46.80599    0.20079    64.00000

 Normal termination of Gaussian 16 at Fri Dec 11 13:37:07 2020.
