 Gaussian 16, Revision A.03,

 -----------------------------------------------------------
 # opt freq B3LYP/6-31G(d) empiricaldispersion=gd3bj scf=xqc
 -----------------------------------------------------------

 --------------------------------
 CID_105758667_JID_10395_neutraal
 --------------------------------
 Symbolic Z-matrix:
 Charge =  0 Multiplicity = 1

 SCF Done:  E(RB3LYP) =  -953.364414060     A.U. after   15 cycles
 SCF Done:  E(RB3LYP) =  -953.374659176     A.U. after   13 cycles
 SCF Done:  E(RB3LYP) =  -953.376471009     A.U. after   12 cycles
 SCF Done:  E(RB3LYP) =  -953.376161957     A.U. after   13 cycles
 SCF Done:  E(RB3LYP) =  -953.378773574     A.U. after   12 cycles
 SCF Done:  E(RB3LYP) =  -953.381098469     A.U. after   12 cycles
 SCF Done:  E(RB3LYP) =  -953.384179780     A.U. after   15 cycles
 SCF Done:  E(RB3LYP) =  -953.387097379     A.U. after   12 cycles
 SCF Done:  E(RB3LYP) =  -953.389034934     A.U. after   12 cycles
 SCF Done:  E(RB3LYP) =  -953.389752435     A.U. after   12 cycles
 SCF Done:  E(RB3LYP) =  -953.390356643     A.U. after    9 cycles
 SCF Done:  E(RB3LYP) =  -953.390366461     A.U. after    9 cycles
 SCF Done:  E(RB3LYP) =  -953.390370787     A.U. after    8 cycles
 SCF Done:  E(RB3LYP) =  -953.390371814     A.U. after    8 cycles
 SCF Done:  E(RB3LYP) =  -953.390372011     A.U. after    7 cycles
 Optimization completed.
    -- Stationary point found.
 Normal termination of Gaussian 16 at Sat Dec 12 15:18:15 2020.

 --------------------------------------------------------------------
 #N Geom=AllCheck Guess=TCheck SCRF=Check GenChk RB3LYP/6-31G(d) Freq
 --------------------------------------------------------------------

 Structure from the checkpoint file:  "JID_10395.chk"
 --------------------------------
 CID_105758667_JID_10395_neutraal
 --------------------------------
 Charge =  0 Multiplicity = 1

 SCF Done:  E(RB3LYP) =  -953.390372011     A.U. after    1 cycles

  Exact polarizability: 208.790  -5.826 179.713   1.391 -13.507 126.368
 Approx polarizability: 276.345 -19.854 274.519   1.164 -33.987 195.307

                      1                      2                      3
                      A                      A                      A
 Frequencies --     21.6857                25.4674                43.4117
 Red. masses --      3.8269                 3.4254                 4.1698
 Frc consts  --      0.0011                 0.0013                 0.0046
 IR Inten    --      0.3643                 0.6099                 1.1512

                      4                      5                      6
                      A                      A                      A
 Frequencies --     50.4064                67.5590                81.6098
 Red. masses --      4.4265                 4.2193                 2.7944
 Frc consts  --      0.0066                 0.0113                 0.0110
 IR Inten    --      0.4942                 0.9925                 2.5172

                      7                      8                      9
                      A                      A                      A
 Frequencies --     98.6786               100.8743               123.1258
 Red. masses --      3.6450                 4.1575                 3.0419
 Frc consts  --      0.0209                 0.0249                 0.0272
 IR Inten    --      0.4622                 1.9541                 1.9262

                     10                     11                     12
                      A                      A                      A
 Frequencies --    153.7918               168.4530               190.3082
 Red. masses --      4.7278                 6.6760                 4.0541
 Frc consts  --      0.0659                 0.1116                 0.0865
 IR Inten    --      0.9222                 2.6981                 2.2388

                     13                     14                     15
                      A                      A                      A
 Frequencies --    213.0825               227.2904               235.5083
 Red. masses --      1.1544                 1.4358                 1.1840
 Frc consts  --      0.0309                 0.0437                 0.0387
 IR Inten    --      0.2323                 2.7410                 0.6448

                     16                     17                     18
                      A                      A                      A
 Frequencies --    246.6139               257.6802               295.9498
 Red. masses --      3.3497                 1.9186                 3.0446
 Frc consts  --      0.1200                 0.0751                 0.1571
 IR Inten    --      0.3924                 1.6772                 3.7987

                     19                     20                     21
                      A                      A                      A
 Frequencies --    304.0099               332.3658               361.8589
 Red. masses --      3.3535                 3.7162                 2.3912
 Frc consts  --      0.1826                 0.2419                 0.1845
 IR Inten    --     16.2832                 4.2936                 0.1126

                     22                     23                     24
                      A                      A                      A
 Frequencies --    370.5115               376.1854               382.2253
 Red. masses --      2.9131                 2.5837                 3.0085
 Frc consts  --      0.2356                 0.2154                 0.2590
 IR Inten    --      1.8962                 0.4259                 7.4977

                     25                     26                     27
                      A                      A                      A
 Frequencies --    397.9378               419.1227               469.0631
 Red. masses --      3.9800                 4.0147                 3.3951
 Frc consts  --      0.3713                 0.4155                 0.4401
 IR Inten    --      6.4584                 6.4767                16.6672

                     28                     29                     30
                      A                      A                      A
 Frequencies --    476.3236               482.5747               554.9551
 Red. masses --      3.1591                 3.8829                 3.3371
 Frc consts  --      0.4223                 0.5328                 0.6055
 IR Inten    --      0.4583                16.0436                16.1774

                     31                     32                     33
                      A                      A                      A
 Frequencies --    567.4128               596.8385               627.2414
 Red. masses --      2.8918                 1.1438                 1.8394
 Frc consts  --      0.5485                 0.2401                 0.4264
 IR Inten    --      3.0029                85.4980                23.3994

                     34                     35                     36
                      A                      A                      A
 Frequencies --    638.1774               676.7229               698.3323
 Red. masses --      5.7565                 1.6997                 3.5523
 Frc consts  --      1.3813                 0.4586                 1.0207
 IR Inten    --      5.4550                82.7981                 2.4603

                     37                     38                     39
                      A                      A                      A
 Frequencies --    701.1177               731.6671               745.4163
 Red. masses --      3.5307                 5.2831                 7.2184
 Frc consts  --      1.0226                 1.6663                 2.3632
 IR Inten    --      3.4379                12.9101                50.5391

                     40                     41                     42
                      A                      A                      A
 Frequencies --    752.2080               782.2917               806.4434
 Red. masses --      7.2584                 1.6032                 2.5076
 Frc consts  --      2.4197                 0.5781                 0.9609
 IR Inten    --      4.5683                10.6185                 5.7551

                     43                     44                     45
                      A                      A                      A
 Frequencies --    826.3623               853.6438               891.6122
 Red. masses --      1.4953                 2.3088                 1.6936
 Frc consts  --      0.6016                 0.9913                 0.7933
 IR Inten    --    245.3062                12.0678                 9.6171

                     46                     47                     48
                      A                      A                      A
 Frequencies --    916.1248               928.7895               979.5386
 Red. masses --      1.9617                 1.3761                 1.6115
 Frc consts  --      0.9700                 0.6994                 0.9110
 IR Inten    --     10.8980                 2.8584                 0.9493

                     49                     50                     51
                      A                      A                      A
 Frequencies --    984.9959              1001.6825              1007.1278
 Red. masses --      1.8915                 1.8300                 1.7504
 Frc consts  --      1.0813                 1.0818                 1.0460
 IR Inten    --      3.6662                 5.8800                28.4667

                     52                     53                     54
                      A                      A                      A
 Frequencies --   1026.9562              1040.6844              1063.4875
 Red. masses --      2.5225                 1.7280                 1.4570
 Frc consts  --      1.5674                 1.1026                 0.9709
 IR Inten    --     13.3752                 2.3343                 9.0585

                     55                     56                     57
                      A                      A                      A
 Frequencies --   1073.6082              1080.8381              1102.5295
 Red. masses --      2.1994                 2.6919                 1.7244
 Frc consts  --      1.4936                 1.8528                 1.2350
 IR Inten    --      7.8522                20.1526                 5.4978

                     58                     59                     60
                      A                      A                      A
 Frequencies --   1143.6567              1148.8270              1167.2613
 Red. masses --      1.8766                 2.4820                 1.8594
 Frc consts  --      1.4462                 1.9300                 1.4927
 IR Inten    --      7.1937                73.0105                28.9990

                     61                     62                     63
                      A                      A                      A
 Frequencies --   1168.2476              1173.4899              1191.7832
 Red. masses --      4.3203                 2.3942                 1.7890
 Frc consts  --      3.4740                 1.9426                 1.4971
 IR Inten    --    100.0655                36.5659                 1.7943

                     64                     65                     66
                      A                      A                      A
 Frequencies --   1197.2763              1215.7572              1245.9106
 Red. masses --      1.4199                 1.9688                 1.7097
 Frc consts  --      1.1992                 1.7145                 1.5636
 IR Inten    --      7.0288                34.5350                28.0550

                     67                     68                     69
                      A                      A                      A
 Frequencies --   1258.1598              1268.0583              1285.5122
 Red. masses --      1.9197                 2.0236                 1.4605
 Frc consts  --      1.7904                 1.9171                 1.4220
 IR Inten    --     13.8280                11.6243                 6.0788

                     70                     71                     72
                      A                      A                      A
 Frequencies --   1305.1508              1312.3884              1349.7849
 Red. masses --      2.6227                 2.0897                 1.7311
 Frc consts  --      2.6322                 2.1206                 1.8582
 IR Inten    --     48.5797                34.6388                 1.1543

                     73                     74                     75
                      A                      A                      A
 Frequencies --   1360.8148              1385.0936              1404.4164
 Red. masses --      1.3595                 1.4647                 1.6815
 Frc consts  --      1.4833                 1.6556                 1.9541
 IR Inten    --     18.4132                 2.8349                26.9434

                     76                     77                     78
                      A                      A                      A
 Frequencies --   1406.0143              1436.4237              1437.8400
 Red. masses --      1.6851                 1.3805                 1.6638
 Frc consts  --      1.9627                 1.6782                 2.0266
 IR Inten    --     33.7095                 3.4170                18.2010

                     79                     80                     81
                      A                      A                      A
 Frequencies --   1446.7429              1449.5472              1456.2695
 Red. masses --      2.3233                 1.2290                 1.7124
 Frc consts  --      2.8651                 1.5215                 2.1397
 IR Inten    --     33.2700                 0.1114                 1.5273

                     82                     83                     84
                      A                      A                      A
 Frequencies --   1483.7692              1494.1251              1503.3257
 Red. masses --      1.4194                 1.1747                 1.1569
 Frc consts  --      1.8411                 1.5451                 1.5405
 IR Inten    --    114.9063                21.3951                 3.0815

                     85                     86                     87
                      A                      A                      A
 Frequencies --   1513.3273              1514.8140              1518.0236
 Red. masses --      1.0558                 1.0507                 1.3158
 Frc consts  --      1.4247                 1.4205                 1.7865
 IR Inten    --      6.7776                 5.7769                30.8966

                     88                     89                     90
                      A                      A                      A
 Frequencies --   1521.0191              1523.7680              1531.7125
 Red. masses --      1.7051                 1.1880                 1.0890
 Frc consts  --      2.3242                 1.6253                 1.5053
 IR Inten    --    101.5583                 7.2486                24.2913

                     91                     92                     93
                      A                      A                      A
 Frequencies --   1532.2363              1542.7327              1550.0418
 Red. masses --      1.0567                 1.2308                 1.0860
 Frc consts  --      1.4617                 1.7259                 1.5374
 IR Inten    --     10.1781                 2.2437                 3.1044

                     94                     95                     96
                      A                      A                      A
 Frequencies --   1552.7592              1650.4826              1698.1381
 Red. masses --      1.1250                 1.7190                 2.3944
 Frc consts  --      1.5981                 2.7590                 4.0681
 IR Inten    --      5.3933               130.0956               296.9532

                     97                     98                     99
                      A                      A                      A
 Frequencies --   1773.4279              1803.8960              3001.0349
 Red. masses --      9.0729                 9.6430                 1.0542
 Frc consts  --     16.8122                18.4878                 5.5938
 IR Inten    --    552.6754               549.4355                34.3303

                    100                    101                    102
                      A                      A                      A
 Frequencies --   3011.8360              3029.1968              3032.4937
 Red. masses --      1.0420                 1.0648                 1.0362
 Frc consts  --      5.5693                 5.7564                 5.6145
 IR Inten    --     89.8689                28.3976                41.2560

                    103                    104                    105
                      A                      A                      A
 Frequencies --   3039.1564              3052.0465              3061.3691
 Red. masses --      1.0375                 1.1015                 1.1061
 Frc consts  --      5.6459                 6.0455                 6.1079
 IR Inten    --     30.4029                42.7378                38.5365

                    106                    107                    108
                      A                      A                      A
 Frequencies --   3079.2211              3089.9442              3093.4198
 Red. masses --      1.0971                 1.1022                 1.1015
 Frc consts  --      6.1286                 6.2005                 6.2104
 IR Inten    --     15.5796                 0.7752                80.1050

                    109                    110                    111
                      A                      A                      A
 Frequencies --   3109.3302              3112.8551              3122.7095
 Red. masses --      1.1013                 1.0621                 1.0973
 Frc consts  --      6.2731                 6.0638                 6.3043
 IR Inten    --     21.9449                17.5698                29.7988

                    112                    113                    114
                      A                      A                      A
 Frequencies --   3129.9883              3136.0701              3147.7127
 Red. masses --      1.0883                 1.0561                 1.0988
 Frc consts  --      6.2816                 6.1195                 6.4146
 IR Inten    --     30.6558                20.7583                22.4783

                    115                    116                    117
                      A                      A                      A
 Frequencies --   3171.2919              3214.5662              3485.5854
 Red. masses --      1.1050                 1.1171                 1.0732
 Frc consts  --      6.5478                 6.8010                 7.6824
 IR Inten    --      0.9887                17.5933                 3.0815

                    118                    119                    120
                      A                      A                      A
 Frequencies --   3488.6515              3591.9439              3611.6468
 Red. masses --      1.0469                 1.0999                 1.0773
 Frc consts  --      7.5068                 8.3610                 8.2796
 IR Inten    --    105.2853               195.9500                62.2368

 - Thermochemistry -
 -------------------
 Temperature   298.150 Kelvin.  Pressure   1.00000 Atm.
 Atom     1 has atomic number  6 and mass  12.00000

 Molecular mass:   282.16919 amu.
 Principal axes and moments of inertia in atomic units:
                           1         2         3
     Eigenvalues --  3792.905448929.52354**********
           X            0.99992  -0.01194  -0.00420
           Y            0.01198   0.99989   0.00859
           Z            0.00410  -0.00864   0.99995
 This molecule is an asymmetric top.
 Rotational symmetry number  1.
 Warning -- assumption of classical behavior for rotation
           may cause significant error
 Rotational temperatures (Kelvin)      0.02284     0.00970     0.00750
 Rotational constants (GHZ):           0.47582     0.20211     0.15628
 Zero-point vibrational energy     947230.5 (Joules/Mol)
                                  226.39353 (Kcal/Mol)
 Warning -- explicit consideration of  32 degrees of freedom as
           vibrations may cause significant error
 Vibrational temperatures:     31.20    36.64    62.46    72.52    97.20
          (Kelvin)            117.42   141.98   145.14   177.15   221.27
                              242.37   273.81   306.58   327.02   338.84
                              354.82   370.74   425.81   437.40   478.20
                              520.63   533.08   541.25   549.94   572.54
                              603.02   674.88   685.32   694.32   798.46
                              816.38   858.72   902.46   918.19   973.65
                             1004.74  1008.75  1052.71  1072.49  1082.26
                             1125.54  1160.29  1188.95  1228.20  1282.83
                             1318.10  1336.32  1409.34  1417.19  1441.20
                             1449.03  1477.56  1497.31  1530.12  1544.68
                             1555.08  1586.29  1645.47  1652.91  1679.43
                             1680.85  1688.39  1714.71  1722.61  1749.20
                             1792.59  1810.21  1824.45  1849.57  1877.82
                             1888.23  1942.04  1957.91  1992.84  2020.64
                             2022.94  2066.69  2068.73  2081.54  2085.58
                             2095.25  2134.81  2149.71  2162.95  2177.34
                             2179.48  2184.10  2188.41  2192.36  2203.79
                             2204.55  2219.65  2230.16  2234.07  2374.68
                             2443.24  2551.57  2595.40  4317.82  4333.36
                             4358.34  4363.08  4372.67  4391.21  4404.63
                             4430.31  4445.74  4450.74  4473.63  4478.70
                             4492.88  4503.36  4512.11  4528.86  4562.78
                             4625.04  5014.98  5019.39  5168.01  5196.35

 Zero-point correction=                           0.360781 (Hartree/Particle)
 Thermal correction to Energy=                    0.381652
 Thermal correction to Enthalpy=                  0.382596
 Thermal correction to Gibbs Free Energy=         0.309677
 Sum of electronic and zero-point Energies=           -953.029591
 Sum of electronic and thermal Energies=              -953.008720
 Sum of electronic and thermal Enthalpies=            -953.007776
 Sum of electronic and thermal Free Energies=         -953.080695

                     E (Thermal)             CV                S
                      KCal/Mol        Cal/Mol-Kelvin    Cal/Mol-Kelvin
 Total                  239.490             78.215            153.472
 Electronic               0.000              0.000              0.000
 Translational            0.889              2.981             42.810
 Rotational               0.889              2.981             34.324
 Vibrational            237.713             72.253             76.338
 Vibration     1          0.593              1.985              6.474
 Vibration     2          0.593              1.985              6.154
 Vibration     3          0.595              1.980              5.097
 Vibration     4          0.595              1.977              4.801
 Vibration     5          0.598              1.970              4.223
 Vibration     6          0.600              1.962              3.852
 Vibration     7          0.604              1.950              3.480
 Vibration     8          0.604              1.948              3.437
 Vibration     9          0.610              1.930              3.051
 Vibration    10          0.619              1.898              2.625
 Vibration    11          0.625              1.881              2.453
 Vibration    12          0.634              1.853              2.225
 Vibration    13          0.644              1.821              2.017
 Vibration    14          0.651              1.799              1.900
 Vibration    15          0.655              1.786              1.837
 Vibration    16          0.661              1.768              1.755
 Vibration    17          0.667              1.750              1.677
 Vibration    18          0.690              1.681              1.440
 Vibration    19          0.695              1.666              1.395
 Vibration    20          0.714              1.611              1.249
 Vibration    21          0.736              1.551              1.114
 Vibration    22          0.743              1.533              1.078
 Vibration    23          0.747              1.521              1.054
 Vibration    24          0.752              1.508              1.030
 Vibration    25          0.764              1.475              0.970
 Vibration    26          0.782              1.429              0.895
 Vibration    27          0.826              1.319              0.740
 Vibration    28          0.833              1.303              0.720
 Vibration    29          0.839              1.289              0.703
 Vibration    30          0.910              1.129              0.534
 Vibration    31          0.923              1.102              0.509
 Vibration    32          0.955              1.039              0.455

                           ! Non-Optimized Parameters !
 Normal termination of Gaussian 16 at Sat Dec 12 15:42:53 2020.

 ----------------------------------------------------------------------
 # B3LYP/6-311++G(d,p) empiricaldispersion=gd3bj scf=xqc pop=npa geom=c
 heck
 ----------------------------------------------------------------------

 ----------------------------------------
 CID_105758667_JID_10395_Energie_neutraal
 ----------------------------------------
 Structure from the checkpoint file:  "JID_10395.chk"
 Charge =  0 Multiplicity = 1

 SCF Done:  E(RB3LYP) =  -953.673733088     A.U. after   15 cycles
 Normal termination of Gaussian 16 at Sat Dec 12 15:54:29 2020.

 ----------------------------------------------------------------------
 # B3LYP/6-311++G(d,p) empiricaldispersion=gd3bj scf=xqc pop=npa geom=c
 heck
 ----------------------------------------------------------------------

 --------------------------------------
 CID_105758667_JID_10395_Energie_kation
 --------------------------------------
 Structure from the checkpoint file:  "JID_10395.chk"
 Charge =  1 Multiplicity = 2

 SCF Done:  E(UB3LYP) =  -953.392079883     A.U. after   24 cycles
 Normal termination of Gaussian 16 at Sat Dec 12 16:21:13 2020.
 Gaussian 16:  ES64L-G16RevA.03 25-Dec-2016

 ----------------------------------------------------------------------
 # B3LYP/6-311++G(d,p) empiricaldispersion=gd3bj scf=xqc pop=npa geom=c
 heck
 ----------------------------------------------------------------------

 -------------------------------------
 CID_105758667_JID_10395_Energie_anion
 -------------------------------------
 Structure from the checkpoint file:  "JID_10395.chk"
 Charge = -1 Multiplicity = 2

                         Standard orientation:
 ---------------------------------------------------------------------
 Center     Atomic      Atomic             Coordinates (Angstroms)
 Number     Number       Type             X           Y           Z
 ---------------------------------------------------------------------
      1          6           0        3.207235    1.885845   -0.426511
      2          6           0        4.121667    0.736039   -0.047522
      3          6           0        4.331669    0.421448    1.416841
      4          6           0        3.543441   -0.532369    0.545443
      5          6           0        2.062790   -0.727801    0.761084
      6          7           0        1.366667   -0.926935   -0.529262
      7          6           0       -0.030398   -1.177661   -0.381975
      8          6           0       -0.910057   -0.171280   -0.710457
      9          7           0       -2.279011   -0.323013   -0.527704
     10          6           0       -2.826670   -1.480762    0.041364
     11          8           0       -4.027283   -1.597604    0.246566
     12          7           0       -1.911759   -2.465036    0.329701
     13          6           0       -0.509306   -2.420137    0.160851
     14          8           0        0.179189   -3.384585    0.483140
     15          6           0       -3.238458    0.686992   -0.984264
     16          6           0       -3.536512    1.745039    0.065785
     17          8           0       -2.376549    2.541602    0.258454
     18          6           0       -2.511283    3.478498    1.310148
     19          7           0       -0.475129    0.997951   -1.277408
     20          6           0        5.312211    0.579836   -0.975382
     21          1           0        2.348385    1.972812    0.245639
     22          1           0        3.752068    2.837838   -0.391076
     23          1           0        2.827788    1.756746   -1.447829
     24          1           0        5.322752    0.125199    1.750560
     25          1           0        3.775065    1.003738    2.147998
     26          1           0        4.063923   -1.447387    0.261232
     27          1           0        1.895127   -1.573005    1.443934
     28          1           0        1.620369    0.156692    1.232295
     29          1           0        1.798021   -1.718079   -1.005247
     30          1           0       -2.291846   -3.311593    0.735816
     31          1           0       -2.842591    1.147640   -1.892018
     32          1           0       -4.162381    0.158994   -1.220985
     33          1           0       -4.376511    2.372227   -0.273631
     34          1           0       -3.831460    1.258015    1.006331
     35          1           0       -3.327493    4.188786    1.110743
     36          1           0       -2.707943    2.975683    2.268376
     37          1           0       -1.568420    4.025859    1.377567
     38          1           0       -0.906417    1.842327   -0.909281
     39          1           0        0.541200    1.007180   -1.308514
     40          1           0        5.927984    1.488493   -0.984641
     41          1           0        5.952582   -0.254169   -0.667436
     42          1           0        4.983599    0.387809   -2.004828
 ---------------------------------------------------------------------

 SCF Done:  E(UB3LYP) =  -953.666178336     A.U. after   33 cycles
 SCF Done:  E(UB3LYP) =  -953.666178336     a.u. after    1 cycles

 The electronic state is 2-A.
 Alpha  occ. eigenvalues --  -19.05036 -19.01975 -19.00331 -14.29410 -14.27751
 Alpha  occ. eigenvalues --  -14.23888 -14.22325 -10.23665 -10.19066 -10.18340
 Alpha  occ. eigenvalues --  -10.13965 -10.13489 -10.12013 -10.10619 -10.10435
 Alpha  occ. eigenvalues --  -10.10084 -10.09063 -10.08452 -10.08064 -10.07327
 Alpha  occ. eigenvalues --   -0.99495  -0.96195  -0.95253  -0.90912  -0.85303
 Alpha  occ. eigenvalues --   -0.83648  -0.81384  -0.78413  -0.70259  -0.66944
 Alpha  occ. eigenvalues --   -0.64599  -0.60872  -0.60669  -0.59737  -0.57926
 Alpha  occ. eigenvalues --   -0.56363  -0.52672  -0.50613  -0.50152  -0.46154
 Alpha  occ. eigenvalues --   -0.45470  -0.43455  -0.42132  -0.41576  -0.41140
 Alpha  occ. eigenvalues --   -0.40115  -0.39738  -0.38895  -0.37206  -0.37174
 Alpha  occ. eigenvalues --   -0.36686  -0.35922  -0.35787  -0.34238  -0.33392
 Alpha  occ. eigenvalues --   -0.32602  -0.32147  -0.31719  -0.31212  -0.30590
 Alpha  occ. eigenvalues --   -0.30117  -0.29497  -0.29330  -0.28139  -0.26996
 Alpha  occ. eigenvalues --   -0.25299  -0.25096  -0.21696  -0.20461  -0.20343
 Alpha  occ. eigenvalues --   -0.19886  -0.18854  -0.18591  -0.18269  -0.16247
 Alpha  occ. eigenvalues --   -0.13024   0.03814
 Alpha virt. eigenvalues --    0.05482   0.06261   0.06794   0.07372   0.07570
 Alpha virt. eigenvalues --    0.07909   0.08225   0.08970   0.09143   0.09513
 Alpha virt. eigenvalues --    0.09891   0.10071   0.10105   0.10538   0.11103

  Beta  occ. eigenvalues --  -19.05020 -19.01972 -19.00308 -14.29411 -14.27748
  Beta  occ. eigenvalues --  -14.23863 -14.22323 -10.23665 -10.19039 -10.18272
  Beta  occ. eigenvalues --  -10.13935 -10.13481 -10.11947 -10.10612 -10.10447
  Beta  occ. eigenvalues --  -10.10082 -10.09059 -10.08441 -10.08047 -10.07298
  Beta  occ. eigenvalues --   -0.99484  -0.96174  -0.95214  -0.90871  -0.85283
  Beta  occ. eigenvalues --   -0.83636  -0.81360  -0.78405  -0.70219  -0.66913
  Beta  occ. eigenvalues --   -0.64568  -0.60821  -0.60604  -0.59706  -0.57885
  Beta  occ. eigenvalues --   -0.56274  -0.52616  -0.50589  -0.50120  -0.46123
  Beta  occ. eigenvalues --   -0.45443  -0.43410  -0.42074  -0.41522  -0.41100
  Beta  occ. eigenvalues --   -0.40090  -0.39708  -0.38862  -0.37189  -0.37122
  Beta  occ. eigenvalues --   -0.36655  -0.35895  -0.35768  -0.34215  -0.33350
  Beta  occ. eigenvalues --   -0.32568  -0.32095  -0.31678  -0.31175  -0.30524
  Beta  occ. eigenvalues --   -0.30084  -0.29458  -0.29293  -0.28022  -0.26970
  Beta  occ. eigenvalues --   -0.25276  -0.25008  -0.21687  -0.20422  -0.20316
  Beta  occ. eigenvalues --   -0.19831  -0.18839  -0.18551  -0.18253  -0.16229
  Beta  occ. eigenvalues --   -0.12958
  Beta virt. eigenvalues --    0.05674   0.06441   0.06712   0.07345   0.07597
  Beta virt. eigenvalues --    0.07914   0.08150   0.08305   0.09133   0.09450
  Beta virt. eigenvalues --    0.09742   0.10159   0.10196   0.10417   0.10700

 Mulliken charges and spin densities:
               1          2
     1  C   -0.017585  -0.576931
     2  C   -0.358306   0.802947
     3  C   -0.293197  -0.412740
     4  C    0.155132   0.299480
     5  C   -0.154157  -0.762487
     6  N   -0.047768   0.047747
     7  C   -0.197542   0.020548
     8  C    0.061998   0.020265
     9  N   -0.089161   0.060175
    10  C    0.348944  -0.023955
    11  O   -0.352032   0.004313
    12  N   -0.386743   0.002440
    13  C   -0.048723  -0.142392
    14  O   -0.353377   0.009170
    15  C   -0.008050  -0.345616
    16  C    0.055693  -0.273320
    17  O   -0.305015   0.093643
    18  C    1.309808  -1.552545
    19  N   -0.252779  -0.028131
    20  C    0.037669  -0.538085
    21  H    0.101267   0.040410
    22  H   -0.220618   0.377934
    23  H   -0.048387   0.178317
    24  H   -0.006897   0.157004
    25  H   -0.087337   0.246482
    26  H    0.148228   0.058671
    27  H    0.211469  -0.025685
    28  H    0.126853   0.023684
    29  H    0.220210   0.041449
    30  H    0.350952   0.003616
    31  H    0.049912   0.172497
    32  H    0.106941   0.120882
    33  H   -0.305699   0.463835
    34  H    0.091180   0.095771
    35  H   -0.512010   0.654375
    36  H   -0.269625   0.404335
    37  H   -0.687413   0.843115
    38  H    0.203846   0.111517
    39  H    0.440976  -0.101022
    40  H   -0.012567   0.150238
    41  H   -0.123198   0.248750
    42  H    0.117108   0.029298
 Sum of Mulliken charges =  -1.00000   1.00000

 Dipole moment (field-independent basis, Debye):
    X=              1.9521    Y=             -6.6022    Z=             -2.6805  Tot=              7.3881
 Quadrupole moment (field-independent basis, Debye-Ang):
   XX=           -209.4802   YY=           -202.0431   ZZ=           -151.2951
   XY=             11.7208   XZ=              4.4305   YZ=             -5.3707

 Summary of Natural Population Analysis:

                                       Natural Population
                Natural  -----------------------------------------------
    Atom  No    Charge         Core      Valence    Rydberg      Total
 -----------------------------------------------------------------------
      C    1   -0.28303      0.99962     2.27668    0.00673     3.28303
      C    2   -0.04325      0.99956     2.03218    0.01151     3.04325
      C    3   -0.19231      0.99957     2.18370    0.00903     3.19231
      C    4   -0.11180      0.99954     2.10279    0.00946     3.11180
      C    5   -0.08896      0.99959     2.07849    0.01088     3.08896
      N    6   -0.34255      0.99973     2.83211    0.01071     3.84255
      C    7   -0.04261      0.99939     2.03163    0.01159     3.04261
      C    8    0.23739      0.99948     1.74996    0.01317     2.76261
      N    9   -0.24357      0.99960     2.73524    0.00874     3.74357
      C   10    0.41260      0.99969     1.56583    0.02189     2.58740
      O   11   -0.32919      0.99988     3.32431    0.00501     4.32919
      N   12   -0.31791      0.99965     2.81127    0.00700     3.81791
      C   13    0.31759      0.99959     1.66068    0.02215     2.68241
      O   14   -0.32862      0.99988     3.32283    0.00591     4.32862
      C   15   -0.10127      0.99960     2.08994    0.01173     3.10127
      C   16   -0.01091      0.99957     1.99973    0.01161     3.01091
      O   17   -0.31172      0.99988     3.30008    0.01176     4.31172
      C   18   -0.09443      0.99962     2.08566    0.00915     3.09443
      N   19   -0.39909      0.99969     2.89134    0.00806     3.89909
      C   20   -0.27724      0.99962     2.27283    0.00479     3.27724
      H   21    0.10305      0.00000     0.39524    0.00170     0.39695
      H   22    0.10106      0.00000     0.39796    0.00098     0.39894
      H   23    0.09827      0.00000     0.40050    0.00123     0.40173
      H   24    0.10087      0.00000     0.39828    0.00084     0.39913
      H   25    0.10371      0.00000     0.39526    0.00103     0.39629
      H   26    0.09976      0.00000     0.39917    0.00106     0.40024
      H   27    0.09566      0.00000     0.40310    0.00124     0.40434
      H   28    0.09316      0.00000     0.40497    0.00187     0.40684
      H   29    0.18045      0.00000     0.31719    0.00236     0.31955
      H   30    0.20333      0.00000     0.29364    0.00303     0.29667
      H   31    0.10822      0.00000     0.39036    0.00142     0.39178
      H   32    0.11826      0.00000     0.38068    0.00106     0.38174
      H   33    0.08754      0.00000     0.41065    0.00181     0.41246
      H   34    0.08799      0.00000     0.41054    0.00147     0.41201
      H   35    0.08324      0.00000     0.41347    0.00329     0.41676
      H   36    0.08080      0.00000     0.41738    0.00182     0.41920
      H   37    0.09707      0.00000     0.39987    0.00305     0.40293
      H   38    0.20851      0.00000     0.28862    0.00287     0.29149
      H   39    0.20443      0.00000     0.29356    0.00201     0.29557
      H   40    0.09869      0.00000     0.40034    0.00097     0.40131
      H   41    0.09800      0.00000     0.40106    0.00094     0.40200
      H   42    0.09881      0.00000     0.40025    0.00094     0.40119
 =======================================================================
   * Total *   -0.00000     19.99275    55.75936    0.24790    76.00000

 Normal termination of Gaussian 16 at Sat Dec 12 16:58:09 2020.
