 Gaussian 16, Revision A.03,

 -----------------------------------------------------------
 # opt freq B3LYP/6-31G(d) empiricaldispersion=gd3bj scf=xqc
 -----------------------------------------------------------

 -------------------------------
 CID_117568989_JID_6724_neutraal
 -------------------------------
 Symbolic Z-matrix:
 Charge =  0 Multiplicity = 1

 SCF Done:  E(RB3LYP) =  -710.857368875     A.U. after   15 cycles
 SCF Done:  E(RB3LYP) =  -710.861212572     A.U. after   12 cycles
 SCF Done:  E(RB3LYP) =  -710.861839356     A.U. after   12 cycles
 SCF Done:  E(RB3LYP) =  -710.862207984     A.U. after   12 cycles
 SCF Done:  E(RB3LYP) =  -710.862790102     A.U. after   12 cycles
 SCF Done:  E(RB3LYP) =  -710.863990754     A.U. after   13 cycles
 SCF Done:  E(RB3LYP) =  -710.864080009     A.U. after   15 cycles
 SCF Done:  E(RB3LYP) =  -710.865834247     A.U. after   13 cycles
 SCF Done:  E(RB3LYP) =  -710.866775012     A.U. after   12 cycles
 SCF Done:  E(RB3LYP) =  -710.867457654     A.U. after   13 cycles
 SCF Done:  E(RB3LYP) =  -710.867821179     A.U. after   10 cycles
 SCF Done:  E(RB3LYP) =  -710.867823291     A.U. after    9 cycles
 SCF Done:  E(RB3LYP) =  -710.867823817     A.U. after    8 cycles
 SCF Done:  E(RB3LYP) =  -710.867824008     A.U. after    8 cycles
 SCF Done:  E(RB3LYP) =  -710.867824072     A.U. after    7 cycles
 Optimization completed.
    -- Stationary point found.
 Normal termination of Gaussian 16 at Fri Dec 11 00:31:41 2020.

 --------------------------------------------------------------------
 #N Geom=AllCheck Guess=TCheck SCRF=Check GenChk RB3LYP/6-31G(d) Freq
 --------------------------------------------------------------------

 Structure from the checkpoint file:  "JID_6724.chk"
 -------------------------------
 CID_117568989_JID_6724_neutraal
 -------------------------------
 Charge =  0 Multiplicity = 1

 SCF Done:  E(RB3LYP) =  -710.867824072     A.U. after    1 cycles

  Exact polarizability: 186.996   0.485 151.435  16.890  -8.433  97.316
 Approx polarizability: 257.793   7.053 240.468  33.028 -22.486 149.938

                      1                      2                      3
                      A                      A                      A
 Frequencies --     23.0987                29.9434                50.8224
 Red. masses --      4.5881                 4.6350                 5.5225
 Frc consts  --      0.0014                 0.0024                 0.0084
 IR Inten    --      0.2895                 0.2343                 0.4248

                      4                      5                      6
                      A                      A                      A
 Frequencies --     60.6194               106.4861               127.1764
 Red. masses --      5.9445                 2.9184                 4.2486
 Frc consts  --      0.0129                 0.0195                 0.0405
 IR Inten    --      0.8707                 0.1447                 0.0460

                      7                      8                      9
                      A                      A                      A
 Frequencies --    131.4986               170.8123               212.3013
 Red. masses --      4.0626                 3.7967                 1.1638
 Frc consts  --      0.0414                 0.0653                 0.0309
 IR Inten    --      0.5944                 0.5047                 0.0550

                     10                     11                     12
                      A                      A                      A
 Frequencies --    230.6100               259.3166               283.6060
 Red. masses --      3.7007                 2.7129                 2.6336
 Frc consts  --      0.1160                 0.1075                 0.1248
 IR Inten    --      1.0168                 0.6677                 0.1721

                     13                     14                     15
                      A                      A                      A
 Frequencies --    318.5718               346.5660               411.4398
 Red. masses --      3.4369                 3.3740                 1.9976
 Frc consts  --      0.2055                 0.2388                 0.1992
 IR Inten    --      3.0968                 0.9622                 2.7434

                     16                     17                     18
                      A                      A                      A
 Frequencies --    413.1756               475.1738               479.9185
 Red. masses --      3.2280                 3.1601                 3.1751
 Frc consts  --      0.3247                 0.4204                 0.4309
 IR Inten    --      4.7007                41.0091                 3.1719

                     19                     20                     21
                      A                      A                      A
 Frequencies --    504.2210               545.0320               578.0524
 Red. masses --      4.0005                 3.9052                 3.1658
 Frc consts  --      0.5992                 0.6835                 0.6233
 IR Inten    --     10.9512                10.3459                20.7960

                     22                     23                     24
                      A                      A                      A
 Frequencies --    582.3876               590.4349               622.0098
 Red. masses --      2.7380                 2.3336                 1.6765
 Frc consts  --      0.5471                 0.4793                 0.3822
 IR Inten    --     29.5889                40.8188                80.8402

                     25                     26                     27
                      A                      A                      A
 Frequencies --    638.8276               751.8724               759.9763
 Red. masses --      1.9989                 2.3852                 2.9384
 Frc consts  --      0.4806                 0.7944                 0.9999
 IR Inten    --     18.6233                 8.3283                12.0582

                     28                     29                     30
                      A                      A                      A
 Frequencies --    762.5389               766.3130               804.4966
 Red. masses --      1.6147                 3.0881                 3.2878
 Frc consts  --      0.5532                 1.0685                 1.2537
 IR Inten    --     36.8797                16.3969                12.2633

                     31                     32                     33
                      A                      A                      A
 Frequencies --    805.3273               820.9273               841.8668
 Red. masses --      1.3018                 2.5506                 2.7615
 Frc consts  --      0.4974                 1.0128                 1.1532
 IR Inten    --      0.1577                20.3552                 2.0360

                     34                     35                     36
                      A                      A                      A
 Frequencies --    858.2744               892.2452               921.3656
 Red. masses --      1.4766                 1.7200                 1.9342
 Frc consts  --      0.6409                 0.8067                 0.9674
 IR Inten    --      1.4327                21.1702                23.8425

                     37                     38                     39
                      A                      A                      A
 Frequencies --    930.4957               963.9633               973.9840
 Red. masses --      1.3453                 1.2331                 2.1845
 Frc consts  --      0.6863                 0.6751                 1.2210
 IR Inten    --      1.7166                 0.0191                11.6053

                     40                     41                     42
                      A                      A                      A
 Frequencies --    976.5451              1020.3487              1060.4647
 Red. masses --      2.3142                 2.9135                 1.9835
 Frc consts  --      1.3003                 1.7872                 1.3142
 IR Inten    --      2.9105                40.6861                13.2014

                     43                     44                     45
                      A                      A                      A
 Frequencies --   1067.0983              1085.7982              1090.2440
 Red. masses --      1.6644                 1.9478                 1.5313
 Frc consts  --      1.1166                 1.3530                 1.0724
 IR Inten    --     52.2513                 2.2725                34.6454

                     46                     47                     48
                      A                      A                      A
 Frequencies --   1096.3666              1106.6657              1145.6163
 Red. masses --      1.8817                 2.3247                 1.3043
 Frc consts  --      1.3326                 1.6775                 1.0086
 IR Inten    --     21.9056                17.5840                 0.3884

                     49                     50                     51
                      A                      A                      A
 Frequencies --   1161.0402              1189.8576              1200.6797
 Red. masses --      1.4495                 1.4589                 1.3040
 Frc consts  --      1.1513                 1.2169                 1.1076
 IR Inten    --      7.5898                31.7344                24.0253

                     52                     53                     54
                      A                      A                      A
 Frequencies --   1219.5752              1225.5761              1248.5664
 Red. masses --      2.0281                 1.7772                 1.5184
 Frc consts  --      1.7773                 1.5727                 1.3946
 IR Inten    --      2.4443                77.9548                32.8274

                     55                     56                     57
                      A                      A                      A
 Frequencies --   1283.3973              1289.2528              1305.6645
 Red. masses --      1.4316                 1.3885                 2.4278
 Frc consts  --      1.3893                 1.3598                 2.4385
 IR Inten    --     10.4075                13.8331                65.6157

                     58                     59                     60
                      A                      A                      A
 Frequencies --   1347.2332              1358.4910              1374.8343
 Red. masses --      1.3852                 1.5196                 1.8143
 Frc consts  --      1.4813                 1.6523                 2.0205
 IR Inten    --     29.3444                11.7534                 7.3059

                     61                     62                     63
                      A                      A                      A
 Frequencies --   1377.0558              1390.3412              1413.6616
 Red. masses --      2.1655                 1.4847                 2.2713
 Frc consts  --      2.4194                 1.6909                 2.6743
 IR Inten    --     15.2930                15.4141                31.8372

                     64                     65                     66
                      A                      A                      A
 Frequencies --   1438.8671              1454.5170              1498.0214
 Red. masses --      1.2167                 1.5995                 1.6734
 Frc consts  --      1.4841                 1.9937                 2.2125
 IR Inten    --      1.1585                 5.2663                14.1542

                     67                     68                     69
                      A                      A                      A
 Frequencies --   1510.3108              1513.5611              1525.5370
 Red. masses --      1.8088                 1.3078                 1.0464
 Frc consts  --      2.4309                 1.7652                 1.4347
 IR Inten    --     26.9851                 2.9367                 3.2576

                     70                     71                     72
                      A                      A                      A
 Frequencies --   1536.2837              1538.5747              1544.5134
 Red. masses --      1.1507                 1.1271                 1.1997
 Frc consts  --      1.6001                 1.5719                 1.6863
 IR Inten    --      5.4066                 6.8076                24.5785

                     73                     74                     75
                      A                      A                      A
 Frequencies --   1568.4056              1647.7702              1669.2720
 Red. masses --      1.8438                 4.3722                 5.7720
 Frc consts  --      2.6722                 6.9943                 9.4762
 IR Inten    --    109.7039                36.0765                52.2828

                     76                     77                     78
                      A                      A                      A
 Frequencies --   1839.7264              3032.7698              3046.7461
 Red. masses --      9.2609                 1.0675                 1.0357
 Frc consts  --     18.4676                 5.7848                 5.6643
 IR Inten    --    395.3411                31.3787                27.3979

                     79                     80                     81
                      A                      A                      A
 Frequencies --   3079.7113              3080.0656              3111.9243
 Red. masses --      1.0692                 1.0945                 1.1016
 Frc consts  --      5.9751                 6.1179                 6.2852
 IR Inten    --     26.6813                 7.8740                59.4756

                     82                     83                     84
                      A                      A                      A
 Frequencies --   3124.4360              3145.2849              3155.2631
 Red. masses --      1.1029                 1.0958                 1.0543
 Frc consts  --      6.3433                 6.3869                 6.1842
 IR Inten    --     28.8653                 3.0889                 8.1562

                     85                     86                     87
                      A                      A                      A
 Frequencies --   3170.6289              3174.3166              3185.5100
 Red. masses --      1.0875                 1.0891                 1.0874
 Frc consts  --      6.4415                 6.4656                 6.5015
 IR Inten    --     17.5483                 7.6545                10.4712

                     88                     89                     90
                      A                      A                      A
 Frequencies --   3206.4751              3208.6369              3215.3061
 Red. masses --      1.0925                 1.0907                 1.0945
 Frc consts  --      6.6179                 6.6159                 6.6665
 IR Inten    --     37.1583                 3.0066                16.9423

                     91                     92                     93
                      A                      A                      A
 Frequencies --   3239.6725              3615.1636              3692.6470
 Red. masses --      1.1171                 1.0744                 1.0642
 Frc consts  --      6.9078                 8.2730                 8.5493
 IR Inten    --      5.5144                 7.4381                65.5151

 - Thermochemistry -
 -------------------
 Temperature   298.150 Kelvin.  Pressure   1.00000 Atm.
 Atom     1 has atomic number  6 and mass  12.00000

 Molecular mass:   219.12593 amu.
 Principal axes and moments of inertia in atomic units:
                           1         2         3
     Eigenvalues --  1752.715497016.689277948.95106
           X            0.99998   0.00500   0.00330
           Y           -0.00502   0.99997   0.00661
           Z           -0.00327  -0.00663   0.99997
 This molecule is an asymmetric top.
 Rotational symmetry number  1.
 Warning -- assumption of classical behavior for rotation
           may cause significant error
 Rotational temperatures (Kelvin)      0.04942     0.01234     0.01090
 Rotational constants (GHZ):           1.02968     0.25721     0.22704
 Zero-point vibrational energy     740787.8 (Joules/Mol)
                                  177.05252 (Kcal/Mol)
 Warning -- explicit consideration of  23 degrees of freedom as
           vibrations may cause significant error
 Vibrational temperatures:     33.23    43.08    73.12    87.22   153.21
          (Kelvin)            182.98   189.20   245.76   305.45   331.80
                              373.10   408.05   458.35   498.63   591.97
                              594.47   683.67   690.50   725.46   784.18
                              831.69   837.93   849.50   894.93   919.13
                             1081.78  1093.44  1097.12  1102.55  1157.49
                             1158.69  1181.13  1211.26  1234.87  1283.74
                             1325.64  1338.78  1386.93  1401.35  1405.03
                             1468.05  1525.77  1535.32  1562.22  1568.62
                             1577.43  1592.25  1648.29  1670.48  1711.94
                             1727.51  1754.70  1763.33  1796.41  1846.52
                             1854.95  1878.56  1938.37  1954.57  1978.08
                             1981.28  2000.39  2033.94  2070.21  2092.73
                             2155.32  2173.00  2177.68  2194.91  2210.37
                             2213.67  2222.21  2256.59  2370.77  2401.71
                             2646.96  4363.48  4383.59  4431.02  4431.53
                             4477.36  4495.37  4525.36  4539.72  4561.83
                             4567.13  4583.24  4613.40  4616.51  4626.11
                             4661.17  5201.41  5312.90

 Zero-point correction=                           0.282151 (Hartree/Particle)
 Thermal correction to Energy=                    0.297557
 Thermal correction to Enthalpy=                  0.298501
 Thermal correction to Gibbs Free Energy=         0.237640
 Sum of electronic and zero-point Energies=           -710.585673
 Sum of electronic and thermal Energies=              -710.570267
 Sum of electronic and thermal Enthalpies=            -710.569323
 Sum of electronic and thermal Free Energies=         -710.630184

                     E (Thermal)             CV                S
                      KCal/Mol        Cal/Mol-Kelvin    Cal/Mol-Kelvin
 Total                  186.720             58.985            128.092
 Electronic               0.000              0.000              0.000
 Translational            0.889              2.981             42.056
 Rotational               0.889              2.981             32.947
 Vibrational            184.942             53.023             53.088
 Vibration     1          0.593              1.985              6.348
 Vibration     2          0.594              1.984              5.833
 Vibration     3          0.595              1.977              4.785
 Vibration     4          0.597              1.973              4.437
 Vibration     5          0.605              1.944              3.332
 Vibration     6          0.611              1.926              2.988
 Vibration     7          0.612              1.922              2.924
 Vibration     8          0.626              1.878              2.427
 Vibration     9          0.643              1.822              2.024
 Vibration    10          0.652              1.794              1.874
 Vibration    11          0.668              1.747              1.666
 Vibration    12          0.682              1.704              1.512
 Vibration    13          0.705              1.638              1.317
 Vibration    14          0.725              1.582              1.182
 Vibration    15          0.775              1.445              0.922
 Vibration    16          0.777              1.442              0.915
 Vibration    17          0.832              1.305              0.723
 Vibration    18          0.836              1.295              0.710
 Vibration    19          0.860              1.241              0.648
 Vibration    20          0.900              1.151              0.555
 Vibration    21          0.935              1.079              0.489
 Vibration    22          0.939              1.069              0.481
 Vibration    23          0.948              1.052              0.466

                           ! Non-Optimized Parameters !
 Normal termination of Gaussian 16 at Fri Dec 11 00:42:28 2020.

 ----------------------------------------------------------------------
 # B3LYP/6-311++G(d,p) empiricaldispersion=gd3bj scf=xqc pop=npa geom=c
 heck
 ----------------------------------------------------------------------

 ---------------------------------------
 CID_117568989_JID_6724_Energie_neutraal
 ---------------------------------------
 Structure from the checkpoint file:  "JID_6724.chk"
 Charge =  0 Multiplicity = 1

 SCF Done:  E(RB3LYP) =  -711.074375088     A.U. after   15 cycles
 Normal termination of Gaussian 16 at Fri Dec 11 00:47:01 2020.

 ----------------------------------------------------------------------
 # B3LYP/6-311++G(d,p) empiricaldispersion=gd3bj scf=xqc pop=npa geom=c
 heck
 ----------------------------------------------------------------------

 -------------------------------------
 CID_117568989_JID_6724_Energie_kation
 -------------------------------------
 Structure from the checkpoint file:  "JID_6724.chk"
 Charge =  1 Multiplicity = 2

 SCF Done:  E(UB3LYP) =  -710.804475452     A.U. after   23 cycles
 Normal termination of Gaussian 16 at Fri Dec 11 00:56:42 2020.
 Gaussian 16:  ES64L-G16RevA.03 25-Dec-2016

 ----------------------------------------------------------------------
 # B3LYP/6-311++G(d,p) empiricaldispersion=gd3bj scf=xqc pop=npa geom=c
 heck
 ----------------------------------------------------------------------

 ------------------------------------
 CID_117568989_JID_6724_Energie_anion
 ------------------------------------
 Structure from the checkpoint file:  "JID_6724.chk"
 Charge = -1 Multiplicity = 2

                         Standard orientation:
 ---------------------------------------------------------------------
 Center     Atomic      Atomic             Coordinates (Angstroms)
 Number     Number       Type             X           Y           Z
 ---------------------------------------------------------------------
      1          6           0        2.107420    2.689780    0.670707
      2          6           0        2.749117    1.901696   -0.486995
      3          6           0        2.696871    0.403693   -0.281485
      4          6           0        3.817371   -0.273709    0.199964
      5          6           0        3.805947   -1.647294    0.445255
      6          6           0        2.636383   -2.361227    0.196793
      7          6           0        1.501304   -1.713034   -0.285953
      8          6           0        1.510712   -0.329693   -0.533545
      9          7           0        0.394445    0.321333   -1.073494
     10          6           0       -0.952918   -0.205351   -0.895628
     11          6           0       -1.387374   -0.225920    0.561004
     12          6           0       -1.981051    0.980292    1.213891
     13          6           0       -2.849335   -0.251626    1.007238
     14          6           0       -3.989538   -0.250906    0.058880
     15          8           0       -4.941894   -0.997623    0.131328
     16          8           0       -3.889958    0.687618   -0.926407
     17          1           0        1.058898    2.407845    0.824592
     18          1           0        2.144070    3.769153    0.484622
     19          1           0        2.635701    2.484046    1.607472
     20          1           0        2.270113    2.176773   -1.436978
     21          1           0        3.796252    2.209437   -0.584155
     22          1           0        4.723140    0.298946    0.388416
     23          1           0        4.693668   -2.146726    0.820917
     24          1           0        2.598010   -3.432112    0.377568
     25          1           0        0.604565   -2.291878   -0.478172
     26          1           0        0.422437    1.323297   -0.948563
     27          1           0       -1.629499    0.415338   -1.485116
     28          1           0       -1.003725   -1.212539   -1.321995
     29          1           0       -0.741912   -0.833454    1.190687
     30          1           0       -1.703054    1.225668    2.234456
     31          1           0       -2.211119    1.835397    0.584843
     32          1           0       -3.066317   -0.869101    1.871858
     33          1           0       -4.686980    0.570426   -1.476102
 ---------------------------------------------------------------------

 SCF Done:  E(UB3LYP) =  -711.063393475     A.U. after   33 cycles
 SCF Done:  E(UB3LYP) =  -711.063393475     a.u. after    1 cycles

 The electronic state is 2-A.
 Alpha  occ. eigenvalues --  -19.07575 -19.02279 -14.22995 -10.21771 -10.12084
 Alpha  occ. eigenvalues --  -10.11457 -10.10908 -10.10541 -10.09439 -10.08269
 Alpha  occ. eigenvalues --  -10.08173 -10.08102 -10.07857 -10.07652 -10.07404
 Alpha  occ. eigenvalues --  -10.06724  -1.01711  -0.92791  -0.84795  -0.78929
 Alpha  occ. eigenvalues --   -0.75433  -0.69627  -0.65361  -0.63513  -0.60899
 Alpha  occ. eigenvalues --   -0.59016  -0.54379  -0.51823  -0.50651  -0.49406
 Alpha  occ. eigenvalues --   -0.48243  -0.43762  -0.42255  -0.41427  -0.39997
 Alpha  occ. eigenvalues --   -0.39106  -0.37914  -0.36236  -0.35351  -0.34240
 Alpha  occ. eigenvalues --   -0.33883  -0.33371  -0.32918  -0.31310  -0.30674
 Alpha  occ. eigenvalues --   -0.29809  -0.28982  -0.27834  -0.27037  -0.26561
 Alpha  occ. eigenvalues --   -0.24918  -0.24126  -0.23939  -0.23031  -0.21979
 Alpha  occ. eigenvalues --   -0.20369  -0.18816  -0.15748  -0.11253   0.04093
 Alpha virt. eigenvalues --    0.05856   0.06384   0.06873   0.07636   0.07964
 Alpha virt. eigenvalues --    0.08141   0.08585   0.08938   0.09287   0.09593
 Alpha virt. eigenvalues --    0.10315   0.10415   0.11044   0.11960   0.12471

  Beta  occ. eigenvalues --  -19.07520 -19.02263 -14.22981 -10.21769 -10.12081
  Beta  occ. eigenvalues --  -10.11443 -10.10895 -10.10539 -10.09408 -10.08260
  Beta  occ. eigenvalues --  -10.08149 -10.08088 -10.07835 -10.07645 -10.07406
  Beta  occ. eigenvalues --  -10.06681  -1.01645  -0.92732  -0.84771  -0.78911
  Beta  occ. eigenvalues --   -0.75403  -0.69585  -0.65332  -0.63466  -0.60858
  Beta  occ. eigenvalues --   -0.58953  -0.54307  -0.51771  -0.50591  -0.49358
  Beta  occ. eigenvalues --   -0.48188  -0.43724  -0.42227  -0.41381  -0.39967
  Beta  occ. eigenvalues --   -0.39070  -0.37883  -0.36201  -0.35317  -0.34205
  Beta  occ. eigenvalues --   -0.33843  -0.33331  -0.32889  -0.31285  -0.30632
  Beta  occ. eigenvalues --   -0.29776  -0.28946  -0.27792  -0.27003  -0.26518
  Beta  occ. eigenvalues --   -0.24888  -0.24092  -0.23895  -0.23002  -0.21950
  Beta  occ. eigenvalues --   -0.20333  -0.18757  -0.15650  -0.11214
  Beta virt. eigenvalues --    0.06079   0.06808   0.06909   0.07641   0.07911
  Beta virt. eigenvalues --    0.08100   0.08470   0.08771   0.09124   0.09588
  Beta virt. eigenvalues --    0.09918   0.10626   0.10732   0.11455   0.12119

 Mulliken charges and spin densities:
               1          2
     1  C    1.082335  -1.605171
     2  C   -0.853046   0.348857
     3  C   -0.248786   0.996507
     4  C    0.258482  -0.658904
     5  C    0.106326  -0.621639
     6  C   -0.053290  -0.298626
     7  C    0.426741  -0.346894
     8  C   -0.694481   0.651114
     9  N    0.110706   0.030308
    10  C    0.030296  -0.889855
    11  C    0.364770  -0.168786
    12  C    0.619317  -1.303601
    13  C   -0.637670   0.922185
    14  C    0.183523  -0.380087
    15  O   -0.297552   0.012802
    16  O   -0.242992   0.037358
    17  H    0.147723  -0.039818
    18  H   -0.491264   0.630441
    19  H   -0.158348   0.297011
    20  H   -0.106713   0.270777
    21  H   -0.225229   0.387948
    22  H   -0.092108   0.236778
    23  H   -0.018087   0.151100
    24  H    0.034538   0.113496
    25  H    0.167627  -0.039256
    26  H    0.159802   0.118839
    27  H    0.163379   0.057122
    28  H   -0.109099   0.285624
    29  H    0.226898  -0.003197
    30  H   -0.275898   0.451458
    31  H   -0.083591   0.291945
    32  H   -0.111727   0.371424
    33  H   -0.382582   0.692739
 Sum of Mulliken charges =  -1.00000   1.00000

 Dipole moment (field-independent basis, Debye):
    X=              3.1691    Y=             -4.7305    Z=              0.9155  Tot=              5.7671
 Quadrupole moment (field-independent basis, Debye-Ang):
   XX=           -191.9434   YY=           -144.8229   ZZ=           -131.1669
   XY=             -7.8106   XZ=             -6.9220   YZ=             -0.0644

 Summary of Natural Population Analysis:

                                       Natural Population
                Natural  -----------------------------------------------
    Atom  No    Charge         Core      Valence    Rydberg      Total
 -----------------------------------------------------------------------
      C    1   -0.28179      0.99966     2.27704    0.00509     3.28179
      C    2   -0.20324      0.99961     2.19425    0.00937     3.20324
      C    3   -0.03208      0.99948     2.02207    0.01053     3.03208
      C    4   -0.09075      0.99952     2.08147    0.00976     3.09075
      C    5   -0.12572      0.99956     2.11617    0.00999     3.12572
      C    6   -0.09397      0.99957     2.08489    0.00951     3.09397
      C    7   -0.13183      0.99953     2.12465    0.00764     3.13183
      C    8    0.09330      0.99944     1.89617    0.01108     2.90670
      N    9   -0.31143      0.99969     2.80137    0.01038     3.81143
      C   10   -0.09307      0.99958     2.08175    0.01174     3.09307
      C   11   -0.10762      0.99957     2.09853    0.00952     3.10762
      C   12   -0.18557      0.99960     2.17556    0.01041     3.18557
      C   13   -0.16085      0.99953     2.15084    0.01049     3.16085
      C   14    0.40211      0.99966     1.57317    0.02506     2.59789
      O   15   -0.30746      0.99987     3.30161    0.00598     4.30746
      O   16   -0.35058      0.99988     3.34328    0.00742     4.35058
      H   17    0.09517      0.00000     0.40317    0.00165     0.40483
      H   18    0.10140      0.00000     0.39678    0.00181     0.39860
      H   19    0.09874      0.00000     0.40007    0.00119     0.40126
      H   20    0.09972      0.00000     0.39887    0.00141     0.40028
      H   21    0.10242      0.00000     0.39627    0.00132     0.39758
      H   22    0.09839      0.00000     0.40062    0.00099     0.40161
      H   23    0.09802      0.00000     0.40120    0.00078     0.40198
      H   24    0.09706      0.00000     0.40217    0.00077     0.40294
      H   25    0.10009      0.00000     0.39847    0.00144     0.39991
      H   26    0.18817      0.00000     0.30835    0.00348     0.31183
      H   27    0.11290      0.00000     0.38539    0.00171     0.38710
      H   28    0.09514      0.00000     0.40352    0.00134     0.40486
      H   29    0.11027      0.00000     0.38829    0.00144     0.38973
      H   30    0.10792      0.00000     0.39101    0.00107     0.39208
      H   31    0.11311      0.00000     0.38497    0.00192     0.38689
      H   32    0.11584      0.00000     0.38328    0.00087     0.38416
      H   33    0.24619      0.00000     0.23874    0.01507     0.25381
 =======================================================================
   * Total *    0.00000     15.99376    42.80399    0.20225    59.00000

 Normal termination of Gaussian 16 at Fri Dec 11 01:10:26 2020.
