 Gaussian 16, Revision A.03,

 -----------------------------------------------------------
 # opt freq B3LYP/6-31G(d) empiricaldispersion=gd3bj scf=xqc
 -----------------------------------------------------------

 -------------------------------
 CID_116366978_JID_3977_neutraal
 -------------------------------
 Symbolic Z-matrix:
 Charge =  0 Multiplicity = 1

 SCF Done:  E(RB3LYP) =  -576.617301184     A.U. after   14 cycles
 SCF Done:  E(RB3LYP) =  -576.624038763     A.U. after   12 cycles
 SCF Done:  E(RB3LYP) =  -576.624087063     A.U. after   12 cycles
 SCF Done:  E(RB3LYP) =  -576.625369362     A.U. after   12 cycles
 SCF Done:  E(RB3LYP) =  -576.625528572     A.U. after   12 cycles
 SCF Done:  E(RB3LYP) =  -576.626054003     A.U. after   11 cycles
 SCF Done:  E(RB3LYP) =  -576.626468880     A.U. after   11 cycles
 SCF Done:  E(RB3LYP) =  -576.626706353     A.U. after   12 cycles
 SCF Done:  E(RB3LYP) =  -576.627048911     A.U. after   11 cycles
 SCF Done:  E(RB3LYP) =  -576.627383359     A.U. after   12 cycles
 SCF Done:  E(RB3LYP) =  -576.635335273     A.U. after   10 cycles
 SCF Done:  E(RB3LYP) =  -576.635340530     A.U. after    8 cycles
 SCF Done:  E(RB3LYP) =  -576.635344461     A.U. after    8 cycles
 SCF Done:  E(RB3LYP) =  -576.635345638     A.U. after    8 cycles
 SCF Done:  E(RB3LYP) =  -576.635346036     A.U. after    7 cycles
 SCF Done:  E(RB3LYP) =  -576.635346166     A.U. after    7 cycles
 Optimization completed.
    -- Stationary point found.
 Normal termination of Gaussian 16 at Sun Dec 13 20:21:22 2020.

 --------------------------------------------------------------------
 #N Geom=AllCheck Guess=TCheck SCRF=Check GenChk RB3LYP/6-31G(d) Freq
 --------------------------------------------------------------------

 Structure from the checkpoint file:  "JID_3977.chk"
 -------------------------------
 CID_116366978_JID_3977_neutraal
 -------------------------------
 Charge =  0 Multiplicity = 1

 SCF Done:  E(RB3LYP) =  -576.635346166     A.U. after    1 cycles

  Exact polarizability: 139.039   0.319 111.848  -1.763  -0.150  99.799
 Approx polarizability: 176.439   6.310 165.833  -4.126  -3.298 146.005

                      1                      2                      3
                      A                      A                      A
 Frequencies --     32.4493                57.4128                72.3870
 Red. masses --      3.3763                 4.0306                 2.6673
 Frc consts  --      0.0021                 0.0078                 0.0082
 IR Inten    --      1.0349                 1.1503                 0.0996

                      4                      5                      6
                      A                      A                      A
 Frequencies --    124.6568               129.9245               173.0300
 Red. masses --      4.0556                 3.1675                 2.3549
 Frc consts  --      0.0371                 0.0315                 0.0415
 IR Inten    --      0.8781                 2.6857                 1.1464

                      7                      8                      9
                      A                      A                      A
 Frequencies --    183.8223               218.0958               226.4882
 Red. masses --      2.8819                 3.0718                 1.2796
 Frc consts  --      0.0574                 0.0861                 0.0387
 IR Inten    --      1.1504                 1.5448                 1.8369

                     10                     11                     12
                      A                      A                      A
 Frequencies --    266.4237               285.5930               320.5928
 Red. masses --      1.2647                 2.9401                 2.1583
 Frc consts  --      0.0529                 0.1413                 0.1307
 IR Inten    --     29.9354                 3.6518                 8.5452

                     13                     14                     15
                      A                      A                      A
 Frequencies --    357.3329               378.7111               408.4490
 Red. masses --      2.3735                 2.9736                 3.1406
 Frc consts  --      0.1786                 0.2513                 0.3087
 IR Inten    --      4.3481                 7.0558                 9.3562

                     16                     17                     18
                      A                      A                      A
 Frequencies --    423.7073               454.3315               522.5438
 Red. masses --      2.6608                 3.7970                 3.5298
 Frc consts  --      0.2814                 0.4618                 0.5679
 IR Inten    --      3.3641                 6.8188                13.7265

                     19                     20                     21
                      A                      A                      A
 Frequencies --    638.4331               681.6274               715.4800
 Red. masses --      3.7905                 2.3083                 1.4830
 Frc consts  --      0.9103                 0.6319                 0.4473
 IR Inten    --      2.8642                 7.0534                22.1460

                     22                     23                     24
                      A                      A                      A
 Frequencies --    722.7644               760.1563               795.2407
 Red. masses --      1.5251                 2.2740                 2.5879
 Frc consts  --      0.4694                 0.7742                 0.9643
 IR Inten    --     24.7420                28.7634                 5.7820

                     25                     26                     27
                      A                      A                      A
 Frequencies --    803.0746               824.0652               845.4958
 Red. masses --      1.3385                 2.1463                 1.8425
 Frc consts  --      0.5086                 0.8588                 0.7760
 IR Inten    --      0.5978                 1.3370                19.0992

                     28                     29                     30
                      A                      A                      A
 Frequencies --    861.5829               874.9369               903.7548
 Red. masses --      1.4124                 1.4891                 2.3816
 Frc consts  --      0.6177                 0.6716                 1.1461
 IR Inten    --     88.1204                19.0070                11.9253

                     31                     32                     33
                      A                      A                      A
 Frequencies --    919.9956               952.1228               961.4603
 Red. masses --      2.1315                 2.6378                 1.2258
 Frc consts  --      1.0629                 1.4089                 0.6676
 IR Inten    --     28.6047                 1.6105                 5.1676

                     34                     35                     36
                      A                      A                      A
 Frequencies --    980.7412               987.9041              1042.8023
 Red. masses --      2.3273                 2.7543                 2.6859
 Frc consts  --      1.3189                 1.5838                 1.7208
 IR Inten    --     28.0201                 4.6176                 5.0518

                     37                     38                     39
                      A                      A                      A
 Frequencies --   1051.9252              1059.6588              1083.1927
 Red. masses --      1.7563                 1.2645                 1.3479
 Frc consts  --      1.1451                 0.8366                 0.9318
 IR Inten    --      8.8812                 2.1331                 1.3564

                     40                     41                     42
                      A                      A                      A
 Frequencies --   1089.5761              1110.0440              1126.4265
 Red. masses --      2.6407                 1.4448                 1.2736
 Frc consts  --      1.8471                 1.0489                 0.9521
 IR Inten    --     13.8264                26.6344                 3.4993

                     43                     44                     45
                      A                      A                      A
 Frequencies --   1157.2564              1194.2265              1212.7734
 Red. masses --      1.3998                 2.2200                 1.6932
 Frc consts  --      1.1045                 1.8654                 1.4673
 IR Inten    --      5.8629                 0.3492                10.1779

                     46                     47                     48
                      A                      A                      A
 Frequencies --   1221.9483              1233.8385              1242.9740
 Red. masses --      1.7079                 1.3193                 1.7798
 Frc consts  --      1.5025                 1.1834                 1.6201
 IR Inten    --      4.2203                 0.7397                 4.6435

                     49                     50                     51
                      A                      A                      A
 Frequencies --   1251.2869              1261.2282              1277.7768
 Red. masses --      1.6974                 1.2192                 1.5758
 Frc consts  --      1.5658                 1.1427                 1.5159
 IR Inten    --      4.1213                 0.5649                 6.9360

                     52                     53                     54
                      A                      A                      A
 Frequencies --   1289.1758              1303.9307              1319.1009
 Red. masses --      1.4941                 1.6025                 1.9304
 Frc consts  --      1.4630                 1.6053                 1.9790
 IR Inten    --      3.0252                18.1902               144.7961

                     55                     56                     57
                      A                      A                      A
 Frequencies --   1368.6860              1412.7231              1440.8947
 Red. masses --      1.4906                 1.3694                 1.4446
 Frc consts  --      1.6452                 1.6103                 1.7671
 IR Inten    --     16.4032                 2.8522                27.0880

                     58                     59                     60
                      A                      A                      A
 Frequencies --   1451.5832              1466.8138              1499.6296
 Red. masses --      1.3914                 1.9577                 1.8043
 Frc consts  --      1.7273                 2.4816                 2.3907
 IR Inten    --      8.9805               133.2257               141.4031

                     61                     62                     63
                      A                      A                      A
 Frequencies --   1506.8928              1512.8468              1514.7394
 Red. masses --      1.3479                 1.0885                 1.0873
 Frc consts  --      1.8033                 1.4678                 1.4699
 IR Inten    --     11.6572                 4.5659                 2.1583

                     64                     65                     66
                      A                      A                      A
 Frequencies --   1529.7719              1532.3974              1538.5233
 Red. masses --      1.1080                 1.0894                 1.0497
 Frc consts  --      1.5277                 1.5072                 1.4640
 IR Inten    --      9.9244                 2.7350                 7.9621

                     67                     68                     69
                      A                      A                      A
 Frequencies --   1541.8515              1692.4909              1748.7593
 Red. masses --      1.1249                 1.0906                 7.3944
 Frc consts  --      1.5756                 1.8407                13.3234
 IR Inten    --      8.6799                36.8169               355.2567

                     70                     71                     72
                      A                      A                      A
 Frequencies --   2983.7436              3045.8118              3064.6943
 Red. masses --      1.0712                 1.0389                 1.0660
 Frc consts  --      5.6189                 5.6783                 5.8993
 IR Inten    --     63.7913                40.5672                41.5292

                     73                     74                     75
                      A                      A                      A
 Frequencies --   3073.2121              3078.5781              3084.8595
 Red. masses --      1.0712                 1.0880                 1.0623
 Frc consts  --      5.9608                 6.0752                 5.9564
 IR Inten    --     13.2493                48.6113                39.7384

                     76                     77                     78
                      A                      A                      A
 Frequencies --   3099.8559              3120.5014              3134.2653
 Red. masses --      1.1021                 1.1059                 1.0884
 Frc consts  --      6.2393                 6.3447                 6.2996
 IR Inten    --     34.7702                 2.1505                11.7131

                     79                     80                     81
                      A                      A                      A
 Frequencies --   3139.0865              3153.2998              3156.2970
 Red. masses --      1.1020                 1.0557                 1.0974
 Frc consts  --      6.3980                 6.1848                 6.4415
 IR Inten    --     38.9218                18.4550                13.1883

                     82                     83                     84
                      A                      A                      A
 Frequencies --   3161.4940              3214.8770              3244.4663
 Red. masses --      1.0979                 1.0888                 1.1163
 Frc consts  --      6.4654                 6.6301                 6.9236
 IR Inten    --     23.1072                12.9203                 5.9081

                     85                     86                     87
                      A                      A                      A
 Frequencies --   3482.0516              3530.5330              3570.3741
 Red. masses --      1.0501                 1.0751                 1.0926
 Frc consts  --      7.5019                 7.8957                 8.2063
 IR Inten    --      0.3045               101.0307                 0.4247

 - Thermochemistry -
 -------------------
 Temperature   298.150 Kelvin.  Pressure   1.00000 Atm.
 Atom     1 has atomic number  6 and mass  12.00000

 Molecular mass:   182.14191 amu.
 Principal axes and moments of inertia in atomic units:
                           1         2         3
     Eigenvalues --  1407.372433485.324714087.01717
           X            0.99995  -0.00759   0.00651
           Y            0.00747   0.99980   0.01862
           Z           -0.00665  -0.01857   0.99981
 This molecule is an asymmetric top.
 Rotational symmetry number  1.
 Warning -- assumption of classical behavior for rotation
           may cause significant error
 Rotational temperatures (Kelvin)      0.06154     0.02485     0.02119
 Rotational constants (GHZ):           1.28235     0.51781     0.44158
 Zero-point vibrational energy     726674.8 (Joules/Mol)
                                  173.67944 (Kcal/Mol)
 Warning -- explicit consideration of  18 degrees of freedom as
           vibrations may cause significant error
 Vibrational temperatures:     46.69    82.60   104.15   179.35   186.93
          (Kelvin)            248.95   264.48   313.79   325.87   383.32
                              410.90   461.26   514.12   544.88   587.67
                              609.62   653.68   751.82   918.56   980.71
                             1029.42  1039.90  1093.70  1144.17  1155.45
                             1185.65  1216.48  1239.63  1258.84  1300.30
                             1323.67  1369.89  1383.33  1411.07  1421.37
                             1500.36  1513.49  1524.61  1558.47  1567.66
                             1597.11  1620.68  1665.03  1718.23  1744.91
                             1758.11  1775.22  1788.36  1800.32  1814.63
                             1838.44  1854.84  1876.07  1897.89  1969.23
                             2032.59  2073.13  2088.50  2110.42  2157.63
                             2168.08  2176.65  2179.37  2201.00  2204.78
                             2213.59  2218.38  2435.12  2516.07  4292.94
                             4382.24  4409.41  4421.67  4429.39  4438.42
                             4460.00  4489.71  4509.51  4516.45  4536.90
                             4541.21  4548.68  4625.49  4668.06  5009.90
                             5079.65  5136.97

 Zero-point correction=                           0.276776 (Hartree/Particle)
 Thermal correction to Energy=                    0.290417
 Thermal correction to Enthalpy=                  0.291361
 Thermal correction to Gibbs Free Energy=         0.236288
 Sum of electronic and zero-point Energies=           -576.358570
 Sum of electronic and thermal Energies=              -576.344929
 Sum of electronic and thermal Enthalpies=            -576.343985
 Sum of electronic and thermal Free Energies=         -576.399058

                     E (Thermal)             CV                S
                      KCal/Mol        Cal/Mol-Kelvin    Cal/Mol-Kelvin
 Total                  182.239             52.302            115.910
 Electronic               0.000              0.000              0.000
 Translational            0.889              2.981             41.505
 Rotational               0.889              2.981             31.372
 Vibrational            180.462             46.341             43.033
 Vibration     1          0.594              1.983              5.674
 Vibration     2          0.596              1.975              4.544
 Vibration     3          0.598              1.967              4.087
 Vibration     4          0.610              1.928              3.027
 Vibration     5          0.612              1.923              2.947
 Vibration     6          0.627              1.876              2.402
 Vibration     7          0.631              1.862              2.289
 Vibration     8          0.646              1.814              1.975
 Vibration     9          0.650              1.801              1.907
 Vibration    10          0.672              1.735              1.619
 Vibration    11          0.683              1.700              1.500
 Vibration    12          0.706              1.634              1.307
 Vibration    13          0.732              1.560              1.134
 Vibration    14          0.749              1.516              1.044
 Vibration    15          0.773              1.452              0.932
 Vibration    16          0.786              1.419              0.879
 Vibration    17          0.813              1.351              0.783
 Vibration    18          0.878              1.200              0.604

 Optimization completed.
    -- Stationary point found.
 Normal termination of Gaussian 16 at Sun Dec 13 20:30:19 2020.

 ----------------------------------------------------------------------
 # B3LYP/6-311++G(d,p) empiricaldispersion=gd3bj scf=xqc pop=npa geom=c
 heck
 ----------------------------------------------------------------------

 ---------------------------------------
 CID_116366978_JID_3977_Energie_neutraal
 ---------------------------------------
 Structure from the checkpoint file:  "JID_3977.chk"
 Charge =  0 Multiplicity = 1

 SCF Done:  E(RB3LYP) =  -576.806961083     A.U. after   14 cycles
 Normal termination of Gaussian 16 at Sun Dec 13 20:34:21 2020.

 ----------------------------------------------------------------------
 # B3LYP/6-311++G(d,p) empiricaldispersion=gd3bj scf=xqc pop=npa geom=c
 heck
 ----------------------------------------------------------------------

 -------------------------------------
 CID_116366978_JID_3977_Energie_kation
 -------------------------------------
 Structure from the checkpoint file:  "JID_3977.chk"
 Charge =  1 Multiplicity = 2

 SCF Done:  E(UB3LYP) =  -576.497122824     A.U. after   26 cycles
 Normal termination of Gaussian 16 at Sun Dec 13 20:44:51 2020.
 Gaussian 16:  ES64L-G16RevA.03 25-Dec-2016

 ----------------------------------------------------------------------
 # B3LYP/6-311++G(d,p) empiricaldispersion=gd3bj scf=xqc pop=npa geom=c
 heck
 ----------------------------------------------------------------------

 ------------------------------------
 CID_116366978_JID_3977_Energie_anion
 ------------------------------------
 Structure from the checkpoint file:  "JID_3977.chk"
 Charge = -1 Multiplicity = 2

                         Standard orientation:
 ---------------------------------------------------------------------
 Center     Atomic      Atomic             Coordinates (Angstroms)
 Number     Number       Type             X           Y           Z
 ---------------------------------------------------------------------
      1          6           0       -3.248815   -0.159950   -1.403620
      2          6           0       -2.769090    0.739724   -0.286369
      3          6           0       -2.937011    0.360017    1.152085
      4          6           0       -1.543753    0.384131    0.564532
      5          6           0       -0.862648   -0.933637    0.345855
      6          8           0       -1.477406   -1.996830    0.441153
      7          7           0        0.463599   -0.945296    0.001710
      8          6           0        1.442175    0.111304   -0.144004
      9          6           0        1.089487    1.381871   -0.975817
     10          6           0        1.709946    2.266450    0.140919
     11          6           0        1.764926    1.033292    1.082076
     12          6           0        2.709741   -0.544702   -0.713166
     13          7           0        3.093470   -1.714722    0.077556
     14          1           0       -2.701754    0.040325   -2.333079
     15          1           0       -4.314669    0.009957   -1.597286
     16          1           0       -3.106713   -1.211156   -1.143156
     17          1           0       -2.843408    1.804566   -0.504189
     18          1           0       -3.190653    1.128308    1.876866
     19          1           0       -3.326234   -0.631416    1.361401
     20          1           0       -0.915166    1.221312    0.841426
     21          1           0        0.868171   -1.878221    0.009505
     22          1           0        1.560086    1.431990   -1.963947
     23          1           0        0.016359    1.525116   -1.101879
     24          1           0        1.098030    3.104766    0.485236
     25          1           0        2.699614    2.651740   -0.119822
     26          1           0        0.969553    1.022052    1.830256
     27          1           0        2.714739    0.842551    1.595062
     28          1           0        2.488710   -0.889347   -1.730470
     29          1           0        3.490453    0.230293   -0.792899
     30          1           0        3.860013   -2.210982   -0.369927
     31          1           0        3.422886   -1.428100    0.997879
 ---------------------------------------------------------------------

 SCF Done:  E(UB3LYP) =  -576.796924883     A.U. after   32 cycles

 The electronic state is 2-A.
 Alpha  occ. eigenvalues --  -18.98110 -14.22460 -14.19696 -10.17141 -10.11942
 Alpha  occ. eigenvalues --  -10.09628 -10.09627 -10.08940 -10.07981 -10.07004
 Alpha  occ. eigenvalues --  -10.06995 -10.06910 -10.06742  -0.93311  -0.83021
 Alpha  occ. eigenvalues --   -0.77945  -0.77406  -0.73340  -0.62724  -0.60924
 Alpha  occ. eigenvalues --   -0.57089  -0.55544  -0.52399  -0.48965  -0.47381
 Alpha  occ. eigenvalues --   -0.43306  -0.42078  -0.41156  -0.39503  -0.37077
 Alpha  occ. eigenvalues --   -0.37021  -0.34215  -0.33697  -0.33275  -0.32117
 Alpha  occ. eigenvalues --   -0.30773  -0.30193  -0.29696  -0.28253  -0.27908
 Alpha  occ. eigenvalues --   -0.26617  -0.25463  -0.23625  -0.22196  -0.21338
 Alpha  occ. eigenvalues --   -0.20378  -0.19299  -0.15710  -0.15521  -0.14224
 Alpha  occ. eigenvalues --    0.04189
 Alpha virt. eigenvalues --    0.05887   0.07397   0.07671   0.08595   0.08819
 Alpha virt. eigenvalues --    0.09356   0.10035   0.10440   0.11111   0.11617
 Alpha virt. eigenvalues --    0.12001   0.12124   0.12699   0.12828   0.13955

  Beta  occ. eigenvalues --  -18.98109 -14.22455 -14.19644 -10.17141 -10.11944
  Beta  occ. eigenvalues --  -10.09617 -10.09595 -10.08930 -10.07972 -10.06998
  Beta  occ. eigenvalues --  -10.06987 -10.06881 -10.06710  -0.93308  -0.83002
  Beta  occ. eigenvalues --   -0.77875  -0.77375  -0.73315  -0.62707  -0.60863
  Beta  occ. eigenvalues --   -0.57040  -0.55509  -0.52320  -0.48937  -0.47333
  Beta  occ. eigenvalues --   -0.43268  -0.42040  -0.41118  -0.39448  -0.37041
  Beta  occ. eigenvalues --   -0.36963  -0.34159  -0.33654  -0.33256  -0.32093
  Beta  occ. eigenvalues --   -0.30751  -0.30170  -0.29666  -0.28229  -0.27884
  Beta  occ. eigenvalues --   -0.26595  -0.25432  -0.23591  -0.22161  -0.21304
  Beta  occ. eigenvalues --   -0.20358  -0.19284  -0.15686  -0.15494  -0.14202
  Beta virt. eigenvalues --    0.06368   0.07307   0.07764   0.08181   0.09208
  Beta virt. eigenvalues --    0.09327   0.09742   0.10534   0.10734   0.11189
  Beta virt. eigenvalues --    0.11841   0.12345   0.12457   0.12901   0.13138

 Mulliken charges and spin densities:
               1          2
     1  C   -0.210281  -0.413208
     2  C    0.090587  -0.081416
     3  C    0.113097  -0.745297
     4  C    0.176119   0.312316
     5  C   -0.562431   0.257338
     6  O   -0.331106  -0.006044
     7  N   -0.055757  -0.008325
     8  C   -0.246217   0.152258
     9  C   -0.643171   0.406359
    10  C    1.625332  -2.095654
    11  C   -0.951368   0.843178
    12  C    1.563705  -2.264686
    13  N   -0.593698   0.242872
    14  H    0.082369   0.048299
    15  H    0.027785   0.105545
    16  H    0.140715   0.039124
    17  H   -0.258366   0.443382
    18  H   -0.151750   0.308345
    19  H    0.186083  -0.016918
    20  H    0.755421  -0.457930
    21  H    0.340672   0.016981
    22  H   -0.201100   0.363458
    23  H    0.231829  -0.055692
    24  H   -0.463346   0.600543
    25  H   -0.025718   0.177516
    26  H   -0.078270   0.237490
    27  H   -0.749993   0.918112
    28  H   -0.032825   0.232055
    29  H   -0.527478   0.709605
    30  H   -0.268096   0.527124
    31  H    0.017260   0.203270
 Sum of Mulliken charges =  -1.00000   1.00000

 Dipole moment (field-independent basis, Debye):
    X=             -6.3791    Y=              0.0989    Z=             -0.9069  Tot=              6.4440
 Quadrupole moment (field-independent basis, Debye-Ang):
   XX=           -158.8287   YY=           -130.4319   ZZ=           -110.4126
   XY=              1.7373   XZ=              0.1907   YZ=             -0.7518

 Summary of Natural Population Analysis:

                                       Natural Population
                Natural  -----------------------------------------------
    Atom  No    Charge         Core      Valence    Rydberg      Total
 -----------------------------------------------------------------------
      C    1   -0.29225      0.99964     2.28782    0.00479     3.29225
      C    2   -0.10038      0.99960     2.09057    0.01021     3.10038
      C    3   -0.18880      0.99960     2.17930    0.00990     3.18880
      C    4   -0.16353      0.99953     2.15415    0.00984     3.16353
      C    5    0.34509      0.99964     1.63336    0.02190     2.65491
      O    6   -0.33732      0.99988     3.33238    0.00506     4.33732
      N    7   -0.32133      0.99962     2.81207    0.00965     3.82133
      C    8    0.05821      0.99954     1.92614    0.01610     2.94179
      C    9   -0.19011      0.99960     2.18215    0.00836     3.19011
      C   10   -0.19526      0.99965     2.18694    0.00867     3.19526
      C   11   -0.19222      0.99960     2.18361    0.00902     3.19222
      C   12   -0.08606      0.99956     2.07344    0.01305     3.08606
      N   13   -0.43096      0.99977     2.92038    0.01081     3.93096
      H   14    0.09825      0.00000     0.40078    0.00097     0.40175
      H   15    0.09662      0.00000     0.40249    0.00089     0.40338
      H   16    0.11376      0.00000     0.38509    0.00115     0.38624
      H   17    0.10232      0.00000     0.39627    0.00140     0.39768
      H   18    0.10295      0.00000     0.39624    0.00081     0.39705
      H   19    0.11275      0.00000     0.38621    0.00104     0.38725
      H   20    0.11209      0.00000     0.38564    0.00226     0.38791
      H   21    0.20705      0.00000     0.28986    0.00309     0.29295
      H   22    0.09847      0.00000     0.40031    0.00122     0.40153
      H   23    0.10426      0.00000     0.39423    0.00152     0.39574
      H   24    0.09777      0.00000     0.40080    0.00143     0.40223
      H   25    0.10104      0.00000     0.39704    0.00192     0.39896
      H   26    0.09971      0.00000     0.39887    0.00142     0.40029
      H   27    0.10157      0.00000     0.39650    0.00193     0.39843
      H   28    0.09301      0.00000     0.40550    0.00149     0.40699
      H   29    0.09067      0.00000     0.40570    0.00363     0.40933
      H   30    0.18372      0.00000     0.31297    0.00331     0.31628
      H   31    0.17891      0.00000     0.31828    0.00281     0.32109
 =======================================================================
   * Total *   -0.00000     12.99524    36.83509    0.16967    50.00000

 Normal termination of Gaussian 16 at Sun Dec 13 20:57:49 2020.
