 Gaussian 16, Revision A.03,

 -----------------------------------------------------------
 # opt freq B3LYP/6-31G(d) empiricaldispersion=gd3bj scf=xqc
 -----------------------------------------------------------

 ----------------------------
 CID_297772_JID_4652_neutraal
 ----------------------------
 Symbolic Z-matrix:
 Charge =  0 Multiplicity = 1

 SCF Done:  E(RB3LYP) =  -565.271537226     A.U. after   12 cycles
 SCF Done:  E(RB3LYP) =  -565.273647013     A.U. after   11 cycles
 SCF Done:  E(RB3LYP) =  -565.272542278     A.U. after   11 cycles
 SCF Done:  E(RB3LYP) =  -565.273575111     A.U. after   11 cycles
 SCF Done:  E(RB3LYP) =  -565.274431842     A.U. after    8 cycles
 SCF Done:  E(RB3LYP) =  -565.274744803     A.U. after   10 cycles
 SCF Done:  E(RB3LYP) =  -565.274837074     A.U. after   10 cycles
 SCF Done:  E(RB3LYP) =  -565.274855368     A.U. after    9 cycles
 SCF Done:  E(RB3LYP) =  -565.274858490     A.U. after    8 cycles
 SCF Done:  E(RB3LYP) =  -565.274861531     A.U. after    7 cycles
 SCF Done:  E(RB3LYP) =  -565.274861724     A.U. after    6 cycles
 Optimization completed.
    -- Stationary point found.
 Normal termination of Gaussian 16 at Thu Dec 10 10:19:57 2020.

 --------------------------------------------------------------------
 #N Geom=AllCheck Guess=TCheck SCRF=Check GenChk RB3LYP/6-31G(d) Freq
 --------------------------------------------------------------------

 Structure from the checkpoint file:  "JID_4652.chk"
 ----------------------------
 CID_297772_JID_4652_neutraal
 ----------------------------
 Charge =  0 Multiplicity = 1

 SCF Done:  E(RB3LYP) =  -565.274861724     A.U. after    1 cycles

  Exact polarizability: 152.944  -0.170 135.409  -1.013  -1.431 124.196
 Approx polarizability: 195.478  -0.634 189.467  -2.727  -1.103 188.083

                      1                      2                      3
                      A                      A                      A
 Frequencies --     50.6995                51.8561                74.8985
 Red. masses --      3.3559                 3.0349                 3.2076
 Frc consts  --      0.0051                 0.0048                 0.0106
 IR Inten    --      0.1961                 0.0830                 0.0439

                      4                      5                      6
                      A                      A                      A
 Frequencies --    133.8658               171.7899               207.3579
 Red. masses --      2.9889                 3.0347                 2.6232
 Frc consts  --      0.0316                 0.0528                 0.0665
 IR Inten    --      0.8703                 0.1176                 0.1226

                      7                      8                      9
                      A                      A                      A
 Frequencies --    236.9196               254.6231               285.1732
 Red. masses --      2.2722                 2.0599                 1.3605
 Frc consts  --      0.0751                 0.0787                 0.0652
 IR Inten    --      0.5228                 1.8587                43.2897

                     10                     11                     12
                      A                      A                      A
 Frequencies --    303.4692               334.1382               362.6312
 Red. masses --      1.8564                 1.6782                 2.1507
 Frc consts  --      0.1007                 0.1104                 0.1666
 IR Inten    --     10.3470                13.7711                 1.2875

                     13                     14                     15
                      A                      A                      A
 Frequencies --    366.6440               388.8043               409.9669
 Red. masses --      2.3785                 2.1836                 3.0872
 Frc consts  --      0.1884                 0.1945                 0.3057
 IR Inten    --      5.0392                 5.5889                 0.4041

                     16                     17                     18
                      A                      A                      A
 Frequencies --    424.8203               455.9743               461.8857
 Red. masses --      2.5954                 2.8221                 2.4041
 Frc consts  --      0.2760                 0.3457                 0.3022
 IR Inten    --      0.4949                 0.1003                 0.1268

                     19                     20                     21
                      A                      A                      A
 Frequencies --    479.1409               538.1825               558.3661
 Red. masses --      2.0800                 1.5891                 2.1356
 Frc consts  --      0.2813                 0.2712                 0.3923
 IR Inten    --      1.7016                 0.0837                 1.7618

                     22                     23                     24
                      A                      A                      A
 Frequencies --    697.1437               733.7327               797.6880
 Red. masses --      2.5275                 2.8261                 1.7032
 Frc consts  --      0.7237                 0.8964                 0.6385
 IR Inten    --      0.3920                 0.2975                 0.2120

                     25                     26                     27
                      A                      A                      A
 Frequencies --    807.2823               810.5233               849.0944
 Red. masses --      1.8857                 1.8932                 2.1604
 Frc consts  --      0.7240                 0.7328                 0.9177
 IR Inten    --      0.7632                 1.6627                 0.6952

                     28                     29                     30
                      A                      A                      A
 Frequencies --    853.3875               868.2143               876.9211
 Red. masses --      2.1052                 1.8622                 2.0089
 Frc consts  --      0.9033                 0.8270                 0.9102
 IR Inten    --      4.1486                16.0536                 9.4873

                     31                     32                     33
                      A                      A                      A
 Frequencies --    909.0105               919.1907               928.0240
 Red. masses --      1.6822                 1.6253                 1.5774
 Frc consts  --      0.8190                 0.8091                 0.8004
 IR Inten    --      5.2977                44.7804                 4.7640

                     34                     35                     36
                      A                      A                      A
 Frequencies --    938.9887               943.4414               963.4636
 Red. masses --      1.5733                 1.7318                 1.9032
 Frc consts  --      0.8173                 0.9082                 1.0409
 IR Inten    --     53.6241                10.2430                12.2667

                     37                     38                     39
                      A                      A                      A
 Frequencies --    990.0154              1029.4421              1045.6255
 Red. masses --      2.3160                 2.2830                 1.7597
 Frc consts  --      1.3375                 1.4255                 1.1336
 IR Inten    --      4.7102                 3.0528                 1.2000

                     40                     41                     42
                      A                      A                      A
 Frequencies --   1051.8029              1073.9526              1081.4267
 Red. masses --      1.8034                 1.5500                 1.5413
 Frc consts  --      1.1755                 1.0533                 1.0620
 IR Inten    --      0.2867                 1.1576                 1.7947

                     43                     44                     45
                      A                      A                      A
 Frequencies --   1085.8374              1096.3987              1104.5043
 Red. masses --      2.1256                 1.2765                 1.7866
 Frc consts  --      1.4766                 0.9041                 1.2841
 IR Inten    --      4.1744                 1.2402                 0.0411

                     46                     47                     48
                      A                      A                      A
 Frequencies --   1115.7159              1130.3825              1133.3734
 Red. masses --      1.4545                 1.8298                 2.5788
 Frc consts  --      1.0668                 1.3776                 1.9517
 IR Inten    --      5.5676                 2.5306                 9.4852

                     49                     50                     51
                      A                      A                      A
 Frequencies --   1156.5081              1170.6716              1214.0226
 Red. masses --      1.4246                 1.9323                 1.4959
 Frc consts  --      1.1227                 1.5603                 1.2990
 IR Inten    --      0.2632                 0.4131                 1.3921

                     52                     53                     54
                      A                      A                      A
 Frequencies --   1230.6601              1252.1864              1267.3844
 Red. masses --      1.5294                 1.5473                 1.4143
 Frc consts  --      1.3647                 1.4294                 1.3385
 IR Inten    --      1.0753                 2.2536                 2.5892

                     55                     56                     57
                      A                      A                      A
 Frequencies --   1283.5226              1300.9908              1303.6063
 Red. masses --      1.2593                 1.2098                 1.2460
 Frc consts  --      1.2223                 1.2065                 1.2476
 IR Inten    --      3.8510                 2.8289                 2.5255

                     58                     59                     60
                      A                      A                      A
 Frequencies --   1308.8257              1311.2001              1334.8444
 Red. masses --      1.2382                 1.2583                 1.2884
 Frc consts  --      1.2497                 1.2746                 1.3526
 IR Inten    --      1.9807                 0.2873                 0.9330

                     61                     62                     63
                      A                      A                      A
 Frequencies --   1351.4891              1361.8605              1374.3837
 Red. masses --      1.3103                 1.2642                 1.3559
 Frc consts  --      1.4101                 1.3814                 1.5090
 IR Inten    --      0.0476                 1.5455                 0.8410

                     64                     65                     66
                      A                      A                      A
 Frequencies --   1377.2512              1387.1597              1388.6143
 Red. masses --      1.4378                 1.3885                 1.3865
 Frc consts  --      1.6069                 1.5742                 1.5752
 IR Inten    --      1.7733                 2.6930                 0.6812

                     67                     68                     69
                      A                      A                      A
 Frequencies --   1398.5292              1399.7141              1401.3668
 Red. masses --      1.3814                 1.4571                 1.4264
 Frc consts  --      1.5919                 1.6820                 1.6504
 IR Inten    --      1.2214                 1.0420                 0.9702

                     70                     71                     72
                      A                      A                      A
 Frequencies --   1403.9616              1405.7677              1413.3365
 Red. masses --      1.5093                 1.4235                 1.4346
 Frc consts  --      1.7528                 1.6575                 1.6884
 IR Inten    --      1.4158                 1.5776                 2.9460

                     73                     74                     75
                      A                      A                      A
 Frequencies --   1418.4474              1430.8713              1445.0769
 Red. masses --      1.4780                 1.3248                 1.4171
 Frc consts  --      1.7521                 1.5981                 1.7435
 IR Inten    --      2.3395                 8.0240                 2.3993

                     76                     77                     78
                      A                      A                      A
 Frequencies --   1510.4257              1513.6227              1515.0485
 Red. masses --      1.0878                 1.0910                 1.0923
 Frc consts  --      1.4621                 1.4728                 1.4772
 IR Inten    --      0.4037                 2.4466                 1.4373

                     79                     80                     81
                      A                      A                      A
 Frequencies --   1517.5055              1520.5730              1521.3136
 Red. masses --      1.0972                 1.0938                 1.0838
 Frc consts  --      1.4886                 1.4900                 1.4778
 IR Inten    --      1.6415                 3.4310                 3.8692

                     82                     83                     84
                      A                      A                      A
 Frequencies --   1522.4633              1533.4416              1536.7303
 Red. masses --      1.0867                 1.0803                 1.1002
 Frc consts  --      1.4840                 1.4967                 1.5308
 IR Inten    --      8.4484                 9.3523                 1.2987

                     85                     86                     87
                      A                      A                      A
 Frequencies --   1536.8976              1699.6094              3005.9162
 Red. masses --      1.0987                 1.0882                 1.0837
 Frc consts  --      1.5291                 1.8521                 5.7691
 IR Inten    --      6.8647                24.5323                12.0409

                     88                     89                     90
                      A                      A                      A
 Frequencies --   3012.7808              3014.6498              3016.5943
 Red. masses --      1.0657                 1.0701                 1.0664
 Frc consts  --      5.6993                 5.7298                 5.7175
 IR Inten    --     22.7995                 7.8709                21.6668

                     91                     92                     93
                      A                      A                      A
 Frequencies --   3018.6330              3020.1952              3020.7350
 Red. masses --      1.0713                 1.0667                 1.0661
 Frc consts  --      5.7515                 5.7329                 5.7317
 IR Inten    --     10.1148                15.4516                18.3918

                     94                     95                     96
                      A                      A                      A
 Frequencies --   3024.2240              3026.4338              3028.4098
 Red. masses --      1.0686                 1.0622                 1.0633
 Frc consts  --      5.7585                 5.7322                 5.7457
 IR Inten    --      7.7140                49.0783                34.4468

                     97                     98                     99
                      A                      A                      A
 Frequencies --   3040.0723              3046.8647              3050.2143
 Red. masses --      1.0793                 1.0867                 1.0751
 Frc consts  --      5.8769                 5.9438                 5.8933
 IR Inten    --     74.6876                 6.8264                47.6525

                    100                    101                    102
                      A                      A                      A
 Frequencies --   3060.0619              3066.1381              3069.0154
 Red. masses --      1.0942                 1.0957                 1.0914
 Frc consts  --      6.0368                 6.0693                 6.0567
 IR Inten    --    106.4206                53.6295                29.8826

                    103                    104                    105
                      A                      A                      A
 Frequencies --   3069.5373              3071.1352              3073.3038
 Red. masses --      1.0981                 1.0924                 1.0951
 Frc consts  --      6.0959                 6.0707                 6.0943
 IR Inten    --     36.6818                85.5134                57.1723

                    106                    107                    108
                      A                      A                      A
 Frequencies --   3075.0723              3079.7316              3089.1234
 Red. masses --      1.1018                 1.0956                 1.0940
 Frc consts  --      6.1383                 6.1223                 6.1508
 IR Inten    --     31.8195                84.2131                84.1820

                    109                    110                    111
                      A                      A                      A
 Frequencies --   3102.3450              3450.3704              3532.4299
 Red. masses --      1.0953                 1.0496                 1.0916
 Frc consts  --      6.2112                 7.3621                 8.0252
 IR Inten    --     50.5405                 3.0355                 1.8004

 - Thermochemistry -
 -------------------
 Temperature   298.150 Kelvin.  Pressure   1.00000 Atm.
 Atom     1 has atomic number  6 and mass  12.00000

 Molecular mass:   195.19870 amu.
 Principal axes and moments of inertia in atomic units:
                           1         2         3
     Eigenvalues --  1733.639244131.908544689.10343
           X            0.99998  -0.00540  -0.00189
           Y            0.00537   0.99990  -0.01301
           Z            0.00197   0.01300   0.99991
 This molecule is an asymmetric top.
 Rotational symmetry number  1.
 Warning -- assumption of classical behavior for rotation
           may cause significant error
 Rotational temperatures (Kelvin)      0.04996     0.02096     0.01847
 Rotational constants (GHZ):           1.04101     0.43678     0.38488
 Zero-point vibrational energy     971784.4 (Joules/Mol)
                                  232.26204 (Kcal/Mol)
 Warning -- explicit consideration of  21 degrees of freedom as
           vibrations may cause significant error
 Vibrational temperatures:     72.95    74.61   107.76   192.60   247.17
          (Kelvin)            298.34   340.87   366.35   410.30   436.62
                              480.75   521.75   527.52   559.40   589.85
                              611.22   656.05   664.55   689.38   774.32
                              803.36  1003.03  1055.68  1147.70  1161.50
                             1166.16  1221.66  1227.83  1249.17  1261.69
                             1307.86  1322.51  1335.22  1351.00  1357.40
                             1386.21  1424.41  1481.14  1504.42  1513.31
                             1545.18  1555.93  1562.28  1577.47  1589.14
                             1605.27  1626.37  1630.67  1663.96  1684.34
                             1746.71  1770.65  1801.62  1823.48  1846.70
                             1871.84  1875.60  1883.11  1886.52  1920.54
                             1944.49  1959.41  1977.43  1981.56  1995.81
                             1997.91  2012.17  2013.88  2016.25  2019.99
                             2022.59  2033.48  2040.83  2058.70  2079.14
                             2173.17  2177.77  2179.82  2183.35  2187.77
                             2188.83  2190.49  2206.28  2211.01  2211.25
                             2445.36  4324.84  4334.72  4337.41  4340.21
                             4343.14  4345.39  4346.16  4351.18  4354.36
                             4357.21  4373.99  4383.76  4388.58  4402.75
                             4411.49  4415.63  4416.38  4418.68  4421.80
                             4424.34  4431.05  4444.56  4463.58  4964.31
                             5082.38

 Zero-point correction=                           0.370133 (Hartree/Particle)
 Thermal correction to Energy=                    0.383823
 Thermal correction to Enthalpy=                  0.384767
 Thermal correction to Gibbs Free Energy=         0.330255
 Sum of electronic and zero-point Energies=           -564.904729
 Sum of electronic and thermal Energies=              -564.891039
 Sum of electronic and thermal Enthalpies=            -564.890095
 Sum of electronic and thermal Free Energies=         -564.944607

                     E (Thermal)             CV                S
                      KCal/Mol        Cal/Mol-Kelvin    Cal/Mol-Kelvin
 Total                  240.853             56.219            114.731
 Electronic               0.000              0.000              0.000
 Translational            0.889              2.981             41.712
 Rotational               0.889              2.981             31.885
 Vibrational            239.075             50.258             41.134
 Vibration     1          0.595              1.977              4.790
 Vibration     2          0.596              1.977              4.745
 Vibration     3          0.599              1.966              4.020
 Vibration     4          0.613              1.920              2.890
 Vibration     5          0.626              1.877              2.416
 Vibration     6          0.641              1.829              2.067
 Vibration     7          0.656              1.784              1.826
 Vibration     8          0.665              1.755              1.698
 Vibration     9          0.683              1.701              1.502
 Vibration    10          0.695              1.667              1.398
 Vibration    11          0.716              1.607              1.240
 Vibration    12          0.736              1.549              1.111
 Vibration    13          0.740              1.541              1.094
 Vibration    14          0.757              1.494              1.005
 Vibration    15          0.774              1.449              0.927
 Vibration    16          0.787              1.416              0.876
 Vibration    17          0.814              1.348              0.778
 Vibration    18          0.820              1.335              0.761
 Vibration    19          0.836              1.296              0.712
 Vibration    20          0.893              1.166              0.569
 Vibration    21          0.914              1.121              0.527

 Optimization completed.
    -- Stationary point found.
 Normal termination of Gaussian 16 at Thu Dec 10 10:33:40 2020.

 ----------------------------------------------------------------------
 # B3LYP/6-311++G(d,p) empiricaldispersion=gd3bj scf=xqc pop=npa geom=c
 heck
 ----------------------------------------------------------------------

 ------------------------------------
 CID_297772_JID_4652_Energie_neutraal
 ------------------------------------
 Structure from the checkpoint file:  "JID_4652.chk"
 Charge =  0 Multiplicity = 1

 SCF Done:  E(RB3LYP) =  -565.433278381     A.U. after   13 cycles
 Normal termination of Gaussian 16 at Thu Dec 10 10:40:47 2020.

 ----------------------------------------------------------------------
 # B3LYP/6-311++G(d,p) empiricaldispersion=gd3bj scf=xqc pop=npa geom=c
 heck
 ----------------------------------------------------------------------

 ----------------------------------
 CID_297772_JID_4652_Energie_kation
 ----------------------------------
 Structure from the checkpoint file:  "JID_4652.chk"
 Charge =  1 Multiplicity = 2

 SCF Done:  E(UB3LYP) =  -565.115776455     A.U. after   24 cycles
 Normal termination of Gaussian 16 at Thu Dec 10 10:58:52 2020.
 Gaussian 16:  ES64L-G16RevA.03 25-Dec-2016

 ----------------------------------------------------------------------
 # B3LYP/6-311++G(d,p) empiricaldispersion=gd3bj scf=xqc pop=npa geom=c
 heck
 ----------------------------------------------------------------------

 ---------------------------------
 CID_297772_JID_4652_Energie_anion
 ---------------------------------
 Structure from the checkpoint file:  "JID_4652.chk"
 Charge = -1 Multiplicity = 2

                         Standard orientation:
 ---------------------------------------------------------------------
 Center     Atomic      Atomic             Coordinates (Angstroms)
 Number     Number       Type             X           Y           Z
 ---------------------------------------------------------------------
      1          6           0       -3.792231   -0.234969   -0.432960
      2          6           0       -3.050871    1.021257   -0.908356
      3          6           0       -1.941584    1.424228    0.071571
      4          6           0       -0.947406    0.277483    0.329416
      5          6           0       -1.715804   -0.964264    0.816702
      6          6           0       -2.814834   -1.386644   -0.165978
      7          6           0        0.155834    0.710807    1.322587
      8          6           0        1.614334    0.228795    1.140664
      9          6           0        1.810546   -1.303602    1.122221
     10          6           0        1.583613   -1.969999   -0.243360
     11          6           0        2.436167   -1.306863   -1.330749
     12          6           0        2.171374    0.202109   -1.393815
     13          6           0        2.394896    0.883730   -0.030597
     14          7           0        2.174916    2.337301   -0.041590
     15          1           0       -4.546449   -0.534928   -1.171189
     16          1           0       -4.334750   -0.003091    0.495266
     17          1           0       -2.602959    0.822321   -1.893364
     18          1           0       -3.755359    1.850902   -1.047305
     19          1           0       -2.388969    1.730445    1.029339
     20          1           0       -1.402189    2.302024   -0.310588
     21          1           0       -0.497800    0.028094   -0.639068
     22          1           0       -2.171474   -0.727670    1.790195
     23          1           0       -1.026790   -1.797182    0.995332
     24          1           0       -3.352565   -2.262097    0.219115
     25          1           0       -2.351563   -1.696307   -1.114718
     26          1           0        0.194895    1.805955    1.360436
     27          1           0       -0.159868    0.403527    2.329698
     28          1           0        2.117017    0.598971    2.044044
     29          1           0        2.846391   -1.515560    1.425125
     30          1           0        1.170708   -1.765191    1.884878
     31          1           0        0.527801   -1.914027   -0.530410
     32          1           0        1.827153   -3.037662   -0.171960
     33          1           0        2.245842   -1.770771   -2.306463
     34          1           0        3.500172   -1.474030   -1.106784
     35          1           0        1.145486    0.387599   -1.738674
     36          1           0        2.833429    0.672668   -2.134101
     37          1           0        3.458850    0.744166    0.212876
     38          1           0        2.827734    2.765514   -0.697638
     39          1           0        1.246638    2.532815   -0.416991
 ---------------------------------------------------------------------

 SCF Done:  E(UB3LYP) =  -565.418273571     A.U. after   29 cycles

 The electronic state is 2-A.
 Alpha  occ. eigenvalues --  -14.19082 -10.09326 -10.06980 -10.06966 -10.06701
 Alpha  occ. eigenvalues --  -10.06645 -10.06607 -10.06543 -10.06487 -10.06457
 Alpha  occ. eigenvalues --  -10.06334 -10.06299 -10.06106 -10.05913  -0.79020
 Alpha  occ. eigenvalues --   -0.74005  -0.71623  -0.67528  -0.64450  -0.64086
 Alpha  occ. eigenvalues --   -0.62130  -0.57021  -0.51389  -0.51152  -0.50191
 Alpha  occ. eigenvalues --   -0.47877  -0.45789  -0.43649  -0.39422  -0.38200
 Alpha  occ. eigenvalues --   -0.37534  -0.35345  -0.34698  -0.34082  -0.33718
 Alpha  occ. eigenvalues --   -0.32863  -0.31897  -0.30845  -0.30002  -0.28484
 Alpha  occ. eigenvalues --   -0.28272  -0.27730  -0.26208  -0.25674  -0.24697
 Alpha  occ. eigenvalues --   -0.24579  -0.24239  -0.23369  -0.22538  -0.21900
 Alpha  occ. eigenvalues --   -0.20716  -0.19929  -0.19584  -0.18938  -0.14170
 Alpha  occ. eigenvalues --    0.04342
 Alpha virt. eigenvalues --    0.06160   0.06678   0.07145   0.08053   0.08275
 Alpha virt. eigenvalues --    0.08635   0.09233   0.09952   0.10490   0.10718
 Alpha virt. eigenvalues --    0.11049   0.11254   0.11718   0.12446   0.12908

  Beta  occ. eigenvalues --  -14.19055 -10.09315 -10.06977 -10.06965 -10.06686
  Beta  occ. eigenvalues --  -10.06631 -10.06591 -10.06532 -10.06475 -10.06450
  Beta  occ. eigenvalues --  -10.06318 -10.06287 -10.06099 -10.05892  -0.78978
  Beta  occ. eigenvalues --   -0.73983  -0.71590  -0.67503  -0.64422  -0.64058
  Beta  occ. eigenvalues --   -0.62088  -0.56989  -0.51346  -0.51110  -0.50146
  Beta  occ. eigenvalues --   -0.47831  -0.45753  -0.43614  -0.39386  -0.38154
  Beta  occ. eigenvalues --   -0.37482  -0.35311  -0.34678  -0.34058  -0.33692
  Beta  occ. eigenvalues --   -0.32838  -0.31866  -0.30823  -0.29967  -0.28457
  Beta  occ. eigenvalues --   -0.28240  -0.27700  -0.26176  -0.25651  -0.24667
  Beta  occ. eigenvalues --   -0.24549  -0.24206  -0.23341  -0.22511  -0.21871
  Beta  occ. eigenvalues --   -0.20686  -0.19903  -0.19558  -0.18914  -0.14139
  Beta virt. eigenvalues --    0.06333   0.06973   0.07414   0.07514   0.08650
  Beta virt. eigenvalues --    0.08742   0.08970   0.09586   0.10224   0.10923
  Beta virt. eigenvalues --    0.11138   0.11316   0.11545   0.11984   0.12790

 Mulliken charges and spin densities:
               1          2
     1  C    0.620878  -1.191348
     2  C   -0.073662  -0.247721
     3  C    0.107644  -0.529392
     4  C    0.083602   0.543919
     5  C   -0.424536   0.051478
     6  C   -0.433857   0.171772
     7  C   -0.601588  -0.267242
     8  C    0.423426   0.378055
     9  C   -0.049440  -0.535886
    10  C   -0.605562   0.485038
    11  C    1.368862  -2.039474
    12  C   -1.072265   1.016462
    13  C    1.199389  -1.924654
    14  N   -0.495564   0.162239
    15  H   -0.267713   0.440005
    16  H    0.113313  -0.002166
    17  H   -0.139818   0.270857
    18  H   -0.251389   0.424605
    19  H    0.024483   0.123938
    20  H   -0.115563   0.258559
    21  H    1.469634  -1.481736
    22  H   -0.115120   0.259068
    23  H    0.218599  -0.087091
    24  H   -0.292989   0.462198
    25  H   -0.056953   0.182816
    26  H    0.044195   0.145143
    27  H    0.153360  -0.013817
    28  H    0.121368   0.094393
    29  H   -0.086576   0.233964
    30  H   -0.061633   0.218253
    31  H   -0.168631   0.291689
    32  H   -0.262772   0.448740
    33  H   -0.106076   0.276182
    34  H   -0.049932   0.173553
    35  H   -0.638673   0.793752
    36  H   -0.603160   0.794437
    37  H   -0.101658   0.293873
    38  H   -0.080826   0.322280
    39  H    0.207206   0.003260
 Sum of Mulliken charges =  -1.00000   1.00000

 Dipole moment (field-independent basis, Debye):
    X=             -1.2730    Y=             -0.4833    Z=              3.3173  Tot=              3.5859
 Quadrupole moment (field-independent basis, Debye-Ang):
   XX=           -169.2755   YY=           -141.4566   ZZ=           -131.8246
   XY=             -4.5037   XZ=              0.8676   YZ=              1.4825

 Summary of Natural Population Analysis:

                                       Natural Population
                Natural  -----------------------------------------------
    Atom  No    Charge         Core      Valence    Rydberg      Total
 -----------------------------------------------------------------------
      C    1   -0.18827      0.99963     2.18081    0.00783     3.18827
      C    2   -0.18948      0.99963     2.18144    0.00841     3.18948
      C    3   -0.18368      0.99962     2.17498    0.00909     3.18368
      C    4   -0.12244      0.99958     2.11364    0.00922     3.12244
      C    5   -0.18725      0.99961     2.17925    0.00839     3.18725
      C    6   -0.18968      0.99963     2.18155    0.00850     3.18968
      C    7   -0.18905      0.99959     2.17979    0.00967     3.18905
      C    8   -0.10537      0.99956     2.09439    0.01141     3.10537
      C    9   -0.18997      0.99961     2.18143    0.00892     3.18997
      C   10   -0.19198      0.99962     2.18449    0.00786     3.19198
      C   11   -0.18805      0.99962     2.18014    0.00829     3.18805
      C   12   -0.19700      0.99960     2.18742    0.00997     3.19700
      C   13   -0.00979      0.99956     1.99707    0.01317     3.00979
      N   14   -0.42117      0.99977     2.91111    0.01030     3.92117
      H   15    0.09856      0.00000     0.40030    0.00114     0.40144
      H   16    0.09047      0.00000     0.40832    0.00121     0.40953
      H   17    0.09391      0.00000     0.40464    0.00145     0.40609
      H   18    0.09765      0.00000     0.40133    0.00101     0.40235
      H   19    0.09191      0.00000     0.40691    0.00118     0.40809
      H   20    0.09735      0.00000     0.40147    0.00118     0.40265
      H   21    0.09542      0.00000     0.40156    0.00302     0.40458
      H   22    0.09162      0.00000     0.40711    0.00127     0.40838
      H   23    0.10048      0.00000     0.39833    0.00119     0.39952
      H   24    0.09748      0.00000     0.40157    0.00095     0.40252
      H   25    0.09343      0.00000     0.40502    0.00155     0.40657
      H   26    0.10398      0.00000     0.39447    0.00154     0.39602
      H   27    0.09640      0.00000     0.40244    0.00116     0.40360
      H   28    0.10027      0.00000     0.39832    0.00142     0.39973
      H   29    0.09568      0.00000     0.40312    0.00120     0.40432
      H   30    0.09827      0.00000     0.40078    0.00095     0.40173
      H   31    0.09417      0.00000     0.40371    0.00212     0.40583
      H   32    0.09766      0.00000     0.40129    0.00105     0.40234
      H   33    0.09889      0.00000     0.40009    0.00102     0.40111
      H   34    0.09212      0.00000     0.40638    0.00150     0.40788
      H   35    0.09210      0.00000     0.40575    0.00215     0.40790
      H   36    0.09973      0.00000     0.39831    0.00196     0.40027
      H   37    0.08910      0.00000     0.40916    0.00175     0.41090
      H   38    0.17590      0.00000     0.32223    0.00187     0.32410
      H   39    0.17066      0.00000     0.32726    0.00208     0.32934
 =======================================================================
   * Total *    0.00000     13.99462    40.83742    0.16795    55.00000

 Normal termination of Gaussian 16 at Thu Dec 10 11:19:12 2020.
