 Gaussian 16, Revision A.03,

 -----------------------------------------------------------
 # opt freq B3LYP/6-31G(d) empiricaldispersion=gd3bj scf=xqc
 -----------------------------------------------------------

 -------------------------------
 CID_130621316_JID_1392_neutraal
 -------------------------------
 Symbolic Z-matrix:
 Charge =  0 Multiplicity = 1

 SCF Done:  E(RB3LYP) =  -530.284424336     A.U. after   15 cycles
 SCF Done:  E(RB3LYP) =  -530.288924761     A.U. after   13 cycles
 SCF Done:  E(RB3LYP) =  -530.289567948     A.U. after   12 cycles
 SCF Done:  E(RB3LYP) =  -530.290118666     A.U. after   13 cycles
 SCF Done:  E(RB3LYP) =  -530.290254219     A.U. after   13 cycles
 SCF Done:  E(RB3LYP) =  -530.290350278     A.U. after   12 cycles
 SCF Done:  E(RB3LYP) =  -530.290434171     A.U. after   10 cycles
 SCF Done:  E(RB3LYP) =  -530.290486380     A.U. after   12 cycles
 SCF Done:  E(RB3LYP) =  -530.290494813     A.U. after   10 cycles
 SCF Done:  E(RB3LYP) =  -530.290500109     A.U. after   10 cycles
 SCF Done:  E(RB3LYP) =  -530.290583890     A.U. after   12 cycles
 SCF Done:  E(RB3LYP) =  -530.290584079     A.U. after    9 cycles
 SCF Done:  E(RB3LYP) =  -530.290585289     A.U. after    9 cycles
 SCF Done:  E(RB3LYP) =  -530.290585218     A.U. after    8 cycles
 SCF Done:  E(RB3LYP) =  -530.290585383     A.U. after    8 cycles
 Optimization completed.
    -- Stationary point found.
 Normal termination of Gaussian 16 at Tue Dec  8 19:53:50 2020.

 --------------------------------------------------------------------
 #N Geom=AllCheck Guess=TCheck SCRF=Check GenChk RB3LYP/6-31G(d) Freq
 --------------------------------------------------------------------

 Structure from the checkpoint file:  "JID_1392.chk"
 -------------------------------
 CID_130621316_JID_1392_neutraal
 -------------------------------
 Charge =  0 Multiplicity = 1

 SCF Done:  E(RB3LYP) =  -530.290585383     A.U. after    1 cycles

  Exact polarizability: 105.819   0.275 101.412   0.007   0.016  39.266
 Approx polarizability: 141.252  -9.108 200.149   0.005   0.035  58.953

                      1                      2                      3
                      A                      A                      A
 Frequencies --     27.9516                63.0777                88.2450
 Red. masses --      4.0169                 1.5050                 2.3812
 Frc consts  --      0.0018                 0.0035                 0.0109
 IR Inten    --      1.6255                 2.4921                 3.5894

                      4                      5                      6
                      A                      A                      A
 Frequencies --    151.8917               163.5701               209.0262
 Red. masses --     10.7219                 4.4115                 5.0965
 Frc consts  --      0.1457                 0.0695                 0.1312
 IR Inten    --      6.6251                 1.4118                 9.4039

                      7                      8                      9
                      A                      A                      A
 Frequencies --    236.1060               316.7789               372.1862
 Red. masses --      5.5472                 3.7371                 6.3529
 Frc consts  --      0.1822                 0.2210                 0.5185
 IR Inten    --      0.9166                11.3290                 1.7449

                     10                     11                     12
                      A                      A                      A
 Frequencies --    470.6351               497.7460               606.4314
 Red. masses --      9.4918                11.7878                 3.6546
 Frc consts  --      1.2387                 1.7207                 0.7919
 IR Inten    --      4.2961                 6.4238                 0.1320

                     13                     14                     15
                      A                      A                      A
 Frequencies --    618.0931               635.7848               647.9367
 Red. masses --      3.8304                 7.1588                 9.6823
 Frc consts  --      0.8622                 1.7050                 2.3949
 IR Inten    --     16.5736                10.3575                 5.5547

                     16                     17                     18
                      A                      A                      A
 Frequencies --    749.3086               752.5302               827.1497
 Red. masses --      1.4056                 3.8185                 1.4881
 Frc consts  --      0.4650                 1.2740                 0.5999
 IR Inten    --      4.9843                45.3991                16.1712

                     19                     20                     21
                      A                      A                      A
 Frequencies --    881.0098               888.3959               897.5191
 Red. masses --      1.3531                 5.7242                 6.2732
 Frc consts  --      0.6188                 2.6618                 2.9773
 IR Inten    --      4.7262                34.9044                19.7435

                     22                     23                     24
                      A                      A                      A
 Frequencies --    999.6360              1050.4324              1104.9342
 Red. masses --      3.2321                 1.8877                 2.3524
 Frc consts  --      1.9029                 1.2272                 1.6921
 IR Inten    --     14.4947                20.3545                36.1872

                     25                     26                     27
                      A                      A                      A
 Frequencies --   1120.8484              1155.5747              1205.7580
 Red. masses --      1.5742                 1.2719                 4.4264
 Frc consts  --      1.1652                 1.0007                 3.7916
 IR Inten    --     29.9850                 0.1733                19.5059

                     28                     29                     30
                      A                      A                      A
 Frequencies --   1225.2166              1287.2678              1347.5472
 Red. masses --      5.4659                 1.2629                 4.0334
 Frc consts  --      4.8343                 1.2329                 4.3153
 IR Inten    --    202.0204                 0.5133                20.4092

                     31                     32                     33
                      A                      A                      A
 Frequencies --   1359.7223              1412.4282              1479.9249
 Red. masses --      3.2395                 4.7331                 1.1881
 Frc consts  --      3.5288                 5.5633                 1.5331
 IR Inten    --    225.6861                19.1686                12.6113

                     34                     35                     36
                      A                      A                      A
 Frequencies --   1504.6672              1532.4654              1557.2712
 Red. masses --      1.0430                 1.0646                 4.0492
 Frc consts  --      1.3912                 1.4730                 5.7856
 IR Inten    --      8.6872                20.0699                58.0307

                     37                     38                     39
                      A                      A                      A
 Frequencies --   1612.5391              1772.0341              2347.5967
 Red. masses --      5.5021                12.1422                12.5766
 Frc consts  --      8.4294                22.4642                40.8376
 IR Inten    --     14.2673               294.7143               118.9951

                     40                     41                     42
                      A                      A                      A
 Frequencies --   3091.4946              3169.1836              3192.2433
 Red. masses --      1.0307                 1.1072                 1.1072
 Frc consts  --      5.8038                 6.5519                 6.6478
 IR Inten    --     17.3561                 8.0348                 4.5329

                     43                     44                     45
                      A                      A                      A
 Frequencies --   3295.4047              3317.2889              3332.0766
 Red. masses --      1.0903                 1.1067                 1.1001
 Frc consts  --      6.9763                 7.1755                 7.1967
 IR Inten    --      1.5026                 0.6590                 7.6792

 - Thermochemistry -
 -------------------
 Temperature   298.150 Kelvin.  Pressure   1.00000 Atm.
 Atom     1 has atomic number  6 and mass  12.00000

 Molecular mass:   150.04293 amu.
 Principal axes and moments of inertia in atomic units:
                           1         2         3
     Eigenvalues --   890.889362077.921322957.44644
           X            0.99994  -0.01097   0.00003
           Y            0.01097   0.99994   0.00004
           Z           -0.00003  -0.00004   1.00000
 This molecule is an asymmetric top.
 Rotational symmetry number  1.
 Warning -- assumption of classical behavior for rotation
           may cause significant error
 Rotational temperatures (Kelvin)      0.09722     0.04168     0.02929
 Rotational constants (GHZ):           2.02577     0.86853     0.61024
 Zero-point vibrational energy     326430.6 (Joules/Mol)
                                   78.01878 (Kcal/Mol)
 Warning -- explicit consideration of  13 degrees of freedom as
           vibrations may cause significant error
 Vibrational temperatures:     40.22    90.75   126.96   218.54   235.34
          (Kelvin)            300.74   339.70   455.77   535.49   677.14
                              716.15   872.52   889.30   914.75   932.24
                             1078.09  1082.72  1190.08  1267.58  1278.20
                             1291.33  1438.25  1511.34  1589.75  1612.65
                             1662.61  1734.82  1762.81  1852.09  1938.82
                             1956.34  2032.17  2129.28  2164.88  2204.88
                             2240.57  2320.08  2549.56  3377.67  4447.97
                             4559.75  4592.93  4741.35  4772.84  4794.11

 Zero-point correction=                           0.124331 (Hartree/Particle)
 Thermal correction to Energy=                    0.134370
 Thermal correction to Enthalpy=                  0.135314
 Thermal correction to Gibbs Free Energy=         0.087238
 Sum of electronic and zero-point Energies=           -530.166255
 Sum of electronic and thermal Energies=              -530.156215
 Sum of electronic and thermal Enthalpies=            -530.155271
 Sum of electronic and thermal Free Energies=         -530.203348

                     E (Thermal)             CV                S
                      KCal/Mol        Cal/Mol-Kelvin    Cal/Mol-Kelvin
 Total                   84.319             35.275            101.186
 Electronic               0.000              0.000              0.000
 Translational            0.889              2.981             40.927
 Rotational               0.889              2.981             30.083
 Vibrational             82.541             29.313             30.176
 Vibration     1          0.593              1.984              5.970
 Vibration     2          0.597              1.972              4.359
 Vibration     3          0.601              1.957              3.699
 Vibration     4          0.619              1.901              2.648
 Vibration     5          0.623              1.887              2.508
 Vibration     6          0.642              1.827              2.052
 Vibration     7          0.655              1.785              1.832
 Vibration     8          0.704              1.642              1.327
 Vibration     9          0.744              1.529              1.071
 Vibration    10          0.828              1.315              0.736
 Vibration    11          0.853              1.255              0.664
 Vibration    12          0.965              1.018              0.439
 Vibration    13          0.978              0.994              0.420

                           ! Non-Optimized Parameters !
 Normal termination of Gaussian 16 at Tue Dec  8 19:56:28 2020.

 ----------------------------------------------------------------------
 # B3LYP/6-311++G(d,p) empiricaldispersion=gd3bj scf=xqc pop=npa geom=c
 heck
 ----------------------------------------------------------------------

 ---------------------------------------
 CID_130621316_JID_1392_Energie_neutraal
 ---------------------------------------
 Structure from the checkpoint file:  "JID_1392.chk"
 Charge =  0 Multiplicity = 1

 SCF Done:  E(RB3LYP) =  -530.440123162     A.U. after   15 cycles
 Normal termination of Gaussian 16 at Tue Dec  8 19:57:12 2020.

 ----------------------------------------------------------------------
 # B3LYP/6-311++G(d,p) empiricaldispersion=gd3bj scf=xqc pop=npa geom=c
 heck
 ----------------------------------------------------------------------

 -------------------------------------
 CID_130621316_JID_1392_Energie_kation
 -------------------------------------
 Structure from the checkpoint file:  "JID_1392.chk"
 Charge =  1 Multiplicity = 2

 SCF Done:  E(UB3LYP) =  -530.100178076     A.U. after   23 cycles
 Normal termination of Gaussian 16 at Tue Dec  8 19:59:14 2020.
 Gaussian 16:  ES64L-G16RevA.03 25-Dec-2016

 ----------------------------------------------------------------------
 # B3LYP/6-311++G(d,p) empiricaldispersion=gd3bj scf=xqc pop=npa geom=c
 heck
 ----------------------------------------------------------------------

 ------------------------------------
 CID_130621316_JID_1392_Energie_anion
 ------------------------------------
 Structure from the checkpoint file:  "JID_1392.chk"
 Charge = -1 Multiplicity = 2

                         Standard orientation:
 ---------------------------------------------------------------------
 Center     Atomic      Atomic             Coordinates (Angstroms)
 Number     Number       Type             X           Y           Z
 ---------------------------------------------------------------------
      1          6           0        3.005759   -0.706906    0.000903
      2          7           0        1.691937   -0.034588    0.000704
      3          6           0        1.654814    1.301620   -0.000898
      4          7           0        1.639984    2.468385   -0.001997
      5          6           0        0.545171   -0.864233    0.000113
      6          8           0        0.721043   -2.071598   -0.000211
      7          6           0       -0.800487   -0.271604    0.000098
      8          6           0       -1.266807    1.022322    0.001709
      9          8           0       -2.617728    1.028185    0.001262
     10          6           0       -3.039261   -0.278139   -0.000699
     11          6           0       -1.973717   -1.112476   -0.001458
     12          1           0        3.780382    0.059660    0.002711
     13          1           0        3.095432   -1.333771   -0.888290
     14          1           0        3.093656   -1.336145    0.888562
     15          1           0       -0.795342    1.990431    0.003232
     16          1           0       -4.108069   -0.421436   -0.001295
     17          1           0       -1.968859   -2.191510   -0.002888
 ---------------------------------------------------------------------

 SCF Done:  E(UB3LYP) =  -530.437813072     A.U. after   33 cycles
 SCF Done:  E(UB3LYP) =  -530.437813072     a.u. after    1 cycles

 The electronic state is 2-A.
 Alpha  occ. eigenvalues --  -19.02251 -18.90431 -14.22961 -14.16050 -10.09461
 Alpha  occ. eigenvalues --  -10.08996 -10.07816 -10.07139 -10.03671 -10.02088
 Alpha  occ. eigenvalues --  -10.00759  -0.95333  -0.88010  -0.81657  -0.74995
 Alpha  occ. eigenvalues --   -0.64851  -0.60314  -0.58460  -0.50780  -0.45290
 Alpha  occ. eigenvalues --   -0.42450  -0.40557  -0.36158  -0.34160  -0.31780
 Alpha  occ. eigenvalues --   -0.30031  -0.29288  -0.27415  -0.25540  -0.24822
 Alpha  occ. eigenvalues --   -0.24216  -0.23235  -0.21850  -0.21769  -0.19340
 Alpha  occ. eigenvalues --   -0.12642  -0.11759  -0.09853  -0.08718   0.07153
 Alpha virt. eigenvalues --    0.09076   0.09798   0.12185   0.12753   0.12997
 Alpha virt. eigenvalues --    0.13124   0.14471   0.14862   0.16217   0.17236
 Alpha virt. eigenvalues --    0.17361   0.18237   0.18357   0.19607   0.19982

  Beta  occ. eigenvalues --  -19.02012 -18.89827 -14.22977 -14.15936 -10.09438
  Beta  occ. eigenvalues --  -10.09000 -10.07267 -10.07213 -10.03083 -10.02062
  Beta  occ. eigenvalues --  -10.00795  -0.94884  -0.87255  -0.81163  -0.74815
  Beta  occ. eigenvalues --   -0.64628  -0.60050  -0.58131  -0.50037  -0.44943
  Beta  occ. eigenvalues --   -0.41975  -0.40325  -0.36072  -0.33841  -0.31429
  Beta  occ. eigenvalues --   -0.29129  -0.28858  -0.27108  -0.24783  -0.24265
  Beta  occ. eigenvalues --   -0.24012  -0.23023  -0.21573  -0.19598  -0.19189
  Beta  occ. eigenvalues --   -0.12079  -0.10374  -0.09322  -0.06877
  Beta virt. eigenvalues --    0.09076   0.09756   0.12179   0.12742   0.12985
  Beta virt. eigenvalues --    0.13118   0.14662   0.14873   0.15613   0.16297
  Beta virt. eigenvalues --    0.17215   0.17616   0.18265   0.18415   0.19594

 Mulliken charges and spin densities:
               1          2
     1  C   -0.260471  -0.000431
     2  N    0.000294  -0.017724
     3  C    0.039103   0.019905
     4  N   -0.367676   0.049910
     5  C   -1.077276   0.301283
     6  O   -0.465130   0.207276
     7  C    0.657620  -0.046406
     8  C   -0.322402   0.480009
     9  O   -0.051673   0.025377
    10  C   -0.272623  -0.040273
    11  C    0.162680   0.053322
    12  H    0.137333  -0.000599
    13  H    0.174027   0.001092
    14  H    0.174056   0.001110
    15  H    0.190089  -0.034383
    16  H    0.128608   0.002894
    17  H    0.153440  -0.002360
 Sum of Mulliken charges =  -1.00000   1.00000

 Dipole moment (field-independent basis, Debye):
    X=              0.8972    Y=             -1.2939    Z=              0.0020  Tot=              1.5745
 Quadrupole moment (field-independent basis, Debye-Ang):
   XX=            -74.4608   YY=            -94.1583   ZZ=            -70.0404
   XY=             -1.8631   XZ=              0.0175   YZ=              0.0132

 Summary of Natural Population Analysis:

                                       Natural Population
                Natural  -----------------------------------------------
    Atom  No    Charge         Core      Valence    Rydberg      Total
 -----------------------------------------------------------------------
      C    1   -0.16734      0.99965     2.16047    0.00723     3.16734
      N    2   -0.27493      0.99958     2.76632    0.00903     3.77493
      C    3    0.23744      0.99964     1.74501    0.01791     2.76256
      N    4   -0.22092      0.99979     2.71228    0.00885     3.72092
      C    5    0.40622      0.99962     1.57374    0.02043     2.59378
      O    6   -0.27201      0.99988     3.26662    0.00552     4.27201
      C    7   -0.13449      0.99951     2.12411    0.01087     3.13449
      C    8    0.18777      0.99950     1.79945    0.01328     2.81223
      O    9   -0.22349      0.99987     3.21456    0.00906     4.22349
      C   10    0.01255      0.99952     1.97272    0.01520     2.98745
      C   11   -0.12714      0.99954     2.11810    0.00950     3.12714
      H   12    0.09162      0.00000     0.40763    0.00075     0.40838
      H   13    0.09919      0.00000     0.39959    0.00122     0.40081
      H   14    0.09927      0.00000     0.39951    0.00122     0.40073
      H   15    0.09224      0.00000     0.40634    0.00142     0.40776
      H   16    0.08437      0.00000     0.41462    0.00101     0.41563
      H   17    0.10966      0.00000     0.38947    0.00086     0.39034
 =======================================================================
   * Total *    0.00000     10.99610    27.87055    0.13335    39.00000

 Normal termination of Gaussian 16 at Tue Dec  8 20:02:13 2020.
