 Gaussian 16, Revision A.03,

 -----------------------------------------------------------
 # opt freq B3LYP/6-31G(d) empiricaldispersion=gd3bj scf=xqc
 -----------------------------------------------------------

 ----------------------------
 CID_496107_JID_1175_neutraal
 ----------------------------
 Symbolic Z-matrix:
 Charge =  0 Multiplicity = 1

 SCF Done:  E(RB3LYP) =  -573.682427362     A.U. after   14 cycles
 SCF Done:  E(RB3LYP) =  -573.687775709     A.U. after   12 cycles
 SCF Done:  E(RB3LYP) =  -573.688191603     A.U. after   11 cycles
 SCF Done:  E(RB3LYP) =  -573.688110722     A.U. after   11 cycles
 SCF Done:  E(RB3LYP) =  -573.688322509     A.U. after   11 cycles
 SCF Done:  E(RB3LYP) =  -573.688342026     A.U. after   10 cycles
 SCF Done:  E(RB3LYP) =  -573.688350381     A.U. after   10 cycles
 SCF Done:  E(RB3LYP) =  -573.688357145     A.U. after   10 cycles
 SCF Done:  E(RB3LYP) =  -573.688371986     A.U. after   11 cycles
 SCF Done:  E(RB3LYP) =  -573.688378395     A.U. after   11 cycles
 SCF Done:  E(RB3LYP) =  -573.688404190     A.U. after   12 cycles
 SCF Done:  E(RB3LYP) =  -573.688409998     A.U. after   10 cycles
 SCF Done:  E(RB3LYP) =  -573.688406653     A.U. after   11 cycles
 SCF Done:  E(RB3LYP) =  -573.688410863     A.U. after   11 cycles
 SCF Done:  E(RB3LYP) =  -573.688410770     A.U. after    9 cycles
 SCF Done:  E(RB3LYP) =  -573.688410876     A.U. after    8 cycles
 Optimization completed.
    -- Stationary point found.

 1\1\GINC-NODE104\FOpt\RB3LYP\6-31G(d)\C7H10O4\VSC10255\08-Dec-2020\0\\
 # opt freq B3LYP/6-31G(d) empiricaldispersion=gd3bj scf=xqc\\CID_49610
 7_JID_1175_neutraal\\0,1\C,1.0704340377,0.0601225567,-0.422564645\C,0.
 1981180281,1.2827629117,-0.6965835721\O,0.7415222815,2.021383643,-1.80
 73994793\C,-0.0656221273,1.8357071754,-2.9593224209\C,0.6614755486,1.0
 751334879,-4.0753039188\O,0.3386071205,-0.3219058842,-3.9186648785\C,-
 0.7214094574,-0.5001858891,-3.0802228134\O,-1.1955758905,-1.5775883272
 ,-2.8458246789\C,-1.1559758281,0.8611777708,-2.4996288948\O,-1.1242353

 Normal termination of Gaussian 16 at Tue Dec  8 19:21:38 2020.

 --------------------------------------------------------------------
 #N Geom=AllCheck Guess=TCheck SCRF=Check GenChk RB3LYP/6-31G(d) Freq
 --------------------------------------------------------------------

 Structure from the checkpoint file:  "JID_1175.chk"
 ----------------------------
 CID_496107_JID_1175_neutraal
 ----------------------------
 Charge =  0 Multiplicity = 1

 SCF Done:  E(RB3LYP) =  -573.688410876     A.U. after    1 cycles

  Exact polarizability:  84.495   2.658  80.853   2.388   0.359  68.794
 Approx polarizability: 108.332   0.126 125.432   2.700  -5.086 100.572

                      1                      2                      3
                      A                      A                      A
 Frequencies --     32.0506                96.2593               148.8432
 Red. masses --      4.2501                 5.0796                 5.2341
 Frc consts  --      0.0026                 0.0277                 0.0683
 IR Inten    --      2.7880                 2.9473                 1.5660

                      4                      5                      6
                      A                      A                      A
 Frequencies --    203.4803               214.9208               247.7829
 Red. masses --      1.3261                 1.9631                 1.1372
 Frc consts  --      0.0324                 0.0534                 0.0411
 IR Inten    --      1.2068                 2.6520                 0.9559

                      7                      8                      9
                      A                      A                      A
 Frequencies --    299.1483               351.1437               383.0888
 Red. masses --      2.7089                 2.5766                 3.4763
 Frc consts  --      0.1428                 0.1872                 0.3006
 IR Inten    --      1.3296                 0.3737                 1.3751

                     10                     11                     12
                      A                      A                      A
 Frequencies --    417.0116               477.6527               511.6338
 Red. masses --      2.6995                 5.5225                 3.8449
 Frc consts  --      0.2766                 0.7423                 0.5930
 IR Inten    --      3.6619                 2.9543                14.9551

                     13                     14                     15
                      A                      A                      A
 Frequencies --    576.1597               630.7008               689.0139
 Red. masses --      5.6659                 5.6545                 5.8385
 Frc consts  --      1.1082                 1.3252                 1.6331
 IR Inten    --      1.3822                 2.8281                 4.8061

                     16                     17                     18
                      A                      A                      A
 Frequencies --    737.0836               778.3508               802.7103
 Red. masses --      6.6671                 6.5800                 5.8830
 Frc consts  --      2.1341                 2.3487                 2.2334
 IR Inten    --     10.0548                 1.6219                 6.9373

                     19                     20                     21
                      A                      A                      A
 Frequencies --    840.4171               909.2729               917.3945
 Red. masses --      2.9458                 3.9171                 2.4204
 Frc consts  --      1.2259                 1.9081                 1.2002
 IR Inten    --     29.4094                 9.6998                36.3155

                     22                     23                     24
                      A                      A                      A
 Frequencies --    941.4288               958.5808               995.9212
 Red. masses --      1.4917                 2.4261                 2.0366
 Frc consts  --      0.7789                 1.3134                 1.1902
 IR Inten    --      1.8193                21.8175                13.7142

                     25                     26                     27
                      A                      A                      A
 Frequencies --   1018.2491              1026.5599              1083.4460
 Red. masses --      1.4082                 2.3834                 3.3303
 Frc consts  --      0.8602                 1.4798                 2.3033
 IR Inten    --      8.5105                39.6225                40.2026

                     28                     29                     30
                      A                      A                      A
 Frequencies --   1117.3233              1146.7517              1191.0372
 Red. masses --      4.9819                 3.8378                 1.9985
 Frc consts  --      3.6644                 2.9735                 1.6703
 IR Inten    --     38.0503               144.8892                92.5190

                     31                     32                     33
                      A                      A                      A
 Frequencies --   1197.8664              1249.4638              1254.8979
 Red. masses --      4.1220                 1.9977                 1.4739
 Frc consts  --      3.4848                 1.8375                 1.3675
 IR Inten    --    125.1963                74.3715                13.2828

                     34                     35                     36
                      A                      A                      A
 Frequencies --   1268.2646              1294.4118              1317.4502
 Red. masses --      2.0374                 2.5846                 1.5624
 Frc consts  --      1.9309                 2.5515                 1.5977
 IR Inten    --     24.4070                94.9339                16.6624

                     37                     38                     39
                      A                      A                      A
 Frequencies --   1358.2631              1389.8507              1413.8054
 Red. masses --      1.3303                 1.3048                 1.5103
 Frc consts  --      1.4460                 1.4850                 1.7787
 IR Inten    --      0.8773                 4.7703                10.9690

                     40                     41                     42
                      A                      A                      A
 Frequencies --   1433.6553              1446.1753              1503.4355
 Red. masses --      1.3674                 1.2491                 1.0472
 Frc consts  --      1.6559                 1.5392                 1.3946
 IR Inten    --     19.9007                16.3292                 0.1129

                     43                     44                     45
                      A                      A                      A
 Frequencies --   1509.5338              1525.5323              1530.9805
 Red. masses --      1.0500                 1.0597                 1.0690
 Frc consts  --      1.4097                 1.4530                 1.4763
 IR Inten    --      1.4257                 2.0864                 4.1447

                     46                     47                     48
                      A                      A                      A
 Frequencies --   1533.8547              1895.6724              3070.7710
 Red. masses --      1.0791                12.8703                 1.0351
 Frc consts  --      1.4958                27.2500                 5.7506
 IR Inten    --      2.9095               304.4026                 6.9018

                     49                     50                     51
                      A                      A                      A
 Frequencies --   3073.1104              3076.0797              3088.8172
 Red. masses --      1.0706                 1.0355                 1.0822
 Frc consts  --      5.9569                 5.7727                 6.0832
 IR Inten    --     15.2396                10.2171                59.1060

                     52                     53                     54
                      A                      A                      A
 Frequencies --   3118.5400              3143.3981              3151.6744
 Red. masses --      1.0869                 1.1033                 1.1029
 Frc consts  --      6.2280                 6.4230                 6.4547
 IR Inten    --     17.8550                 1.9159                22.0687

                     55                     56                     57
                      A                      A                      A
 Frequencies --   3153.8863              3156.5857              3159.8097
 Red. masses --      1.1035                 1.1041                 1.1028
 Frc consts  --      6.4673                 6.4819                 6.4872
 IR Inten    --     13.1086                16.9398                18.2921

 - Thermochemistry -
 -------------------
 Temperature   298.150 Kelvin.  Pressure   1.00000 Atm.
 Atom     1 has atomic number  6 and mass  12.00000

 Molecular mass:   158.05791 amu.
 Principal axes and moments of inertia in atomic units:
                           1         2         3
     Eigenvalues --   923.506951765.568662068.19828
           X            0.99876   0.04779   0.01391
           Y           -0.04852   0.99715   0.05775
           Z           -0.01111  -0.05836   0.99823
 This molecule is an asymmetric top.
 Rotational symmetry number  1.
 Warning -- assumption of classical behavior for rotation
           may cause significant error
 Rotational temperatures (Kelvin)      0.09379     0.04906     0.04188
 Rotational constants (GHZ):           1.95423     1.02219     0.87262
 Zero-point vibrational energy     448953.7 (Joules/Mol)
                                  107.30252 (Kcal/Mol)
 Warning -- explicit consideration of  13 degrees of freedom as
           vibrations may cause significant error
 Vibrational temperatures:     46.11   138.50   214.15   292.76   309.22
          (Kelvin)            356.50   430.41   505.22   551.18   599.99
                              687.24   736.13   828.97   907.44   991.34
                             1060.50  1119.87  1154.92  1209.17  1308.24
                             1319.93  1354.51  1379.18  1432.91  1465.03
                             1476.99  1558.84  1607.58  1649.92  1713.64
                             1723.46  1797.70  1805.52  1824.75  1862.37
                             1895.52  1954.24  1999.69  2034.15  2062.71
                             2080.72  2163.11  2171.88  2194.90  2202.74
                             2206.87  2727.45  4418.15  4421.52  4425.79
                             4444.12  4486.88  4522.65  4534.56  4537.74
                             4541.62  4546.26

 Zero-point correction=                           0.170997 (Hartree/Particle)
 Thermal correction to Energy=                    0.180817
 Thermal correction to Enthalpy=                  0.181761
 Thermal correction to Gibbs Free Energy=         0.135338
 Sum of electronic and zero-point Energies=           -573.517413
 Sum of electronic and thermal Energies=              -573.507594
 Sum of electronic and thermal Enthalpies=            -573.506650
 Sum of electronic and thermal Free Energies=         -573.553073

                     E (Thermal)             CV                S
                      KCal/Mol        Cal/Mol-Kelvin    Cal/Mol-Kelvin
 Total                  113.464             37.341             97.705
 Electronic               0.000              0.000              0.000
 Translational            0.889              2.981             41.083
 Rotational               0.889              2.981             29.601
 Vibrational            111.687             31.379             27.021
 Vibration     1          0.594              1.983              5.698
 Vibration     2          0.603              1.952              3.529
 Vibration     3          0.618              1.904              2.687
 Vibration     4          0.639              1.835              2.101
 Vibration     5          0.645              1.818              2.001
 Vibration     6          0.661              1.766              1.746
 Vibration     7          0.692              1.675              1.422
 Vibration     8          0.728              1.573              1.161
 Vibration     9          0.752              1.506              1.027
 Vibration    10          0.780              1.433              0.902
 Vibration    11          0.834              1.300              0.716
 Vibration    12          0.867              1.224              0.630
 Vibration    13          0.933              1.083              0.493

 Optimization completed.
    -- Stationary point found.

 1\1\GINC-NODE104\Freq\RB3LYP\6-31G(d)\C7H10O4\VSC10255\08-Dec-2020\0\\
 #N Geom=AllCheck Guess=TCheck SCRF=Check GenChk RB3LYP/6-31G(d) Freq\\
 CID_496107_JID_1175_neutraal\\0,1\C,1.0704340377,0.0601225567,-0.42256
 4645\C,0.1981180281,1.2827629117,-0.6965835721\O,0.7415222815,2.021383
 643,-1.8073994793\C,-0.0656221273,1.8357071754,-2.9593224209\C,0.66147
 55486,1.0751334879,-4.0753039188\O,0.3386071205,-0.3219058842,-3.91866
 48785\C,-0.7214094574,-0.5001858891,-3.0802228134\O,-1.1955758905,-1.5
 775883272,-2.8458246789\C,-1.1559758281,0.8611777708,-2.4996288948\O,-

 Normal termination of Gaussian 16 at Tue Dec  8 19:26:16 2020.

 ----------------------------------------------------------------------
 # B3LYP/6-311++G(d,p) empiricaldispersion=gd3bj scf=xqc pop=npa geom=c
 heck
 ----------------------------------------------------------------------

 ------------------------------------
 CID_496107_JID_1175_Energie_neutraal
 ------------------------------------
 Structure from the checkpoint file:  "JID_1175.chk"
 Charge =  0 Multiplicity = 1

 SCF Done:  E(RB3LYP) =  -573.855903802     A.U. after   14 cycles
 Normal termination of Gaussian 16 at Tue Dec  8 19:28:09 2020.

 ----------------------------------------------------------------------
 # B3LYP/6-311++G(d,p) empiricaldispersion=gd3bj scf=xqc pop=npa geom=c
 heck
 ----------------------------------------------------------------------

 ----------------------------------
 CID_496107_JID_1175_Energie_kation
 ----------------------------------
 Structure from the checkpoint file:  "JID_1175.chk"
 Charge =  1 Multiplicity = 2

 SCF Done:  E(UB3LYP) =  -573.510486862     A.U. after   22 cycles
 Normal termination of Gaussian 16 at Tue Dec  8 19:32:11 2020.
 Gaussian 16:  ES64L-G16RevA.03 25-Dec-2016

 ---------------------------------
 CID_496107_JID_1175_Energie_anion
 ---------------------------------
 Structure from the checkpoint file:  "JID_1175.chk"
 Charge = -1 Multiplicity = 2

                         Standard orientation:
 ---------------------------------------------------------------------
 Center     Atomic      Atomic             Coordinates (Angstroms)
 Number     Number       Type             X           Y           Z
 ---------------------------------------------------------------------
      1          6           0        1.236228    0.880385    1.432452
      2          6           0        1.454895    0.125590    0.123506
      3          8           0        0.917578   -1.205660    0.241078
      4          6           0       -0.285614   -1.314422   -0.502821
      5          6           0       -1.512999   -1.546413    0.387272
      6          8           0       -2.085823   -0.252786    0.668166
      7          6           0       -1.592362    0.705552   -0.166393
      8          8           0       -1.967363    1.845538   -0.146969
      9          6           0       -0.503416    0.092679   -1.070734
     10          8           0        0.741523    0.741016   -0.955833
     11          6           0        2.917245    0.035529   -0.277394
     12          1           0        0.179910    0.885502    1.711291
     13          1           0        1.576460    1.914722    1.331148
     14          1           0        1.798873    0.396747    2.236711
     15          1           0       -0.175478   -2.100105   -1.256885
     16          1           0       -1.242449   -2.014016    1.335271
     17          1           0       -2.270861   -2.152825   -0.120425
     18          1           0       -0.823938    0.133319   -2.114776
     19          1           0        3.335018    1.038107   -0.406899
     20          1           0        3.486429   -0.487122    0.496421
     21          1           0        3.004839   -0.512588   -1.218719
 ---------------------------------------------------------------------

 SCF Done:  E(UB3LYP) =  -573.844740475     A.U. after   31 cycles

 The electronic state is 2-A.
 Alpha  occ. eigenvalues --  -19.06786 -19.04070 -19.03294 -19.01125 -10.19468
 Alpha  occ. eigenvalues --  -10.18383 -10.13873 -10.13234 -10.13103 -10.06688
 Alpha  occ. eigenvalues --  -10.06263  -1.01440  -0.99154  -0.93172  -0.90573
 Alpha  occ. eigenvalues --   -0.71972  -0.64823  -0.62560  -0.60353  -0.53232
 Alpha  occ. eigenvalues --   -0.50163  -0.46381  -0.43773  -0.41304  -0.38146
 Alpha  occ. eigenvalues --   -0.37748  -0.36382  -0.35562  -0.33922  -0.33141
 Alpha  occ. eigenvalues --   -0.30965  -0.29903  -0.28793  -0.28317  -0.27839
 Alpha  occ. eigenvalues --   -0.26392  -0.25014  -0.24470  -0.20767  -0.20612
 Alpha  occ. eigenvalues --   -0.17126  -0.15677   0.04697
 Alpha virt. eigenvalues --    0.07134   0.07930   0.08885   0.09374   0.09950
 Alpha virt. eigenvalues --    0.10601   0.10843   0.12036   0.13084   0.13646
 Alpha virt. eigenvalues --    0.14711   0.15172   0.16506   0.16875   0.17345

  Beta  occ. eigenvalues --  -19.06759 -19.04059 -19.03283 -19.01096 -10.19411
  Beta  occ. eigenvalues --  -10.18385 -10.13855 -10.13197 -10.13072 -10.06671
  Beta  occ. eigenvalues --  -10.06228  -1.01382  -0.99116  -0.93118  -0.90544
  Beta  occ. eigenvalues --   -0.71920  -0.64766  -0.62462  -0.60301  -0.53180
  Beta  occ. eigenvalues --   -0.50106  -0.46290  -0.43665  -0.41218  -0.38085
  Beta  occ. eigenvalues --   -0.37694  -0.36326  -0.35458  -0.33866  -0.33064
  Beta  occ. eigenvalues --   -0.30899  -0.29853  -0.28741  -0.28243  -0.27793
  Beta  occ. eigenvalues --   -0.26343  -0.24990  -0.24428  -0.20738  -0.20454
  Beta  occ. eigenvalues --   -0.17076  -0.15638
  Beta virt. eigenvalues --    0.07206   0.08422   0.08554   0.09387   0.09832
  Beta virt. eigenvalues --    0.10699   0.11405   0.11485   0.12447   0.13204
  Beta virt. eigenvalues --    0.14142   0.14907   0.15225   0.16539   0.16996

 Mulliken charges and spin densities:
               1          2
     1  C   -0.120162   0.027453
     2  C   -1.173813   0.210524
     3  O   -0.016384   0.017358
     4  C    0.147908   0.015549
     5  C    1.504758  -1.942227
     6  O   -0.037836   0.011597
     7  C    0.298880  -0.318266
     8  O   -0.284330   0.011893
     9  C   -0.237798   0.262295
    10  O    0.042950  -0.011030
    11  C    1.997694  -2.337506
    12  H    0.180900   0.018018
    13  H    0.089391   0.062461
    14  H   -0.037151   0.198520
    15  H   -1.238272   1.490635
    16  H    0.074922   0.114452
    17  H   -0.651760   0.851104
    18  H   -1.020471   1.312347
    19  H   -0.098306   0.248502
    20  H   -0.120004   0.274381
    21  H   -0.301117   0.481941
 Sum of Mulliken charges =  -1.00000   1.00000

 Dipole moment (field-independent basis, Debye):
    X=              1.5247    Y=              3.3299    Z=              5.4241  Tot=              6.5447
 Quadrupole moment (field-independent basis, Debye-Ang):
   XX=           -109.8319   YY=           -108.6995   ZZ=           -101.5474
   XY=              1.0601   XZ=             -1.7429   YZ=             -8.0330

 Summary of Natural Population Analysis:

                                       Natural Population
                Natural  -----------------------------------------------
    Atom  No    Charge         Core      Valence    Rydberg      Total
 -----------------------------------------------------------------------
      C    1   -0.30538      0.99958     2.29914    0.00667     3.30538
      C    2    0.29252      0.99958     1.68698    0.02092     2.70748
      O    3   -0.31016      0.99987     3.30028    0.01002     4.31016
      C    4    0.04081      0.99955     1.94267    0.01698     2.95919
      C    5   -0.01788      0.99956     2.00611    0.01222     3.01788
      O    6   -0.27373      0.99986     3.26649    0.00737     4.27373
      C    7    0.39839      0.99969     1.57459    0.02733     2.60161
      O    8   -0.28695      0.99986     3.28085    0.00624     4.28695
      C    9    0.00745      0.99950     1.97612    0.01694     2.99255
      O   10   -0.29440      0.99987     3.28521    0.00931     4.29440
      C   11   -0.29613      0.99958     2.28955    0.00699     3.29613
      H   12    0.10606      0.00000     0.39288    0.00107     0.39394
      H   13    0.10389      0.00000     0.39539    0.00073     0.39611
      H   14    0.10353      0.00000     0.39562    0.00085     0.39647
      H   15    0.10533      0.00000     0.38154    0.01313     0.39467
      H   16    0.09695      0.00000     0.40167    0.00138     0.40305
      H   17    0.09490      0.00000     0.40177    0.00333     0.40510
      H   18    0.11742      0.00000     0.37785    0.00473     0.38258
      H   19    0.10277      0.00000     0.39621    0.00102     0.39723
      H   20    0.10392      0.00000     0.39493    0.00115     0.39608
      H   21    0.11070      0.00000     0.38775    0.00154     0.38930
 =======================================================================
   * Total *   -0.00000     10.99649    30.83360    0.16992    42.00000

 Normal termination of Gaussian 16 at Tue Dec  8 19:37:46 2020.
