 Gaussian 16, Revision A.03,

 -----------------------------------------------------------
 # opt freq B3LYP/6-31G(d) empiricaldispersion=gd3bj scf=xqc
 -----------------------------------------------------------

 -------------------------------
 CID_126978749_JID_2371_neutraal
 -------------------------------
 Symbolic Z-matrix:
 Charge =  0 Multiplicity = 1

 SCF Done:  E(RB3LYP) =  -520.103841390     A.U. after   14 cycles
 SCF Done:  E(RB3LYP) =  -520.105895962     A.U. after   12 cycles
 SCF Done:  E(RB3LYP) =  -520.106445518     A.U. after   12 cycles
 SCF Done:  E(RB3LYP) =  -520.106873493     A.U. after   11 cycles
 SCF Done:  E(RB3LYP) =  -520.107299608     A.U. after   13 cycles
 SCF Done:  E(RB3LYP) =  -520.107455530     A.U. after   11 cycles
 SCF Done:  E(RB3LYP) =  -520.107599718     A.U. after   11 cycles
 SCF Done:  E(RB3LYP) =  -520.107567233     A.U. after   12 cycles
 SCF Done:  E(RB3LYP) =  -520.107630995     A.U. after   11 cycles
 SCF Done:  E(RB3LYP) =  -520.107630960     A.U. after   10 cycles
 SCF Done:  E(RB3LYP) =  -520.107635423     A.U. after   10 cycles
 SCF Done:  E(RB3LYP) =  -520.107635629     A.U. after    9 cycles
 SCF Done:  E(RB3LYP) =  -520.107635941     A.U. after    8 cycles
 SCF Done:  E(RB3LYP) =  -520.107635998     A.U. after    7 cycles
 Optimization completed.
    -- Stationary point found.
 Normal termination of Gaussian 16 at Wed Dec  9 17:16:35 2020.

 --------------------------------------------------------------------
 #N Geom=AllCheck Guess=TCheck SCRF=Check GenChk RB3LYP/6-31G(d) Freq
 --------------------------------------------------------------------

 Structure from the checkpoint file:  "JID_2371.chk"
 -------------------------------
 CID_126978749_JID_2371_neutraal
 -------------------------------
 Charge =  0 Multiplicity = 1

 SCF Done:  E(RB3LYP) =  -520.107635998     A.U. after    1 cycles

  Exact polarizability: 127.638   1.337 107.626  12.316   4.942  81.902
 Approx polarizability: 171.228  -2.275 170.610  23.409  13.317 123.691

                      1                      2                      3
                      A                      A                      A
 Frequencies --     41.6421                93.8927               105.8439
 Red. masses --      3.7037                 3.5519                 4.8679
 Frc consts  --      0.0038                 0.0184                 0.0321
 IR Inten    --      1.3344                 0.3846                 0.1968

                      4                      5                      6
                      A                      A                      A
 Frequencies --    198.7097               242.9551               273.9573
 Red. masses --      2.8581                 3.4608                 2.3273
 Frc consts  --      0.0665                 0.1204                 0.1029
 IR Inten    --      1.5040                 1.9394                15.8799

                      7                      8                      9
                      A                      A                      A
 Frequencies --    292.8183               337.1011               363.2882
 Red. masses --      1.3469                 2.6349                 2.5996
 Frc consts  --      0.0680                 0.1764                 0.2021
 IR Inten    --     39.9360                 3.3593                47.7310

                     10                     11                     12
                      A                      A                      A
 Frequencies --    376.0231               439.8273               469.5036
 Red. masses --      3.1966                 1.6063                 1.6898
 Frc consts  --      0.2663                 0.1831                 0.2195
 IR Inten    --      9.6462                49.1721                14.3528

                     13                     14                     15
                      A                      A                      A
 Frequencies --    490.5468               513.1840               602.0076
 Red. masses --      3.2563                 2.5005                 2.7729
 Frc consts  --      0.4617                 0.3880                 0.5921
 IR Inten    --      2.0367                 1.2629                 0.6578

                     16                     17                     18
                      A                      A                      A
 Frequencies --    628.8918               646.3991               696.1661
 Red. masses --      3.2955                 3.1558                 1.2706
 Frc consts  --      0.7679                 0.7769                 0.3628
 IR Inten    --      0.4026                 1.1427                44.7428

                     19                     20                     21
                      A                      A                      A
 Frequencies --    747.2751               795.9977               804.6751
 Red. masses --      2.6945                 1.6094                 1.5455
 Frc consts  --      0.8865                 0.6008                 0.5896
 IR Inten    --     12.5338                19.5633                16.4054

                     22                     23                     24
                      A                      A                      A
 Frequencies --    858.5374               863.4084               891.9922
 Red. masses --      1.6741                 1.7188                 1.4804
 Frc consts  --      0.7270                 0.7549                 0.6940
 IR Inten    --      1.4564                 2.4298                 2.6547

                     25                     26                     27
                      A                      A                      A
 Frequencies --    903.4472               912.5426               928.3545
 Red. masses --      4.4381                 2.1353                 2.2890
 Frc consts  --      2.1343                 1.0476                 1.1623
 IR Inten    --      2.6721                 2.3838                 1.0025

                     28                     29                     30
                      A                      A                      A
 Frequencies --    981.9793               997.1056              1047.1463
 Red. masses --      2.5854                 2.0166                 1.7187
 Frc consts  --      1.4689                 1.1813                 1.1103
 IR Inten    --     18.5661                 7.3658                 0.7877

                     31                     32                     33
                      A                      A                      A
 Frequencies --   1067.3073              1077.8257              1081.8026
 Red. masses --      1.4409                 1.5548                 2.3362
 Frc consts  --      0.9671                 1.0642                 1.6108
 IR Inten    --     12.1337                10.6487               111.1433

                     34                     35                     36
                      A                      A                      A
 Frequencies --   1106.1516              1118.4617              1140.2285
 Red. masses --      2.0701                 1.7956                 1.5070
 Frc consts  --      1.4924                 1.3234                 1.1543
 IR Inten    --      5.2093                41.1437                 7.9185

                     37                     38                     39
                      A                      A                      A
 Frequencies --   1149.1677              1166.2027              1202.2982
 Red. masses --      1.9815                 1.4391                 1.2641
 Frc consts  --      1.5417                 1.1532                 1.0766
 IR Inten    --      3.1397                 2.0238                 8.0970

                     40                     41                     42
                      A                      A                      A
 Frequencies --   1236.1746              1248.3666              1282.2525
 Red. masses --      1.4956                 2.3671                 1.2928
 Frc consts  --      1.3466                 2.1735                 1.2523
 IR Inten    --      5.6381                 3.8002                 0.7123

                     43                     44                     45
                      A                      A                      A
 Frequencies --   1299.2517              1307.3386              1350.5123
 Red. masses --      1.3988                 1.4391                 1.4097
 Frc consts  --      1.3912                 1.4492                 1.5148
 IR Inten    --      1.1578                10.9345                 4.1475

                     46                     47                     48
                      A                      A                      A
 Frequencies --   1353.5209              1375.3348              1389.0743
 Red. masses --      1.3565                 1.7147                 1.4172
 Frc consts  --      1.4642                 1.9110                 1.6112
 IR Inten    --      4.8995                17.0199                 7.9153

                     49                     50                     51
                      A                      A                      A
 Frequencies --   1401.5011              1405.1066              1418.9564
 Red. masses --      1.4151                 1.4046                 1.4980
 Frc consts  --      1.6376                 1.6339                 1.7770
 IR Inten    --      5.6651                 5.5620                12.2189

                     52                     53                     54
                      A                      A                      A
 Frequencies --   1448.4831              1456.7070              1466.7044
 Red. masses --      1.3014                 2.7820                 3.1129
 Frc consts  --      1.6088                 3.4782                 3.9455
 IR Inten    --     36.3720                15.9338                10.7628

                     55                     56                     57
                      A                      A                      A
 Frequencies --   1510.6025              1516.2328              1518.5920
 Red. masses --      1.3850                 2.1941                 1.1295
 Frc consts  --      1.8621                 2.9719                 1.5346
 IR Inten    --      3.8641                 3.0966                 2.3373

                     58                     59                     60
                      A                      A                      A
 Frequencies --   1521.6341              1535.9663              1626.1815
 Red. masses --      1.1116                 1.1067                 3.6734
 Frc consts  --      1.5164                 1.5384                 5.7234
 IR Inten    --      7.8504                 7.1777                 7.3048

                     61                     62                     63
                      A                      A                      A
 Frequencies --   2991.6622              2999.5644              3019.3132
 Red. masses --      1.0817                 1.0708                 1.0702
 Frc consts  --      5.7041                 5.6766                 5.7484
 IR Inten    --     27.9363                26.9063                41.6372

                     64                     65                     66
                      A                      A                      A
 Frequencies --   3034.3473              3045.5746              3065.8734
 Red. masses --      1.0626                 1.0654                 1.0973
 Frc consts  --      5.7644                 5.8221                 6.0767
 IR Inten    --     63.4364                11.7885                64.4128

                     67                     68                     69
                      A                      A                      A
 Frequencies --   3085.8984              3087.5019              3096.6468
 Red. masses --      1.0906                 1.1014                 1.0905
 Frc consts  --      6.1190                 6.1858                 6.1610
 IR Inten    --     40.8567                33.8319                24.0510

                     70                     71                     72
                      A                      A                      A
 Frequencies --   3109.3127              3253.6572              3266.9810
 Red. masses --      1.0918                 1.0892                 1.0956
 Frc consts  --      6.2188                 6.7938                 6.8897
 IR Inten    --     49.7042                 7.1980                 5.9320

                     73                     74                     75
                      A                      A                      A
 Frequencies --   3282.1721              3669.8396              3717.7167
 Red. masses --      1.1039                 1.0797                 1.0657
 Frc consts  --      7.0065                 8.5674                 8.6784
 IR Inten    --      5.0573                35.4463                 5.1685

 - Thermochemistry -
 -------------------
 Temperature   298.150 Kelvin.  Pressure   1.00000 Atm.
 Atom     1 has atomic number  6 and mass  12.00000

 Molecular mass:   165.11536 amu.
 Principal axes and moments of inertia in atomic units:
                           1         2         3
     Eigenvalues --  1088.224322766.374163253.81508
           X            0.99991   0.01213   0.00494
           Y           -0.01209   0.99990  -0.00756
           Z           -0.00503   0.00750   0.99996
 This molecule is an asymmetric top.
 Rotational symmetry number  1.
 Warning -- assumption of classical behavior for rotation
           may cause significant error
 Rotational temperatures (Kelvin)      0.07959     0.03131     0.02662
 Rotational constants (GHZ):           1.65843     0.65239     0.55465
 Zero-point vibrational energy     628333.9 (Joules/Mol)
                                  150.17540 (Kcal/Mol)
 Warning -- explicit consideration of  15 degrees of freedom as
           vibrations may cause significant error
 Vibrational temperatures:     59.91   135.09   152.29   285.90   349.56
          (Kelvin)            394.16   421.30   485.01   522.69   541.01
                              632.81   675.51   705.79   738.36   866.15
                              904.84   930.02  1001.63  1075.16  1145.26
                             1157.75  1235.24  1242.25  1283.38  1299.86
                             1312.95  1335.70  1412.85  1434.61  1506.61
                             1535.62  1550.75  1556.47  1591.51  1609.22
                             1640.53  1653.40  1677.91  1729.84  1778.58
                             1796.12  1844.88  1869.33  1880.97  1943.09
                             1947.41  1978.80  1998.57  2016.45  2021.63
                             2041.56  2084.04  2095.88  2110.26  2173.42
                             2181.52  2184.92  2189.29  2209.91  2339.71
                             4304.33  4315.70  4344.12  4365.75  4381.90
                             4411.11  4439.92  4442.23  4455.38  4473.61
                             4681.29  4700.46  4722.31  5280.08  5348.97

 Zero-point correction=                           0.239320 (Hartree/Particle)
 Thermal correction to Energy=                    0.250054
 Thermal correction to Enthalpy=                  0.250999
 Thermal correction to Gibbs Free Energy=         0.202800
 Sum of electronic and zero-point Energies=           -519.868316
 Sum of electronic and thermal Energies=              -519.857582
 Sum of electronic and thermal Enthalpies=            -519.856637
 Sum of electronic and thermal Free Energies=         -519.904836

                     E (Thermal)             CV                S
                      KCal/Mol        Cal/Mol-Kelvin    Cal/Mol-Kelvin
 Total                  156.912             43.322            101.443
 Electronic               0.000              0.000              0.000
 Translational            0.889              2.981             41.213
 Rotational               0.889              2.981             30.661
 Vibrational            155.134             37.360             29.569
 Vibration     1          0.594              1.981              5.179
 Vibration     2          0.603              1.954              3.577
 Vibration     3          0.605              1.945              3.344
 Vibration     4          0.637              1.842              2.145
 Vibration     5          0.659              1.774              1.781
 Vibration     6          0.676              1.721              1.571
 Vibration     7          0.688              1.687              1.458
 Vibration     8          0.718              1.601              1.226
 Vibration     9          0.737              1.548              1.108
 Vibration    10          0.747              1.521              1.055
 Vibration    11          0.800              1.383              0.827
 Vibration    12          0.827              1.318              0.739
 Vibration    13          0.846              1.271              0.682
 Vibration    14          0.868              1.221              0.626
 Vibration    15          0.960              1.028              0.446

 Optimization completed.
    -- Stationary point found.
 Normal termination of Gaussian 16 at Wed Dec  9 17:23:36 2020.

 ----------------------------------------------------------------------
 # B3LYP/6-311++G(d,p) empiricaldispersion=gd3bj scf=xqc pop=npa geom=c
 heck
 ----------------------------------------------------------------------

 ---------------------------------------
 CID_126978749_JID_2371_Energie_neutraal
 ---------------------------------------
 Structure from the checkpoint file:  "JID_2371.chk"
 Charge =  0 Multiplicity = 1

 SCF Done:  E(RB3LYP) =  -520.262828507     A.U. after   14 cycles
 Normal termination of Gaussian 16 at Wed Dec  9 17:26:47 2020.

 ----------------------------------------------------------------------
 # B3LYP/6-311++G(d,p) empiricaldispersion=gd3bj scf=xqc pop=npa geom=c
 heck
 ----------------------------------------------------------------------

 -------------------------------------
 CID_126978749_JID_2371_Energie_kation
 -------------------------------------
 Structure from the checkpoint file:  "JID_2371.chk"
 Charge =  1 Multiplicity = 2

 SCF Done:  E(UB3LYP) =  -519.979275443     A.U. after   23 cycles
 Normal termination of Gaussian 16 at Wed Dec  9 17:32:05 2020.
 Gaussian 16:  ES64L-G16RevA.03 25-Dec-2016

 ----------------------------------------------------------------------
 # B3LYP/6-311++G(d,p) empiricaldispersion=gd3bj scf=xqc pop=npa geom=c
 heck
 ----------------------------------------------------------------------

 ------------------------------------
 CID_126978749_JID_2371_Energie_anion
 ------------------------------------
 Structure from the checkpoint file:  "JID_2371.chk"
 Charge = -1 Multiplicity = 2

                         Standard orientation:
 ---------------------------------------------------------------------
 Center     Atomic      Atomic             Coordinates (Angstroms)
 Number     Number       Type             X           Y           Z
 ---------------------------------------------------------------------
      1          6           0        1.114888    1.582713   -0.944583
      2          6           0        0.527627    1.824215    0.450369
      3          6           0        0.027366    0.512574    1.101156
      4          6           0        1.177909   -0.513901    1.127266
      5          6           0        1.809051   -0.753724   -0.250863
      6          6           0        2.261644    0.564168   -0.885646
      7          8           0        2.873330   -1.701363   -0.173531
      8          6           0       -1.199101   -0.037906    0.419585
      9          6           0       -1.536562   -1.311798   -0.000878
     10          6           0       -2.857065   -1.267949   -0.537373
     11          6           0       -3.299106    0.031229   -0.432439
     12          7           0       -2.288504    0.766137    0.146392
     13          1           0        0.325969    1.206161   -1.608440
     14          1           0        1.468937    2.527309   -1.374309
     15          1           0       -0.279443    2.566615    0.400050
     16          1           0        1.298821    2.258848    1.101334
     17          1           0       -0.234571    0.740896    2.146038
     18          1           0        0.839421   -1.467510    1.545255
     19          1           0        1.960991   -0.131947    1.799695
     20          1           0        1.071056   -1.223174   -0.907664
     21          1           0        3.085057    0.979386   -0.281628
     22          1           0        2.667623    0.364668   -1.883657
     23          1           0        3.557298   -1.314246    0.396845
     24          1           0       -0.904950   -2.185927    0.070969
     25          1           0       -3.412363   -2.096069   -0.955883
     26          1           0       -4.231090    0.494749   -0.721164
     27          1           0       -2.339775    1.750454    0.356502
 ---------------------------------------------------------------------

 SCF Done:  E(UB3LYP) =  -520.251845002     A.U. after   32 cycles

 The electronic state is 2-A.
 Alpha  occ. eigenvalues --  -19.02261 -14.24511 -10.11479 -10.08981 -10.08520
 Alpha  occ. eigenvalues --  -10.07986 -10.06406 -10.06246 -10.06144 -10.05984
 Alpha  occ. eigenvalues --  -10.05278 -10.04883  -0.92402  -0.86899  -0.73190
 Alpha  occ. eigenvalues --   -0.66896  -0.65985  -0.63118  -0.60200  -0.51866
 Alpha  occ. eigenvalues --   -0.51337  -0.48385  -0.47125  -0.46191  -0.40893
 Alpha  occ. eigenvalues --   -0.39722  -0.35727  -0.34833  -0.33415  -0.33339
 Alpha  occ. eigenvalues --   -0.32863  -0.31120  -0.29897  -0.28969  -0.27884
 Alpha  occ. eigenvalues --   -0.27610  -0.26856  -0.25093  -0.23813  -0.22500
 Alpha  occ. eigenvalues --   -0.22033  -0.20530  -0.17084  -0.14341  -0.10559
 Alpha  occ. eigenvalues --    0.04412
 Alpha virt. eigenvalues --    0.06521   0.07798   0.08150   0.08855   0.09298
 Alpha virt. eigenvalues --    0.10193   0.11008   0.11377   0.11715   0.12375
 Alpha virt. eigenvalues --    0.12645   0.13125   0.13895   0.14911   0.15324

  Beta  occ. eigenvalues --  -19.02244 -14.24466 -10.11480 -10.08979 -10.08504
  Beta  occ. eigenvalues --  -10.07977 -10.06388 -10.06228 -10.06132 -10.05943
  Beta  occ. eigenvalues --  -10.05277 -10.04877  -0.92371  -0.86846  -0.73152
  Beta  occ. eigenvalues --   -0.66844  -0.65954  -0.63075  -0.60162  -0.51824
  Beta  occ. eigenvalues --   -0.51279  -0.48304  -0.47061  -0.46163  -0.40845
  Beta  occ. eigenvalues --   -0.39658  -0.35687  -0.34802  -0.33371  -0.33288
  Beta  occ. eigenvalues --   -0.32816  -0.31099  -0.29860  -0.28947  -0.27858
  Beta  occ. eigenvalues --   -0.27574  -0.26823  -0.25057  -0.23766  -0.22458
  Beta  occ. eigenvalues --   -0.21999  -0.20493  -0.17062  -0.14314  -0.10538
  Beta virt. eigenvalues --    0.07018   0.07564   0.08439   0.08664   0.09278
  Beta virt. eigenvalues --    0.09882   0.10855   0.11427   0.11629   0.12088
  Beta virt. eigenvalues --    0.12596   0.13054   0.13504   0.14186   0.15218

 Mulliken charges and spin densities:
               1          2
     1  C   -0.363500   0.118307
     2  C    1.160185  -1.751254
     3  C   -0.575172   1.104786
     4  C   -0.239002  -0.549131
     5  C   -0.411666   0.166818
     6  C    0.539752  -0.896138
     7  O   -0.220682   0.013571
     8  C    1.139425  -2.061410
     9  C    0.330101   0.374140
    10  C    0.353352  -0.953113
    11  C   -0.112433   0.146400
    12  N   -0.204276   0.225179
    13  H    0.197187  -0.065138
    14  H   -0.372306   0.560961
    15  H   -0.646534   0.800806
    16  H   -0.278231   0.430693
    17  H   -0.284223   0.531031
    18  H    0.079660   0.083397
    19  H   -0.432922   0.591233
    20  H    0.166984   0.010346
    21  H   -0.200675   0.339993
    22  H    0.059942   0.111909
    23  H    0.136106   0.104165
    24  H    0.086504   0.071541
    25  H    0.093650   0.035555
    26  H   -0.720473   0.879675
    27  H   -0.280752   0.575678
 Sum of Mulliken charges =  -1.00000   1.00000

 Dipole moment (field-independent basis, Debye):
    X=              1.1263    Y=             -5.3207    Z=             -1.9316  Tot=              5.7714
 Quadrupole moment (field-independent basis, Debye-Ang):
   XX=           -133.1050   YY=           -122.6488   ZZ=           -104.7112
   XY=              8.0934   XZ=             -1.4643   YZ=             -3.6349

 Summary of Natural Population Analysis:

                                       Natural Population
                Natural  -----------------------------------------------
    Atom  No    Charge         Core      Valence    Rydberg      Total
 -----------------------------------------------------------------------
      C    1   -0.19290      0.99962     2.18433    0.00895     3.19290
      C    2   -0.18430      0.99961     2.17438    0.01031     3.18430
      C    3   -0.12567      0.99956     2.11336    0.01275     3.12567
      C    4   -0.19667      0.99960     2.18649    0.01057     3.19667
      C    5    0.06116      0.99953     1.92704    0.01227     2.93884
      C    6   -0.19887      0.99961     2.19006    0.00920     3.19887
      O    7   -0.37212      0.99990     3.36595    0.00628     4.37212
      C    8    0.07388      0.99953     1.91190    0.01469     2.92612
      C    9   -0.15198      0.99950     2.14532    0.00717     3.15198
      C   10   -0.15102      0.99957     2.14169    0.00976     3.15102
      C   11   -0.02466      0.99957     2.01137    0.01372     3.02466
      N   12   -0.26582      0.99965     2.75508    0.01108     3.76582
      H   13    0.09769      0.00000     0.40086    0.00144     0.40231
      H   14    0.10081      0.00000     0.39816    0.00103     0.39919
      H   15    0.10237      0.00000     0.39434    0.00329     0.39763
      H   16    0.09961      0.00000     0.39764    0.00275     0.40039
      H   17    0.10764      0.00000     0.39032    0.00204     0.39236
      H   18    0.10381      0.00000     0.39501    0.00117     0.39619
      H   19    0.09871      0.00000     0.39972    0.00157     0.40129
      H   20    0.08871      0.00000     0.40912    0.00216     0.41129
      H   21    0.09266      0.00000     0.40576    0.00158     0.40734
      H   22    0.09977      0.00000     0.39932    0.00091     0.40023
      H   23    0.22459      0.00000     0.27266    0.00275     0.27541
      H   24    0.10401      0.00000     0.39515    0.00083     0.39599
      H   25    0.10039      0.00000     0.39899    0.00062     0.39961
      H   26    0.10004      0.00000     0.39870    0.00125     0.39996
      H   27    0.20813      0.00000     0.28214    0.00973     0.29187
 =======================================================================
   * Total *    0.00000     11.99524    32.84490    0.15986    45.00000

 Normal termination of Gaussian 16 at Wed Dec  9 17:39:40 2020.
