 Gaussian 16, Revision A.03,

 -----------------------------------------------------------
 # opt freq B3LYP/6-31G(d) empiricaldispersion=gd3bj scf=xqc
 -----------------------------------------------------------

 ------------------------------
 CID_12576818_JID_1216_neutraal
 ------------------------------
 Symbolic Z-matrix:
 Charge =  0 Multiplicity = 1

 SCF Done:  E(RB3LYP) =  -463.296736753     A.U. after   13 cycles
 SCF Done:  E(RB3LYP) =  -463.300547407     A.U. after   11 cycles
 SCF Done:  E(RB3LYP) =  -463.300373828     A.U. after   11 cycles
 SCF Done:  E(RB3LYP) =  -463.301619610     A.U. after   11 cycles
 SCF Done:  E(RB3LYP) =  -463.302052618     A.U. after   10 cycles
 SCF Done:  E(RB3LYP) =  -463.302109418     A.U. after   10 cycles
 SCF Done:  E(RB3LYP) =  -463.302118264     A.U. after    8 cycles
 SCF Done:  E(RB3LYP) =  -463.302119159     A.U. after    7 cycles
 Optimization completed.
    -- Stationary point found.

 1\1\GINC-NODE118\FOpt\RB3LYP\6-31G(d)\C9H18N2\VSC10255\08-Dec-2020\0\\
 # opt freq B3LYP/6-31G(d) empiricaldispersion=gd3bj scf=xqc\\CID_12576
 818_JID_1216_neutraal\\0,1\C,0.9489355736,-0.0386893474,-0.0442119572\
 C,0.6476412249,1.0446170311,1.0132772984\C,1.6933371049,2.1655813358,0
 .8569686052\C,-0.7518761157,1.6336766206,0.7938304397\N,0.7445600182,0
 .6044081708,2.4246210397\C,-0.3323316128,-0.1616626524,3.0867858673\C,
 -0.5926179068,-1.5452432249,2.4447621762\C,0.7674039624,-2.2684005431,
 2.6978253945\C,1.5322798436,-1.2487736814,3.5681709972\C,0.3974157923,

 Normal termination of Gaussian 16 at Tue Dec  8 19:28:07 2020.

 --------------------------------------------------------------------
 #N Geom=AllCheck Guess=TCheck SCRF=Check GenChk RB3LYP/6-31G(d) Freq
 --------------------------------------------------------------------

 Structure from the checkpoint file:  "JID_1216.chk"
 ------------------------------
 CID_12576818_JID_1216_neutraal
 ------------------------------
 Charge =  0 Multiplicity = 1

 SCF Done:  E(RB3LYP) =  -463.302119159     A.U. after    1 cycles

  Exact polarizability: 116.805   0.065  97.825  -1.079  -0.161  93.228
 Approx polarizability: 151.580  -0.054 145.324  -2.020  -1.846 137.398

                      1                      2                      3
                      A                      A                      A
 Frequencies --     74.6721               129.0796               202.6991
 Red. masses --      2.6940                 3.0433                 1.3026
 Frc consts  --      0.0089                 0.0299                 0.0315
 IR Inten    --      0.2028                 1.1659                 0.0529

                      4                      5                      6
                      A                      A                      A
 Frequencies --    222.9649               264.4971               279.5755
 Red. masses --      2.1631                 1.1651                 1.6727
 Frc consts  --      0.0634                 0.0480                 0.0770
 IR Inten    --      0.6233                 0.2805                 0.2557

                      7                      8                      9
                      A                      A                      A
 Frequencies --    301.6800               320.1384               344.6485
 Red. masses --      1.3107                 1.7778                 2.5461
 Frc consts  --      0.0703                 0.1074                 0.1782
 IR Inten    --      0.2586                 1.0401                 0.5234

                     10                     11                     12
                      A                      A                      A
 Frequencies --    360.8879               389.3943               423.3459
 Red. masses --      2.3856                 2.2871                 2.3793
 Frc consts  --      0.1831                 0.2043                 0.2512
 IR Inten    --      0.4304                 0.3928                 1.8651

                     13                     14                     15
                      A                      A                      A
 Frequencies --    494.3814               500.1072               550.2991
 Red. masses --      2.7863                 1.9505                 3.4285
 Frc consts  --      0.4012                 0.2874                 0.6117
 IR Inten    --      2.9179                 0.5852                 3.6837

                     16                     17                     18
                      A                      A                      A
 Frequencies --    556.9728               679.2028               781.3850
 Red. masses --      2.8106                 4.1489                 3.6710
 Frc consts  --      0.5137                 1.1277                 1.3206
 IR Inten    --      5.3324                 3.1406                 1.4572

                     19                     20                     21
                      A                      A                      A
 Frequencies --    796.0803               819.7640               824.4226
 Red. masses --      2.8006                 2.7724                 1.6908
 Frc consts  --      1.0457                 1.0977                 0.6771
 IR Inten    --      0.7465                 5.9055                 0.5391

                     22                     23                     24
                      A                      A                      A
 Frequencies --    861.9324               894.0528               921.1634
 Red. masses --      2.4510                 2.5347                 2.5118
 Frc consts  --      1.0729                 1.1937                 1.2557
 IR Inten    --      0.7859                 4.1690                17.1319

                     25                     26                     27
                      A                      A                      A
 Frequencies --    923.1611               940.9498               953.2835
 Red. masses --      1.7959                 1.6249                 2.4559
 Frc consts  --      0.9018                 0.8476                 1.3149
 IR Inten    --      2.9115                 3.0514                 1.9521

                     28                     29                     30
                      A                      A                      A
 Frequencies --    969.3127               973.2739               984.0665
 Red. masses --      1.2178                 1.7915                 2.5035
 Frc consts  --      0.6742                 0.9999                 1.4284
 IR Inten    --      0.3081                 0.6625                17.5050

                     31                     32                     33
                      A                      A                      A
 Frequencies --   1012.0982              1034.2776              1051.6001
 Red. masses --      1.9444                 1.4261                 1.5267
 Frc consts  --      1.1735                 0.8988                 0.9948
 IR Inten    --      1.9202                20.6814                 0.7449

                     34                     35                     36
                      A                      A                      A
 Frequencies --   1058.8111              1081.8641              1112.9778
 Red. masses --      1.4327                 1.8473                 1.9427
 Frc consts  --      0.9463                 1.2739                 1.4179
 IR Inten    --      2.6447                 6.7402                 8.3067

                     37                     38                     39
                      A                      A                      A
 Frequencies --   1131.2258              1162.3492              1193.0132
 Red. masses --      1.3643                 1.2551                 1.4638
 Frc consts  --      1.0287                 0.9991                 1.2275
 IR Inten    --     12.6750                 0.3359                22.7706

                     40                     41                     42
                      A                      A                      A
 Frequencies --   1213.4382              1248.8140              1258.4820
 Red. masses --      1.9133                 1.6462                 2.2941
 Frc consts  --      1.6598                 1.5126                 2.1407
 IR Inten    --      6.8801                13.5297                16.2905

                     43                     44                     45
                      A                      A                      A
 Frequencies --   1272.3129              1279.7236              1289.9211
 Red. masses --      1.3676                 2.7816                 2.6249
 Frc consts  --      1.3044                 2.6840                 2.5733
 IR Inten    --      2.3009                58.9700                11.3366

                     46                     47                     48
                      A                      A                      A
 Frequencies --   1291.6665              1333.6705              1338.8273
 Red. masses --      1.3738                 1.5059                 1.5604
 Frc consts  --      1.3505                 1.5782                 1.6479
 IR Inten    --      1.1126                 4.4963                 1.3634

                     49                     50                     51
                      A                      A                      A
 Frequencies --   1352.9993              1367.1766              1412.2622
 Red. masses --      1.6069                 1.4242                 1.2495
 Frc consts  --      1.7331                 1.5685                 1.4683
 IR Inten    --      4.4323                 5.3342                11.7237

                     52                     53                     54
                      A                      A                      A
 Frequencies --   1420.1373              1446.0914              1460.5806
 Red. masses --      1.2617                 1.2350                 1.2070
 Frc consts  --      1.4993                 1.5217                 1.5171
 IR Inten    --     10.0831                16.3263                 3.4137

                     55                     56                     57
                      A                      A                      A
 Frequencies --   1503.4475              1510.2660              1515.9140
 Red. masses --      1.0619                 1.0763                 1.0955
 Frc consts  --      1.4142                 1.4464                 1.4833
 IR Inten    --      0.5487                 2.0455                 2.5577

                     58                     59                     60
                      A                      A                      A
 Frequencies --   1522.9634              1524.3468              1531.2573
 Red. masses --      1.0545                 1.0471                 1.0801
 Frc consts  --      1.4410                 1.4335                 1.4921
 IR Inten    --      2.4993                 0.1766                 4.2595

                     61                     62                     63
                      A                      A                      A
 Frequencies --   1535.6331              1550.7257              1555.8718
 Red. masses --      1.0558                 1.0835                 1.0577
 Frc consts  --      1.4670                 1.5352                 1.5086
 IR Inten    --      1.7412                 7.4336                 4.0759

                     64                     65                     66
                      A                      A                      A
 Frequencies --   3048.3438              3052.7218              3054.9844
 Red. masses --      1.0345                 1.0357                 1.0729
 Frc consts  --      5.6640                 5.6865                 5.8999
 IR Inten    --     26.0126                18.3477                30.2559

                     67                     68                     69
                      A                      A                      A
 Frequencies --   3063.0683              3076.7323              3081.5365
 Red. masses --      1.0399                 1.0627                 1.0596
 Frc consts  --      5.7483                 5.9271                 5.9281
 IR Inten    --     22.7078                37.8543                30.0813

                     70                     71                     72
                      A                      A                      A
 Frequencies --   3117.0299              3119.9459              3121.0266
 Red. masses --      1.1010                 1.0999                 1.0891
 Frc consts  --      6.3027                 6.3081                 6.2504
 IR Inten    --      5.9326                 7.8453                65.0046

                     73                     74                     75
                      A                      A                      A
 Frequencies --   3122.9235              3126.8346              3129.6754
 Red. masses --      1.1011                 1.1005                 1.1029
 Frc consts  --      6.3272                 6.3397                 6.3648
 IR Inten    --     27.3013                60.3166                20.3260

                     76                     77                     78
                      A                      A                      A
 Frequencies --   3130.0053              3134.2545              3137.3910
 Red. masses --      1.1022                 1.1081                 1.0899
 Frc consts  --      6.3619                 6.4136                 6.3208
 IR Inten    --     31.1626                43.5844                36.4263

                     79                     80                     81
                      A                      A                      A
 Frequencies --   3152.9778              3164.4914              3409.3260
 Red. masses --      1.0999                 1.0928                 1.0762
 Frc consts  --      6.4426                 6.4478                 7.3704
 IR Inten    --     12.0727                29.3716                 7.3863

 - Thermochemistry -
 -------------------
 Temperature   298.150 Kelvin.  Pressure   1.00000 Atm.
 Atom     1 has atomic number  6 and mass  12.00000

 Molecular mass:   154.14700 amu.
 Principal axes and moments of inertia in atomic units:
                           1         2         3
     Eigenvalues --   935.286641973.091072061.29980
           X            0.99999   0.00319  -0.00127
           Y           -0.00314   0.99935   0.03585
           Z            0.00138  -0.03584   0.99936
 This molecule is an asymmetric top.
 Rotational symmetry number  1.
 Warning -- assumption of classical behavior for rotation
           may cause significant error
 Rotational temperatures (Kelvin)      0.09261     0.04390     0.04202
 Rotational constants (GHZ):           1.92961     0.91468     0.87554
 Zero-point vibrational energy     703137.5 (Joules/Mol)
                                  168.05390 (Kcal/Mol)
 Warning -- explicit consideration of  16 degrees of freedom as
           vibrations may cause significant error
 Vibrational temperatures:    107.44   185.72   291.64   320.80   380.55
          (Kelvin)            402.25   434.05   460.61   495.87   519.24
                              560.25   609.10   711.30   719.54   791.76
                              801.36   977.22  1124.24  1145.38  1179.46
                             1186.16  1240.13  1286.34  1325.35  1328.22
                             1353.82  1371.56  1394.62  1400.32  1415.85
                             1456.18  1488.09  1513.02  1523.39  1556.56
                             1601.33  1627.58  1672.36  1716.48  1745.87
                             1796.76  1810.67  1830.57  1841.24  1855.91
                             1858.42  1918.85  1926.27  1946.66  1967.06
                             2031.93  2043.26  2080.60  2101.45  2163.13
                             2172.94  2181.06  2191.20  2193.20  2203.14
                             2209.43  2231.15  2238.55  4385.89  4392.19
                             4395.44  4407.07  4426.73  4433.64  4484.71
                             4488.91  4490.46  4493.19  4498.82  4502.90
                             4503.38  4509.49  4514.01  4536.43  4553.00
                             4905.26

 Zero-point correction=                           0.267811 (Hartree/Particle)
 Thermal correction to Energy=                    0.278355
 Thermal correction to Enthalpy=                  0.279299
 Thermal correction to Gibbs Free Energy=         0.232951
 Sum of electronic and zero-point Energies=           -463.034308
 Sum of electronic and thermal Energies=              -463.023765
 Sum of electronic and thermal Enthalpies=            -463.022820
 Sum of electronic and thermal Free Energies=         -463.069168

                     E (Thermal)             CV                S
                      KCal/Mol        Cal/Mol-Kelvin    Cal/Mol-Kelvin
 Total                  174.670             43.879             97.547
 Electronic               0.000              0.000              0.000
 Translational            0.889              2.981             41.008
 Rotational               0.889              2.981             29.721
 Vibrational            172.893             37.917             26.818
 Vibration     1          0.599              1.966              4.026
 Vibration     2          0.612              1.924              2.960
 Vibration     3          0.639              1.836              2.108
 Vibration     4          0.649              1.806              1.935
 Vibration     5          0.671              1.738              1.632
 Vibration     6          0.680              1.711              1.536
 Vibration     7          0.694              1.671              1.408
 Vibration     8          0.706              1.635              1.309
 Vibration     9          0.723              1.586              1.191
 Vibration    10          0.735              1.553              1.118
 Vibration    11          0.757              1.493              1.002
 Vibration    12          0.786              1.419              0.881
 Vibration    13          0.850              1.262              0.672
 Vibration    14          0.856              1.250              0.658
 Vibration    15          0.906              1.139              0.544
 Vibration    16          0.912              1.124              0.530

                           ! Non-Optimized Parameters !

 1\1\GINC-NODE118\Freq\RB3LYP\6-31G(d)\C9H18N2\VSC10255\08-Dec-2020\0\\
 #N Geom=AllCheck Guess=TCheck SCRF=Check GenChk RB3LYP/6-31G(d) Freq\\
 CID_12576818_JID_1216_neutraal\\0,1\C,0.9489355736,-0.0386893474,-0.04
 42119572\C,0.6476412249,1.0446170311,1.0132772984\C,1.6933371049,2.165
 5813358,0.8569686052\C,-0.7518761157,1.6336766206,0.7938304397\N,0.744
 5600182,0.6044081708,2.4246210397\C,-0.3323316128,-0.1616626524,3.0867
 858673\C,-0.5926179068,-1.5452432249,2.4447621762\C,0.7674039624,-2.26
 84005431,2.6978253945\C,1.5322798436,-1.2487736814,3.5681709972\C,0.39

 Normal termination of Gaussian 16 at Tue Dec  8 19:36:08 2020.

 ----------------------------------------------------------------------
 # B3LYP/6-311++G(d,p) empiricaldispersion=gd3bj scf=xqc pop=npa geom=c
 heck
 ----------------------------------------------------------------------

 --------------------------------------
 CID_12576818_JID_1216_Energie_neutraal
 --------------------------------------
 Structure from the checkpoint file:  "JID_1216.chk"
 Charge =  0 Multiplicity = 1

 SCF Done:  E(RB3LYP) =  -463.429866535     A.U. after   13 cycles
 Normal termination of Gaussian 16 at Tue Dec  8 19:39:31 2020.

 ----------------------------------------------------------------------
 # B3LYP/6-311++G(d,p) empiricaldispersion=gd3bj scf=xqc pop=npa geom=c
 heck
 ----------------------------------------------------------------------

 ------------------------------------
 CID_12576818_JID_1216_Energie_kation
 ------------------------------------
 Structure from the checkpoint file:  "JID_1216.chk"
 Charge =  1 Multiplicity = 2

 SCF Done:  E(UB3LYP) =  -463.164935456     A.U. after   17 cycles
 Normal termination of Gaussian 16 at Tue Dec  8 19:46:13 2020.
 Gaussian 16:  ES64L-G16RevA.03 25-Dec-2016

 -----------------------------------
 CID_12576818_JID_1216_Energie_anion
 -----------------------------------
 Structure from the checkpoint file:  "JID_1216.chk"
 Charge = -1 Multiplicity = 2

                         Standard orientation:
 ---------------------------------------------------------------------
 Center     Atomic      Atomic             Coordinates (Angstroms)
 Number     Number       Type             X           Y           Z
 ---------------------------------------------------------------------
      1          6           0       -1.520717    0.465611    1.498065
      2          6           0       -1.536209    0.032361    0.016623
      3          6           0       -2.464067   -1.191236   -0.111289
      4          6           0       -2.077457    1.163547   -0.867270
      5          7           0       -0.231209   -0.398619   -0.536820
      6          6           0        0.802487    0.568697   -0.962019
      7          6           0        1.336181    1.451380    0.191359
      8          6           0        1.997050    0.385612    1.120900
      9          6           0        1.871131   -0.908567    0.289383
     10          6           0        1.992099   -0.386422   -1.157227
     11          7           0        0.461585   -1.352917    0.357056
     12          1           0       -2.547794    0.553380    1.870349
     13          1           0       -1.037473    1.434095    1.649556
     14          1           0       -0.998644   -0.284999    2.095942
     15          1           0       -3.480162   -0.947705    0.219441
     16          1           0       -2.502657   -1.529949   -1.151711
     17          1           0       -2.094724   -2.014901    0.508454
     18          1           0       -1.484409    2.078749   -0.767300
     19          1           0       -2.079540    0.864815   -1.921265
     20          1           0       -3.105946    1.401116   -0.576278
     21          1           0        0.473419    1.114617   -1.847349
     22          1           0        0.560501    2.035675    0.685256
     23          1           0        2.077234    2.160282   -0.198083
     24          1           0        1.477855    0.277594    2.076328
     25          1           0        3.047105    0.618334    1.325868
     26          1           0        2.536344   -1.719551    0.595274
     27          1           0        2.929659    0.136367   -1.370126
     28          1           0        1.809066   -1.154614   -1.914184
     29          1           0        0.404541   -2.248450   -0.132970
 ---------------------------------------------------------------------

 SCF Done:  E(UB3LYP) =  -463.413008824     A.U. after   27 cycles

 The electronic state is 2-A.
 Alpha  occ. eigenvalues --  -14.20945 -14.20819 -10.10125 -10.08893 -10.08832
 Alpha  occ. eigenvalues --  -10.05384 -10.05360 -10.05305 -10.05241 -10.04778
 Alpha  occ. eigenvalues --  -10.04501  -0.87435  -0.73571  -0.70180  -0.65524
 Alpha  occ. eigenvalues --   -0.59825  -0.58255  -0.57737  -0.54690  -0.47797
 Alpha  occ. eigenvalues --   -0.45662  -0.42673  -0.40056  -0.37569  -0.35979
 Alpha  occ. eigenvalues --   -0.34117  -0.33543  -0.31721  -0.30645  -0.29576
 Alpha  occ. eigenvalues --   -0.28282  -0.27409  -0.26049  -0.25325  -0.24957
 Alpha  occ. eigenvalues --   -0.24626  -0.23643  -0.22869  -0.22467  -0.21762
 Alpha  occ. eigenvalues --   -0.20826  -0.16085  -0.08504   0.04781
 Alpha virt. eigenvalues --    0.07119   0.07799   0.08405   0.09385   0.09482
 Alpha virt. eigenvalues --    0.09922   0.10381   0.10796   0.12089   0.12320
 Alpha virt. eigenvalues --    0.12602   0.12731   0.13571   0.14239   0.15219

  Beta  occ. eigenvalues --  -14.20930 -14.20820 -10.10123 -10.08885 -10.08816
  Beta  occ. eigenvalues --  -10.05360 -10.05344 -10.05284 -10.05212 -10.04758
  Beta  occ. eigenvalues --  -10.04484  -0.87414  -0.73552  -0.70144  -0.65498
  Beta  occ. eigenvalues --   -0.59780  -0.58213  -0.57702  -0.54643  -0.47743
  Beta  occ. eigenvalues --   -0.45616  -0.42612  -0.40005  -0.37542  -0.35945
  Beta  occ. eigenvalues --   -0.34081  -0.33515  -0.31688  -0.30608  -0.29550
  Beta  occ. eigenvalues --   -0.28261  -0.27381  -0.26024  -0.25298  -0.24926
  Beta  occ. eigenvalues --   -0.24590  -0.23609  -0.22837  -0.22437  -0.21732
  Beta  occ. eigenvalues --   -0.20799  -0.16068  -0.08491
  Beta virt. eigenvalues --    0.06977   0.08058   0.08682   0.08968   0.09959
  Beta virt. eigenvalues --    0.10028   0.10380   0.10859   0.11210   0.12670
  Beta virt. eigenvalues --    0.12821   0.12875   0.13220   0.13846   0.14620

 Mulliken charges and spin densities:
               1          2
     1  C    0.696167  -1.215645
     2  C   -1.005470   1.081574
     3  C    0.194283  -0.771391
     4  C    0.180230  -0.660554
     5  N    0.463860  -0.053031
     6  C   -1.239733   1.397246
     7  C    0.701149  -1.097555
     8  C    0.661893  -1.161180
     9  C   -0.868222   1.077206
    10  C    2.000323  -2.817309
    11  N   -0.198203  -0.245503
    12  H    0.149989  -0.020395
    13  H   -0.234483   0.357181
    14  H    0.165452   0.011261
    15  H    0.013570   0.102230
    16  H   -0.128860   0.276593
    17  H   -0.090460   0.231937
    18  H   -0.335254   0.475657
    19  H   -0.060813   0.218390
    20  H   -0.106995   0.244240
    21  H   -0.145207   0.368888
    22  H    0.386960  -0.284614
    23  H   -0.565290   0.736352
    24  H    0.027342   0.108579
    25  H   -0.235753   0.390693
    26  H   -1.058774   1.317737
    27  H   -0.212094   0.366946
    28  H   -0.362460   0.521582
    29  H    0.206851   0.042885
 Sum of Mulliken charges =  -1.00000   1.00000

 Dipole moment (field-independent basis, Debye):
    X=             -4.0922    Y=              0.2139    Z=              1.5952  Tot=              4.3973
 Quadrupole moment (field-independent basis, Debye-Ang):
   XX=           -129.9013   YY=           -112.1722   ZZ=           -105.6215
   XY=              2.1679   XZ=             -0.5359   YZ=              1.3896

 Summary of Natural Population Analysis:

                                       Natural Population
                Natural  -----------------------------------------------
    Atom  No    Charge         Core      Valence    Rydberg      Total
 -----------------------------------------------------------------------
      C    1   -0.29762      0.99961     2.29211    0.00590     3.29762
      C    2    0.06396      0.99958     1.92111    0.01536     2.93604
      C    3   -0.28478      0.99961     2.27872    0.00644     3.28478
      C    4   -0.28946      0.99961     2.28282    0.00702     3.28946
      N    5   -0.21505      0.99969     2.69901    0.01636     3.71505
      C    6   -0.01118      0.99959     1.99636    0.01523     3.01118
      C    7   -0.20278      0.99962     2.19428    0.00888     3.20278
      C    8   -0.19646      0.99962     2.18759    0.00924     3.19646
      C    9   -0.01705      0.99961     2.00221    0.01523     3.01705
      C   10   -0.19718      0.99961     2.18808    0.00950     3.19718
      N   11   -0.25267      0.99975     2.73994    0.01298     3.75267
      H   12    0.09623      0.00000     0.40292    0.00085     0.40377
      H   13    0.09685      0.00000     0.40207    0.00108     0.40315
      H   14    0.11160      0.00000     0.38716    0.00124     0.38840
      H   15    0.09404      0.00000     0.40508    0.00088     0.40596
      H   16    0.10197      0.00000     0.39660    0.00143     0.39803
      H   17    0.10327      0.00000     0.39566    0.00106     0.39673
      H   18    0.10142      0.00000     0.39753    0.00105     0.39858
      H   19    0.10365      0.00000     0.39519    0.00116     0.39635
      H   20    0.09990      0.00000     0.39928    0.00082     0.40010
      H   21    0.10639      0.00000     0.39212    0.00149     0.39361
      H   22    0.09899      0.00000     0.39961    0.00140     0.40101
      H   23    0.10027      0.00000     0.39797    0.00176     0.39973
      H   24    0.10175      0.00000     0.39691    0.00134     0.39825
      H   25    0.10166      0.00000     0.39685    0.00150     0.39834
      H   26    0.10249      0.00000     0.39492    0.00259     0.39751
      H   27    0.10369      0.00000     0.39421    0.00210     0.39631
      H   28    0.10387      0.00000     0.39437    0.00176     0.39613
      H   29    0.17221      0.00000     0.32520    0.00259     0.32779
 =======================================================================
   * Total *   -0.00000     10.99589    31.85587    0.14824    43.00000

 Normal termination of Gaussian 16 at Tue Dec  8 19:56:22 2020.
