 Gaussian 16, Revision A.03,

 -----------------------------------------------------------
 # opt freq B3LYP/6-31G(d) empiricaldispersion=gd3bj scf=xqc
 -----------------------------------------------------------

 ------------------------------
 CID_61977492_JID_6426_neutraal
 ------------------------------
 Symbolic Z-matrix:
 Charge =  0 Multiplicity = 1

 SCF Done:  E(RB3LYP) =  -689.553378004     A.U. after   14 cycles
 SCF Done:  E(RB3LYP) =  -689.560131177     A.U. after   12 cycles
 SCF Done:  E(RB3LYP) =  -689.561012241     A.U. after   11 cycles
 SCF Done:  E(RB3LYP) =  -689.561374166     A.U. after   12 cycles
 SCF Done:  E(RB3LYP) =  -689.561669337     A.U. after   10 cycles
 SCF Done:  E(RB3LYP) =  -689.561821943     A.U. after   10 cycles
 SCF Done:  E(RB3LYP) =  -689.561926130     A.U. after   10 cycles
 SCF Done:  E(RB3LYP) =  -689.561958518     A.U. after    9 cycles
 SCF Done:  E(RB3LYP) =  -689.561977066     A.U. after   10 cycles
 SCF Done:  E(RB3LYP) =  -689.561992217     A.U. after   10 cycles
 SCF Done:  E(RB3LYP) =  -689.562021626     A.U. after    8 cycles
 SCF Done:  E(RB3LYP) =  -689.562023171     A.U. after    8 cycles
 SCF Done:  E(RB3LYP) =  -689.562025298     A.U. after    9 cycles
 SCF Done:  E(RB3LYP) =  -689.562025839     A.U. after    8 cycles
 SCF Done:  E(RB3LYP) =  -689.562025868     A.U. after    7 cycles
 Optimization completed.
    -- Stationary point found.
 Normal termination of Gaussian 16 at Thu Dec 10 22:48:05 2020.

 --------------------------------------------------------------------
 #N Geom=AllCheck Guess=TCheck SCRF=Check GenChk RB3LYP/6-31G(d) Freq
 --------------------------------------------------------------------

 Structure from the checkpoint file:  "JID_6426.chk"
 ------------------------------
 CID_61977492_JID_6426_neutraal
 ------------------------------
 Charge =  0 Multiplicity = 1

 SCF Done:  E(RB3LYP) =  -689.562025868     A.U. after    1 cycles

  Exact polarizability: 195.121  -4.479 140.991   3.360   5.477 115.449
 Approx polarizability: 242.378  -7.230 216.065   8.483  20.200 176.018

                      1                      2                      3
                      A                      A                      A
 Frequencies --     32.8767                33.1431                46.6697
 Red. masses --      2.7497                 3.3191                 3.0142
 Frc consts  --      0.0018                 0.0021                 0.0039
 IR Inten    --      0.3475                 0.7079                 0.2072

                      4                      5                      6
                      A                      A                      A
 Frequencies --     60.0344               103.3136               108.0085
 Red. masses --      2.9687                 3.7421                 3.0304
 Frc consts  --      0.0063                 0.0235                 0.0208
 IR Inten    --      1.7502                 0.1694                 0.2966

                      7                      8                      9
                      A                      A                      A
 Frequencies --    136.5775               172.1274               191.1987
 Red. masses --      3.1642                 2.5257                 2.7279
 Frc consts  --      0.0348                 0.0441                 0.0588
 IR Inten    --      0.8396                 2.1206                 1.1962

                     10                     11                     12
                      A                      A                      A
 Frequencies --    218.0452               229.5002               254.4976
 Red. masses --      1.4580                 1.1445                 1.0698
 Frc consts  --      0.0408                 0.0355                 0.0408
 IR Inten    --      1.1844                 0.0875                 0.1133

                     13                     14                     15
                      A                      A                      A
 Frequencies --    261.6853               277.9039               294.3190
 Red. masses --      1.9646                 2.9230                 2.6466
 Frc consts  --      0.0793                 0.1330                 0.1351
 IR Inten    --      0.1016                 2.4455                 8.9083

                     16                     17                     18
                      A                      A                      A
 Frequencies --    339.0310               395.7988               408.1952
 Red. masses --      2.4420                 2.6991                 2.3528
 Frc consts  --      0.1654                 0.2491                 0.2310
 IR Inten    --      0.9597                 3.8660                 7.9633

                     19                     20                     21
                      A                      A                      A
 Frequencies --    416.6867               452.7040               476.8676
 Red. masses --      2.6322                 2.8304                 2.6485
 Frc consts  --      0.2693                 0.3418                 0.3549
 IR Inten    --      4.6768                 9.8913                 3.5470

                     22                     23                     24
                      A                      A                      A
 Frequencies --    541.9183               553.2749               591.5224
 Red. masses --      3.5039                 2.2639                 2.4733
 Frc consts  --      0.6063                 0.4083                 0.5099
 IR Inten    --     21.5745                72.7647                 6.0360

                     25                     26                     27
                      A                      A                      A
 Frequencies --    617.0471               643.8766               665.6548
 Red. masses --      2.8166                 3.9548                 2.3799
 Frc consts  --      0.6318                 0.9660                 0.6213
 IR Inten    --      3.1845                 3.7843                10.2477

                     28                     29                     30
                      A                      A                      A
 Frequencies --    707.1777               724.2817               769.8235
 Red. masses --      2.9730                 2.1431                 2.5202
 Frc consts  --      0.8760                 0.6624                 0.8800
 IR Inten    --      8.8585                16.0521                17.9858

                     31                     32                     33
                      A                      A                      A
 Frequencies --    803.7235               824.5792               850.7432
 Red. masses --      1.1637                 3.3441                 2.5723
 Frc consts  --      0.4429                 1.3396                 1.0969
 IR Inten    --      1.0829                 6.8400                 0.8492

                     34                     35                     36
                      A                      A                      A
 Frequencies --    881.9912               899.2628               908.3576
 Red. masses --      2.2610                 1.3100                 1.7929
 Frc consts  --      1.0363                 0.6242                 0.8716
 IR Inten    --      6.4039                10.7688                11.6868

                     37                     38                     39
                      A                      A                      A
 Frequencies --    934.2757               954.5761               968.1147
 Red. masses --      1.2290                 1.4392                 2.5225
 Frc consts  --      0.6320                 0.7727                 1.3929
 IR Inten    --      0.9219                 0.4584                17.0400

                     40                     41                     42
                      A                      A                      A
 Frequencies --    972.4419              1004.2184              1023.7578
 Red. masses --      1.7674                 1.9835                 3.2081
 Frc consts  --      0.9847                 1.1785                 1.9810
 IR Inten    --      5.3331                 0.9070                28.9078

                     43                     44                     45
                      A                      A                      A
 Frequencies --   1041.2197              1065.5708              1097.7089
 Red. masses --      4.3791                 1.9553                 2.2743
 Frc consts  --      2.7972                 1.3081                 1.6146
 IR Inten    --      3.2788                 4.3711                12.9676

                     46                     47                     48
                      A                      A                      A
 Frequencies --   1101.7061              1110.6834              1118.9481
 Red. masses --      2.1461                 1.8913                 1.6594
 Frc consts  --      1.5348                 1.3747                 1.2241
 IR Inten    --      6.4149                18.4084                 3.6165

                     49                     50                     51
                      A                      A                      A
 Frequencies --   1135.5105              1143.6361              1158.8447
 Red. masses --      1.9995                 2.0131                 2.2330
 Frc consts  --      1.5190                 1.5513                 1.7668
 IR Inten    --      7.1006                34.5041                25.5884

                     52                     53                     54
                      A                      A                      A
 Frequencies --   1205.7190              1216.8545              1222.4074
 Red. masses --      1.5236                 1.5460                 1.7573
 Frc consts  --      1.3050                 1.3488                 1.5471
 IR Inten    --      2.3961                13.6071                28.3289

                     55                     56                     57
                      A                      A                      A
 Frequencies --   1228.7031              1244.2190              1258.6478
 Red. masses --      1.9610                 1.7510                 1.5381
 Frc consts  --      1.7443                 1.5971                 1.4356
 IR Inten    --      4.4815                 1.8426                30.5664

                     58                     59                     60
                      A                      A                      A
 Frequencies --   1292.8992              1295.4805              1326.8434
 Red. masses --      1.7287                 1.6244                 1.2777
 Frc consts  --      1.7025                 1.6062                 1.3254
 IR Inten    --     21.6663                14.8174                 8.5582

                     61                     62                     63
                      A                      A                      A
 Frequencies --   1329.5487              1354.7884              1370.9274
 Red. masses --      1.3350                 1.3368                 1.4115
 Frc consts  --      1.3904                 1.4456                 1.5630
 IR Inten    --      1.8926                 9.8628                 0.9358

                     64                     65                     66
                      A                      A                      A
 Frequencies --   1373.5131              1391.7889              1401.2022
 Red. masses --      1.8383                 2.0928                 1.6856
 Frc consts  --      2.0433                 2.3885                 1.9499
 IR Inten    --     16.9167               127.1222                40.2521

                     67                     68                     69
                      A                      A                      A
 Frequencies --   1409.4967              1412.9013              1422.2437
 Red. masses --      1.6269                 2.0398                 1.2903
 Frc consts  --      1.9043                 2.3992                 1.5378
 IR Inten    --     31.6197                31.5356                 8.2188

                     70                     71                     72
                      A                      A                      A
 Frequencies --   1430.7124              1434.6638              1445.8492
 Red. masses --      1.3514                 1.2748                 1.2788
 Frc consts  --      1.6298                 1.5460                 1.5750
 IR Inten    --      2.7900                 7.7418                18.0012

                     73                     74                     75
                      A                      A                      A
 Frequencies --   1458.7397              1477.5616              1509.6819
 Red. masses --      2.6880                 2.2476                 1.0921
 Frc consts  --      3.3700                 2.8911                 1.4665
 IR Inten    --     90.0859                24.6673                 3.0974

                     76                     77                     78
                      A                      A                      A
 Frequencies --   1516.3385              1517.8237              1520.7394
 Red. masses --      1.0464                 1.0426                 1.1142
 Frc consts  --      1.4176                 1.4151                 1.5182
 IR Inten    --      2.0208                 7.8748                 6.6457

                     79                     80                     81
                      A                      A                      A
 Frequencies --   1522.2084              1532.7913              1535.1119
 Red. masses --      1.0526                 1.0532                 1.1966
 Frc consts  --      1.4370                 1.4578                 1.6615
 IR Inten    --      0.8933                 7.3346                 6.4389

                     82                     83                     84
                      A                      A                      A
 Frequencies --   1537.4968              1539.8671              1543.7015
 Red. masses --      1.3074                 1.0978                 1.0957
 Frc consts  --      1.8209                 1.5336                 1.5385
 IR Inten    --      5.1445                 1.2399                 0.8670

                     85                     86                     87
                      A                      A                      A
 Frequencies --   1559.3149              1640.0236              2927.3865
 Red. masses --      1.1054                 5.3029                 1.0730
 Frc consts  --      1.5836                 8.4035                 5.4175
 IR Inten    --     11.3231                61.3826                89.5631

                     88                     89                     90
                      A                      A                      A
 Frequencies --   2968.9801              3025.9807              3050.7017
 Red. masses --      1.0737                 1.0846                 1.0352
 Frc consts  --      5.5765                 5.8515                 5.6767
 IR Inten    --     67.4542                22.1565                21.3201

                     91                     92                     93
                      A                      A                      A
 Frequencies --   3055.5237              3057.1125              3073.9049
 Red. masses --      1.0360                 1.0354                 1.0795
 Frc consts  --      5.6989                 5.7015                 6.0097
 IR Inten    --     20.2508                23.5874                19.6755

                     94                     95                     96
                      A                      A                      A
 Frequencies --   3076.1332              3076.7736              3084.8997
 Red. masses --      1.0847                 1.0621                 1.0701
 Frc consts  --      6.0475                 5.9237                 5.9999
 IR Inten    --     44.4053                38.6459                38.4161

                     97                     98                     99
                      A                      A                      A
 Frequencies --   3105.7589              3115.0152              3119.1369
 Red. masses --      1.0905                 1.1009                 1.1037
 Frc consts  --      6.1976                 6.2940                 6.3267
 IR Inten    --     22.5884                 2.3972                 8.0385

                    100                    101                    102
                      A                      A                      A
 Frequencies --   3121.1741              3122.9813              3130.3875
 Red. masses --      1.1013                 1.1016                 1.1054
 Frc consts  --      6.3209                 6.3299                 6.3821
 IR Inten    --     60.3659                46.8114                37.7460

                    103                    104                    105
                      A                      A                      A
 Frequencies --   3131.6398              3133.3816              3148.0905
 Red. masses --      1.1015                 1.1029                 1.1047
 Frc consts  --      6.3648                 6.3801                 6.4504
 IR Inten    --     34.0133                29.0239                23.7686

                    106                    107                    108
                      A                      A                      A
 Frequencies --   3256.0602              3267.0525              3557.2587
 Red. masses --      1.0978                 1.0966                 1.0751
 Frc consts  --      6.8572                 6.8965                 8.0158
 IR Inten    --     12.5871                 2.3802                 1.4071

 - Thermochemistry -
 -------------------
 Temperature   298.150 Kelvin.  Pressure   1.00000 Atm.
 Atom     1 has atomic number  6 and mass  12.00000

 Molecular mass:   222.18445 amu.
 Principal axes and moments of inertia in atomic units:
                           1         2         3
     Eigenvalues --  1654.167557096.877247772.31588
           X            0.99997   0.00534  -0.00639
           Y           -0.00546   0.99979  -0.01985
           Z            0.00628   0.01988   0.99978
 This molecule is an asymmetric top.
 Rotational symmetry number  1.
 Warning -- assumption of classical behavior for rotation
           may cause significant error
 Rotational temperatures (Kelvin)      0.05236     0.01220     0.01114
 Rotational constants (GHZ):           1.09103     0.25430     0.23220
 Zero-point vibrational energy     896061.4 (Joules/Mol)
                                  214.16383 (Kcal/Mol)
 Warning -- explicit consideration of  25 degrees of freedom as
           vibrations may cause significant error
 Vibrational temperatures:     47.30    47.69    67.15    86.38   148.65
          (Kelvin)            155.40   196.50   247.65   275.09   313.72
                              330.20   366.17   376.51   399.84   423.46
                              487.79   569.47   587.30   599.52   651.34
                              686.11   779.70   796.04   851.07   887.79
                              926.39   957.73  1017.47  1042.08  1107.60
                             1156.38  1186.39  1224.03  1268.99  1293.84
                             1306.92  1344.21  1373.42  1392.90  1399.13
                             1444.85  1472.96  1498.08  1533.12  1579.36
                             1585.11  1598.03  1609.92  1633.75  1645.44
                             1667.32  1734.76  1750.78  1758.77  1767.83
                             1790.15  1810.91  1860.19  1863.91  1909.03
                             1912.92  1949.24  1972.46  1976.18  2002.47
                             2016.02  2027.95  2032.85  2046.29  2058.48
                             2064.16  2080.25  2098.80  2125.88  2172.10
                             2181.67  2183.81  2188.00  2190.12  2205.34
                             2208.68  2212.11  2215.53  2221.04  2243.51
                             2359.63  4211.86  4271.70  4353.71  4389.28
                             4396.22  4398.50  4422.66  4425.87  4426.79
                             4438.48  4468.49  4481.81  4487.74  4490.67
                             4493.27  4503.93  4505.73  4508.24  4529.40
                             4684.74  4700.56  5118.10

 Zero-point correction=                           0.341292 (Hartree/Particle)
 Thermal correction to Energy=                    0.357857
 Thermal correction to Enthalpy=                  0.358801
 Thermal correction to Gibbs Free Energy=         0.296117
 Sum of electronic and zero-point Energies=           -689.220734
 Sum of electronic and thermal Energies=              -689.204169
 Sum of electronic and thermal Enthalpies=            -689.203225
 Sum of electronic and thermal Free Energies=         -689.265908

                     E (Thermal)             CV                S
                      KCal/Mol        Cal/Mol-Kelvin    Cal/Mol-Kelvin
 Total                  224.559             63.056            131.929
 Electronic               0.000              0.000              0.000
 Translational            0.889              2.981             42.098
 Rotational               0.889              2.981             32.878
 Vibrational            222.781             57.094             56.954
 Vibration     1          0.594              1.983              5.648
 Vibration     2          0.594              1.983              5.632
 Vibration     3          0.595              1.979              4.954
 Vibration     4          0.597              1.973              4.456
 Vibration     5          0.605              1.947              3.391
 Vibration     6          0.606              1.943              3.304
 Vibration     7          0.614              1.917              2.851
 Vibration     8          0.626              1.877              2.412
 Vibration     9          0.634              1.852              2.216
 Vibration    10          0.646              1.814              1.975
 Vibration    11          0.652              1.796              1.883
 Vibration    12          0.665              1.755              1.699
 Vibration    13          0.669              1.743              1.651
 Vibration    14          0.679              1.714              1.547
 Vibration    15          0.689              1.684              1.449
 Vibration    16          0.719              1.598              1.217
 Vibration    17          0.763              1.479              0.978
 Vibration    18          0.773              1.452              0.933
 Vibration    19          0.780              1.434              0.903
 Vibration    20          0.811              1.355              0.788
 Vibration    21          0.833              1.301              0.719
 Vibration    22          0.897              1.157              0.561
 Vibration    23          0.909              1.133              0.537
 Vibration    24          0.949              1.050              0.464
 Vibration    25          0.977              0.996              0.421

 Optimization completed.
    -- Stationary point found.
 Normal termination of Gaussian 16 at Thu Dec 10 23:00:37 2020.

 ----------------------------------------------------------------------
 # B3LYP/6-311++G(d,p) empiricaldispersion=gd3bj scf=xqc pop=npa geom=c
 heck
 ----------------------------------------------------------------------

 --------------------------------------
 CID_61977492_JID_6426_Energie_neutraal
 --------------------------------------
 Structure from the checkpoint file:  "JID_6426.chk"
 Charge =  0 Multiplicity = 1

 SCF Done:  E(RB3LYP) =  -689.750229964     A.U. after   15 cycles
 Normal termination of Gaussian 16 at Thu Dec 10 23:06:31 2020.

 ----------------------------------------------------------------------
 # B3LYP/6-311++G(d,p) empiricaldispersion=gd3bj scf=xqc pop=npa geom=c
 heck
 ----------------------------------------------------------------------

 ------------------------------------
 CID_61977492_JID_6426_Energie_kation
 ------------------------------------
 Structure from the checkpoint file:  "JID_6426.chk"
 Charge =  1 Multiplicity = 2

 SCF Done:  E(UB3LYP) =  -689.495087582     A.U. after   23 cycles
 Normal termination of Gaussian 16 at Thu Dec 10 23:18:33 2020.
 Gaussian 16:  ES64L-G16RevA.03 25-Dec-2016

 ----------------------------------------------------------------------
 # B3LYP/6-311++G(d,p) empiricaldispersion=gd3bj scf=xqc pop=npa geom=c
 heck
 ----------------------------------------------------------------------

 -----------------------------------
 CID_61977492_JID_6426_Energie_anion
 -----------------------------------
 Structure from the checkpoint file:  "JID_6426.chk"
 Charge = -1 Multiplicity = 2

                         Standard orientation:
 ---------------------------------------------------------------------
 Center     Atomic      Atomic             Coordinates (Angstroms)
 Number     Number       Type             X           Y           Z
 ---------------------------------------------------------------------
      1          6           0       -5.091738    0.521181    1.169046
      2          6           0       -4.524281    0.855193   -0.210976
      3          7           0       -3.135139    0.455513   -0.349734
      4          6           0       -2.654915   -0.740238   -0.807264
      5          6           0       -1.281468   -0.723803   -0.602594
      6          6           0       -1.035431    0.536612    0.006393
      7          7           0       -2.165787    1.235453    0.159600
      8          7           0       -0.367447   -1.713155   -1.001531
      9          6           0        0.977740   -1.743198   -0.432459
     10          6           0        1.085997   -1.761677    1.118971
     11          6           0        2.311359   -0.891415    1.403323
     12          7           0        2.206213    0.144384    0.380201
     13          6           0        1.846258   -0.528451   -0.867088
     14          6           0        3.279372    1.139946    0.338712
     15          6           0        4.660071    0.589286   -0.066736
     16          6           0        2.873059    2.314087   -0.556742
     17          1           0       -5.060022   -0.558185    1.351756
     18          1           0       -6.131979    0.856395    1.247902
     19          1           0       -4.502303    1.019675    1.943911
     20          1           0       -5.092861    0.356217   -1.002657
     21          1           0       -4.564060    1.932179   -0.394384
     22          1           0       -3.302856   -1.481585   -1.252606
     23          1           0       -0.087143    0.939352    0.335579
     24          1           0       -0.790026   -2.634115   -1.004268
     25          1           0        1.432781   -2.652306   -0.836439
     26          1           0        1.178957   -2.776962    1.516681
     27          1           0        0.193530   -1.302239    1.552243
     28          1           0        2.301999   -0.438499    2.401413
     29          1           0        3.237566   -1.493155    1.319903
     30          1           0        2.726001   -0.890373   -1.426401
     31          1           0        1.287598    0.139033   -1.528560
     32          1           0        3.361431    1.517017    1.367741
     33          1           0        4.665214    0.245323   -1.107095
     34          1           0        5.420505    1.372641    0.025277
     35          1           0        4.965982   -0.248052    0.569282
     36          1           0        1.891447    2.699575   -0.264305
     37          1           0        3.605148    3.125284   -0.481028
     38          1           0        2.822081    2.012281   -1.609221
 ---------------------------------------------------------------------

 SCF Done:  E(UB3LYP) =  -689.737716083     A.U. after   33 cycles
 SCF Done:  E(UB3LYP) =  -689.737716083     a.u. after    1 cycles

 The electronic state is 2-A.
 Alpha  occ. eigenvalues --  -14.28447 -14.22436 -14.21623 -14.20641 -10.12363
 Alpha  occ. eigenvalues --  -10.11178 -10.10936 -10.09908 -10.09710 -10.09410
 Alpha  occ. eigenvalues --  -10.09330 -10.07818 -10.07701 -10.07142 -10.06799
 Alpha  occ. eigenvalues --  -10.06655  -0.94805  -0.84709  -0.81835  -0.74569
 Alpha  occ. eigenvalues --   -0.70768  -0.67909  -0.64799  -0.63613  -0.62130
 Alpha  occ. eigenvalues --   -0.59867  -0.55494  -0.52800  -0.50498  -0.48177
 Alpha  occ. eigenvalues --   -0.47287  -0.45863  -0.42836  -0.41027  -0.39932
 Alpha  occ. eigenvalues --   -0.38569  -0.37175  -0.36454  -0.35113  -0.34603
 Alpha  occ. eigenvalues --   -0.33784  -0.33274  -0.32178  -0.31311  -0.30448
 Alpha  occ. eigenvalues --   -0.29602  -0.29244  -0.28876  -0.28322  -0.27994
 Alpha  occ. eigenvalues --   -0.26949  -0.26336  -0.25447  -0.25091  -0.24512
 Alpha  occ. eigenvalues --   -0.23229  -0.20142  -0.19176  -0.15028  -0.12048
 Alpha  occ. eigenvalues --   -0.09543   0.03969
 Alpha virt. eigenvalues --    0.05336   0.06138   0.07298   0.07598   0.07945
 Alpha virt. eigenvalues --    0.08303   0.09005   0.09386   0.09703   0.10396
 Alpha virt. eigenvalues --    0.10457   0.10747   0.11744   0.12007   0.12069

  Beta  occ. eigenvalues --  -14.28448 -14.22431 -14.21604 -14.20640 -10.12347
  Beta  occ. eigenvalues --  -10.11171 -10.10921 -10.09909 -10.09697 -10.09390
  Beta  occ. eigenvalues --  -10.09319 -10.07796 -10.07697 -10.07134 -10.06773
  Beta  occ. eigenvalues --  -10.06641  -0.94798  -0.84691  -0.81807  -0.74555
  Beta  occ. eigenvalues --   -0.70747  -0.67888  -0.64773  -0.63587  -0.62101
  Beta  occ. eigenvalues --   -0.59830  -0.55453  -0.52772  -0.50465  -0.48135
  Beta  occ. eigenvalues --   -0.47259  -0.45834  -0.42791  -0.40989  -0.39896
  Beta  occ. eigenvalues --   -0.38541  -0.37157  -0.36423  -0.35087  -0.34581
  Beta  occ. eigenvalues --   -0.33754  -0.33254  -0.32142  -0.31292  -0.30420
  Beta  occ. eigenvalues --   -0.29581  -0.29219  -0.28855  -0.28296  -0.27965
  Beta  occ. eigenvalues --   -0.26925  -0.26315  -0.25421  -0.25062  -0.24491
  Beta  occ. eigenvalues --   -0.23197  -0.20129  -0.19163  -0.15017  -0.12027
  Beta  occ. eigenvalues --   -0.09527
  Beta virt. eigenvalues --    0.05924   0.06241   0.07126   0.07713   0.08081
  Beta virt. eigenvalues --    0.08237   0.08633   0.09401   0.09740   0.09941
  Beta virt. eigenvalues --    0.10483   0.10660   0.11115   0.11946   0.12100

 Mulliken charges and spin densities:
               1          2
     1  C    0.307926  -0.805235
     2  C   -0.216755   0.049562
     3  N    0.444147  -0.096448
     4  C    0.273784  -0.193662
     5  C   -0.495396  -0.380421
     6  C    0.950190  -1.070623
     7  N   -0.439775   0.209688
     8  N   -0.136681   0.153226
     9  C    0.634839  -0.612424
    10  C    0.148018  -0.626562
    11  C    0.032845  -0.303959
    12  N    0.274702  -0.074778
    13  C   -0.784207   0.018561
    14  C   -0.651675   0.826665
    15  C    0.595899  -1.179165
    16  C   -0.322046  -0.229640
    17  H   -0.091370   0.244667
    18  H   -0.168274   0.291373
    19  H    0.087297   0.073138
    20  H   -0.236501   0.376893
    21  H    0.064572   0.105720
    22  H   -0.775487   0.946899
    23  H    0.533468  -0.127787
    24  H   -0.082431   0.332725
    25  H   -0.600958   0.811867
    26  H   -0.459707   0.645165
    27  H    0.200158  -0.046694
    28  H   -0.041244   0.202652
    29  H    0.127081  -0.042147
    30  H   -0.068986   0.199918
    31  H    0.147139   0.029567
    32  H   -0.032372   0.189682
    33  H   -0.038405   0.181236
    34  H   -0.194644   0.338725
    35  H   -0.183538   0.329062
    36  H    0.139141  -0.005568
    37  H   -0.011181   0.157812
    38  H    0.070425   0.080311
 Sum of Mulliken charges =  -1.00000   1.00000

 Dipole moment (field-independent basis, Debye):
    X=              1.0802    Y=              4.2034    Z=              0.9024  Tot=              4.4328
 Quadrupole moment (field-independent basis, Debye-Ang):
   XX=           -199.9245   YY=           -152.0937   ZZ=           -131.1956
   XY=             -2.2494   XZ=             -2.4873   YZ=             -4.3662

 Summary of Natural Population Analysis:

                                       Natural Population
                Natural  -----------------------------------------------
    Atom  No    Charge         Core      Valence    Rydberg      Total
 -----------------------------------------------------------------------
      C    1   -0.29046      0.99966     2.28604    0.00476     3.29046
      C    2   -0.08120      0.99962     2.07037    0.01121     3.08120
      N    3   -0.10687      0.99967     2.59380    0.01341     3.60687
      C    4   -0.03420      0.99951     2.02279    0.01190     3.03420
      C    5    0.03216      0.99948     1.95635    0.01201     2.96784
      C    6   -0.04405      0.99958     2.03133    0.01315     3.04405
      N    7   -0.15455      0.99973     2.64380    0.01101     3.65455
      N    8   -0.32157      0.99968     2.80934    0.01255     3.82157
      C    9   -0.00963      0.99959     1.99525    0.01478     3.00963
      C   10   -0.20207      0.99961     2.19377    0.00869     3.20207
      C   11   -0.08079      0.99962     2.07107    0.01010     3.08079
      N   12   -0.29145      0.99971     2.77953    0.01221     3.79145
      C   13   -0.09056      0.99960     2.07993    0.01102     3.09056
      C   14   -0.00228      0.99961     1.99052    0.01215     3.00228
      C   15   -0.29822      0.99964     2.29309    0.00549     3.29822
      C   16   -0.28753      0.99964     2.28310    0.00479     3.28753
      H   17    0.10131      0.00000     0.39754    0.00115     0.39869
      H   18    0.09850      0.00000     0.40037    0.00114     0.40150
      H   19    0.10366      0.00000     0.39535    0.00099     0.39634
      H   20    0.09846      0.00000     0.40010    0.00144     0.40154
      H   21    0.10082      0.00000     0.39784    0.00133     0.39918
      H   22    0.10522      0.00000     0.39310    0.00167     0.39478
      H   23    0.10961      0.00000     0.38803    0.00236     0.39039
      H   24    0.18636      0.00000     0.30974    0.00389     0.31364
      H   25    0.09988      0.00000     0.39787    0.00225     0.40012
      H   26    0.10193      0.00000     0.39679    0.00128     0.39807
      H   27    0.10456      0.00000     0.39361    0.00183     0.39544
      H   28    0.09451      0.00000     0.40434    0.00115     0.40549
      H   29    0.08007      0.00000     0.41843    0.00150     0.41993
      H   30    0.08715      0.00000     0.41142    0.00143     0.41285
      H   31    0.10096      0.00000     0.39742    0.00162     0.39904
      H   32    0.09135      0.00000     0.40748    0.00118     0.40865
      H   33    0.09798      0.00000     0.40110    0.00092     0.40202
      H   34    0.09979      0.00000     0.39918    0.00103     0.40021
      H   35    0.10163      0.00000     0.39738    0.00099     0.39837
      H   36    0.10415      0.00000     0.39482    0.00104     0.39585
      H   37    0.09801      0.00000     0.40130    0.00069     0.40199
      H   38    0.09737      0.00000     0.40181    0.00082     0.40263
 =======================================================================
   * Total *    0.00000     15.99397    44.80511    0.20092    61.00000

 Normal termination of Gaussian 16 at Thu Dec 10 23:35:33 2020.
