 Gaussian 16, Revision A.03,

 -----------------------------------------------------------
 # opt freq B3LYP/6-31G(d) empiricaldispersion=gd3bj scf=xqc
 -----------------------------------------------------------

 -------------------------------
 CID_105430407_JID_1782_neutraal
 -------------------------------
 Symbolic Z-matrix:
 Charge =  0 Multiplicity = 1

 SCF Done:  E(RB3LYP) =  -483.168182415     A.U. after   14 cycles
 SCF Done:  E(RB3LYP) =  -483.173868641     A.U. after   12 cycles
 SCF Done:  E(RB3LYP) =  -483.174274509     A.U. after   12 cycles
 SCF Done:  E(RB3LYP) =  -483.176145563     A.U. after   13 cycles
 SCF Done:  E(RB3LYP) =  -483.176470064     A.U. after   14 cycles
 SCF Done:  E(RB3LYP) =  -483.177859735     A.U. after   13 cycles
 SCF Done:  E(RB3LYP) =  -483.178102688     A.U. after   11 cycles
 SCF Done:  E(RB3LYP) =  -483.178195519     A.U. after   11 cycles
 SCF Done:  E(RB3LYP) =  -483.178223438     A.U. after   10 cycles
 SCF Done:  E(RB3LYP) =  -483.178248627     A.U. after   11 cycles
 SCF Done:  E(RB3LYP) =  -483.180413201     A.U. after   11 cycles
 SCF Done:  E(RB3LYP) =  -483.180417376     A.U. after    9 cycles
 SCF Done:  E(RB3LYP) =  -483.180420072     A.U. after    9 cycles
 SCF Done:  E(RB3LYP) =  -483.180420244     A.U. after    8 cycles
 SCF Done:  E(RB3LYP) =  -483.180420242     A.U. after    7 cycles
 Optimization completed.
    -- Stationary point found.
 Normal termination of Gaussian 16 at Tue Dec  8 20:42:48 2020.

 --------------------------------------------------------------------
 #N Geom=AllCheck Guess=TCheck SCRF=Check GenChk RB3LYP/6-31G(d) Freq
 --------------------------------------------------------------------

 Structure from the checkpoint file:  "JID_1782.chk"
 -------------------------------
 CID_105430407_JID_1782_neutraal
 -------------------------------
 Charge =  0 Multiplicity = 1

 SCF Done:  E(RB3LYP) =  -483.180420242     A.U. after    1 cycles

  Exact polarizability: 121.591   3.847  93.405   1.888   1.694  87.778
 Approx polarizability: 140.434   6.796 141.536   4.046   8.767 132.921

                      1                      2                      3
                      A                      A                      A
 Frequencies --     24.6411                32.5374                44.6190
 Red. masses --      3.4314                 2.5739                 3.5026
 Frc consts  --      0.0012                 0.0016                 0.0041
 IR Inten    --      0.0371                 0.1204                 2.7945

                      4                      5                      6
                      A                      A                      A
 Frequencies --     99.6481               118.0375               186.4867
 Red. masses --      3.5351                 2.7363                 2.9332
 Frc consts  --      0.0207                 0.0225                 0.0601
 IR Inten    --      2.4346                 2.9908                 0.8557

                      7                      8                      9
                      A                      A                      A
 Frequencies --    218.6060               226.6930               241.3518
 Red. masses --      1.6754                 1.7583                 1.2442
 Frc consts  --      0.0472                 0.0532                 0.0427
 IR Inten    --      1.4856                 1.8040                 1.0416

                     10                     11                     12
                      A                      A                      A
 Frequencies --    273.4387               300.6309               378.8690
 Red. masses --      1.8405                 2.0667                 2.1612
 Frc consts  --      0.0811                 0.1101                 0.1828
 IR Inten    --      1.2752                 1.7884                 1.7847

                     13                     14                     15
                      A                      A                      A
 Frequencies --    408.9627               440.3852               467.3753
 Red. masses --      1.9906                 2.6395                 5.0222
 Frc consts  --      0.1962                 0.3016                 0.6464
 IR Inten    --      1.4364                 7.2621                 0.2628

                     16                     17                     18
                      A                      A                      A
 Frequencies --    556.0457               586.0908               690.6584
 Red. masses --      2.9386                 2.1565                 2.5512
 Frc consts  --      0.5353                 0.4364                 0.7170
 IR Inten    --      3.8544                13.4600                28.5480

                     19                     20                     21
                      A                      A                      A
 Frequencies --    752.2434               778.0895               797.0229
 Red. masses --      2.3167                 1.9272                 1.5963
 Frc consts  --      0.7724                 0.6874                 0.5975
 IR Inten    --     42.6355                 7.8228                 4.0064

                     22                     23                     24
                      A                      A                      A
 Frequencies --    890.7007               906.7849               920.0117
 Red. masses --      1.8011                 1.8363                 1.9641
 Frc consts  --      0.8419                 0.8896                 0.9795
 IR Inten    --      8.9753                 2.7392                 0.3750

                     25                     26                     27
                      A                      A                      A
 Frequencies --    938.8298               942.4449               970.1233
 Red. masses --      1.8339                 1.3714                 1.8513
 Frc consts  --      0.9523                 0.7177                 1.0266
 IR Inten    --      5.9492                 5.8389                 2.0344

                     28                     29                     30
                      A                      A                      A
 Frequencies --    976.2315               987.8300              1035.2071
 Red. masses --      1.4569                 2.0164                 2.9935
 Frc consts  --      0.8180                 1.1593                 1.8901
 IR Inten    --      1.3379                 4.1745                32.0785

                     31                     32                     33
                      A                      A                      A
 Frequencies --   1051.4076              1058.7301              1085.1077
 Red. masses --      2.4666                 1.8758                 1.9024
 Frc consts  --      1.6066                 1.2388                 1.3198
 IR Inten    --      6.2955                 8.4961                17.8185

                     34                     35                     36
                      A                      A                      A
 Frequencies --   1130.9777              1146.0560              1159.9497
 Red. masses --      1.7495                 1.6371                 1.8480
 Frc consts  --      1.3185                 1.2669                 1.4650
 IR Inten    --      6.5439                13.8587                 7.1244

                     37                     38                     39
                      A                      A                      A
 Frequencies --   1204.2716              1209.4500              1218.0464
 Red. masses --      1.6867                 2.0439                 1.2234
 Frc consts  --      1.4412                 1.7615                 1.0694
 IR Inten    --      5.6953                30.9858                 2.2461

                     40                     41                     42
                      A                      A                      A
 Frequencies --   1234.9163              1262.0329              1278.6245
 Red. masses --      1.5437                 1.3500                 1.2582
 Frc consts  --      1.3871                 1.2668                 1.2120
 IR Inten    --      8.7253                 5.7573                 3.7167

                     43                     44                     45
                      A                      A                      A
 Frequencies --   1289.9947              1328.5910              1355.9954
 Red. masses --      1.4146                 1.4501                 1.2318
 Frc consts  --      1.3870                 1.5082                 1.3345
 IR Inten    --     17.8293                12.0572                 0.5880

                     46                     47                     48
                      A                      A                      A
 Frequencies --   1377.4413              1384.7206              1401.0676
 Red. masses --      1.5247                 1.4734                 1.2867
 Frc consts  --      1.7044                 1.6646                 1.4882
 IR Inten    --     16.1311                 9.8218                 3.8194

                     49                     50                     51
                      A                      A                      A
 Frequencies --   1410.0874              1415.6210              1430.3576
 Red. masses --      1.5609                 1.5726                 1.2996
 Frc consts  --      1.8286                 1.8568                 1.5665
 IR Inten    --     12.5879                11.6420                 4.4262

                     52                     53                     54
                      A                      A                      A
 Frequencies --   1448.7889              1469.9438              1506.9171
 Red. masses --      1.2351                 1.0857                 1.0852
 Frc consts  --      1.5275                 1.3821                 1.4520
 IR Inten    --      3.4145                21.8128                 2.0834

                     55                     56                     57
                      A                      A                      A
 Frequencies --   1516.4907              1519.8957              1526.0958
 Red. masses --      1.0974                 1.0485                 1.0525
 Frc consts  --      1.4870                 1.4271                 1.4442
 IR Inten    --      3.5547                 0.9708                 4.4738

                     58                     59                     60
                      A                      A                      A
 Frequencies --   1535.6925              1541.9891              1555.8705
 Red. masses --      1.0570                 1.0467                 1.1115
 Frc consts  --      1.4687                 1.4663                 1.5852
 IR Inten    --      1.8707                 8.5916                 1.8472

                     61                     62                     63
                      A                      A                      A
 Frequencies --   1798.7670              3019.4844              3027.5557
 Red. masses --     10.9139                 1.0661                 1.0666
 Frc consts  --     20.8056                 5.7270                 5.7601
 IR Inten    --    112.7541                86.2898                23.9992

                     64                     65                     66
                      A                      A                      A
 Frequencies --   3030.4481              3033.8607              3037.3260
 Red. masses --      1.0841                 1.0374                 1.0471
 Frc consts  --      5.8658                 5.6258                 5.6914
 IR Inten    --     35.1168                34.1972                31.4009

                     67                     68                     69
                      A                      A                      A
 Frequencies --   3041.9972              3059.9839              3078.8076
 Red. masses --      1.0645                 1.0793                 1.0947
 Frc consts  --      5.8037                 5.9545                 6.1136
 IR Inten    --     17.8370                10.1236                 3.6331

                     70                     71                     72
                      A                      A                      A
 Frequencies --   3084.2779              3093.0479              3096.6923
 Red. masses --      1.0967                 1.0929                 1.0988
 Frc consts  --      6.1466                 6.1601                 6.2083
 IR Inten    --     38.1834                 9.1903                10.5185

                     73                     74                     75
                      A                      A                      A
 Frequencies --   3100.9063              3106.3874              3111.3870
 Red. masses --      1.0648                 1.0990                 1.1007
 Frc consts  --      6.0326                 6.2484                 6.2779
 IR Inten    --     29.8277                82.7097                35.7525

                     76                     77                     78
                      A                      A                      A
 Frequencies --   3112.8942              3163.1756              3501.5927
 Red. masses --      1.1015                 1.1072                 1.0760
 Frc consts  --      6.2886                 6.5271                 7.7732
 IR Inten    --     56.9947                23.3011                 1.5692

 - Thermochemistry -
 -------------------
 Temperature   298.150 Kelvin.  Pressure   1.00000 Atm.
 Atom     1 has atomic number  6 and mass  12.00000

 Molecular mass:   155.13101 amu.
 Principal axes and moments of inertia in atomic units:
                           1         2         3
     Eigenvalues --   709.943563674.814063957.53342
           X            0.99999  -0.00326   0.00072
           Y            0.00329   0.99869  -0.05112
           Z           -0.00055   0.05112   0.99869
 This molecule is an asymmetric top.
 Rotational symmetry number  1.
 Warning -- assumption of classical behavior for rotation
           may cause significant error
 Rotational temperatures (Kelvin)      0.12200     0.02357     0.02189
 Rotational constants (GHZ):           2.54209     0.49111     0.45603
 Zero-point vibrational energy     662398.1 (Joules/Mol)
                                  158.31695 (Kcal/Mol)
 Warning -- explicit consideration of  17 degrees of freedom as
           vibrations may cause significant error
 Vibrational temperatures:     35.45    46.81    64.20   143.37   169.83
          (Kelvin)            268.31   314.53   326.16   347.25   393.42
                              432.54   545.11   588.41   633.62   672.45
                              800.03   843.25   993.70  1082.31  1119.50
                             1146.74  1281.52  1304.66  1323.69  1350.77
                             1355.97  1395.79  1404.58  1421.27  1489.43
                             1512.74  1523.28  1561.23  1627.22  1648.92
                             1668.91  1732.68  1740.13  1752.50  1776.77
                             1815.78  1839.66  1856.01  1911.55  1950.97
                             1981.83  1992.30  2015.82  2028.80  2036.76
                             2057.97  2084.48  2114.92  2168.12  2181.89
                             2186.79  2195.71  2209.52  2218.58  2238.55
                             2588.02  4344.36  4355.98  4360.14  4365.05
                             4370.03  4376.76  4402.63  4429.72  4437.59
                             4450.21  4455.45  4461.51  4469.40  4476.59
                             4478.76  4551.10  5038.01

 Zero-point correction=                           0.252294 (Hartree/Particle)
 Thermal correction to Energy=                    0.264816
 Thermal correction to Enthalpy=                  0.265760
 Thermal correction to Gibbs Free Energy=         0.211764
 Sum of electronic and zero-point Energies=           -482.928126
 Sum of electronic and thermal Energies=              -482.915605
 Sum of electronic and thermal Enthalpies=            -482.914660
 Sum of electronic and thermal Free Energies=         -482.968656

                     E (Thermal)             CV                S
                      KCal/Mol        Cal/Mol-Kelvin    Cal/Mol-Kelvin
 Total                  166.174             45.617            113.644
 Electronic               0.000              0.000              0.000
 Translational            0.889              2.981             41.027
 Rotational               0.889              2.981             30.713
 Vibrational            164.397             39.655             41.904
 Vibration     1          0.593              1.985              6.220
 Vibration     2          0.594              1.983              5.668
 Vibration     3          0.595              1.980              5.043
 Vibration     4          0.604              1.949              3.461
 Vibration     5          0.608              1.934              3.132
 Vibration     6          0.632              1.858              2.262
 Vibration     7          0.646              1.813              1.971
 Vibration     8          0.650              1.800              1.905
 Vibration     9          0.658              1.777              1.793
 Vibration    10          0.676              1.722              1.574
 Vibration    11          0.693              1.672              1.413
 Vibration    12          0.749              1.515              1.044
 Vibration    13          0.773              1.451              0.930
 Vibration    14          0.800              1.382              0.825
 Vibration    15          0.825              1.322              0.745
 Vibration    16          0.912              1.126              0.532
 Vibration    17          0.943              1.061              0.474

 Optimization completed.
    -- Stationary point found.
 Normal termination of Gaussian 16 at Tue Dec  8 20:49:26 2020.

 ----------------------------------------------------------------------
 # B3LYP/6-311++G(d,p) empiricaldispersion=gd3bj scf=xqc pop=npa geom=c
 heck
 ----------------------------------------------------------------------

 ---------------------------------------
 CID_105430407_JID_1782_Energie_neutraal
 ---------------------------------------
 Structure from the checkpoint file:  "JID_1782.chk"
 Charge =  0 Multiplicity = 1

 SCF Done:  E(RB3LYP) =  -483.321514196     A.U. after   13 cycles
 Normal termination of Gaussian 16 at Tue Dec  8 20:53:03 2020.

 ----------------------------------------------------------------------
 # B3LYP/6-311++G(d,p) empiricaldispersion=gd3bj scf=xqc pop=npa geom=c
 heck
 ----------------------------------------------------------------------

 -------------------------------------
 CID_105430407_JID_1782_Energie_kation
 -------------------------------------
 Structure from the checkpoint file:  "JID_1782.chk"
 Charge =  1 Multiplicity = 2

 SCF Done:  E(UB3LYP) =  -483.008382893     A.U. after   21 cycles
 Normal termination of Gaussian 16 at Tue Dec  8 20:59:17 2020.
 Gaussian 16:  ES64L-G16RevA.03 25-Dec-2016

 ----------------------------------------------------------------------
 # B3LYP/6-311++G(d,p) empiricaldispersion=gd3bj scf=xqc pop=npa geom=c
 heck
 ----------------------------------------------------------------------

 ------------------------------------
 CID_105430407_JID_1782_Energie_anion
 ------------------------------------
 Structure from the checkpoint file:  "JID_1782.chk"
 Charge = -1 Multiplicity = 2

                         Standard orientation:
 ---------------------------------------------------------------------
 Center     Atomic      Atomic             Coordinates (Angstroms)
 Number     Number       Type             X           Y           Z
 ---------------------------------------------------------------------
      1          6           0        2.761299   -1.558446    0.487647
      2          6           0        2.591548   -0.061462    0.198070
      3          6           0        3.952069    0.585963   -0.086406
      4          6           0        1.629307    0.199634   -0.975943
      5          6           0        0.184820   -0.242284   -0.739829
      6          6           0       -0.561617    0.610446    0.267683
      7          8           0       -0.090112    1.614916    0.773441
      8          6           0       -1.995729    0.217941    0.592635
      9          6           0       -3.088451    0.769998   -0.373815
     10          6           0       -3.719289   -0.638294   -0.283795
     11          7           0       -2.430162   -1.152692    0.239786
     12          1           0        3.163524   -2.082104   -0.389830
     13          1           0        1.814759   -2.039815    0.757246
     14          1           0        3.458430   -1.718950    1.318253
     15          1           0        2.168086    0.420380    1.087794
     16          1           0        4.411888    0.151822   -0.984280
     17          1           0        3.850203    1.664799   -0.250304
     18          1           0        4.646729    0.435217    0.748201
     19          1           0        1.631554    1.273158   -1.198239
     20          1           0        2.015003   -0.312150   -1.868836
     21          1           0       -0.393470   -0.211288   -1.675201
     22          1           0        0.105897   -1.289226   -0.424874
     23          1           0       -2.201758    0.521444    1.628788
     24          1           0       -3.673478    1.616588   -0.012422
     25          1           0       -2.692631    0.997279   -1.367082
     26          1           0       -4.047504   -1.109914   -1.216742
     27          1           0       -4.547015   -0.671518    0.439572
     28          1           0       -2.501929   -1.797179    1.024445
 ---------------------------------------------------------------------

 SCF Done:  E(UB3LYP) =  -483.306893184     A.U. after   33 cycles
 SCF Done:  E(UB3LYP) =  -483.306893184     a.u. after    1 cycles

 The electronic state is 2-A.
 Alpha  occ. eigenvalues --  -19.01166 -14.19438 -10.15465 -10.10244 -10.09078
 Alpha  occ. eigenvalues --  -10.07708 -10.07339 -10.07111 -10.06641 -10.06427
 Alpha  occ. eigenvalues --  -10.05919  -0.94338  -0.83079  -0.71724  -0.65979
 Alpha  occ. eigenvalues --   -0.62411  -0.59961  -0.58833  -0.54491  -0.47937
 Alpha  occ. eigenvalues --   -0.46355  -0.42699  -0.41575  -0.38920  -0.36600
 Alpha  occ. eigenvalues --   -0.35876  -0.34536  -0.32880  -0.31409  -0.30969
 Alpha  occ. eigenvalues --   -0.29560  -0.29063  -0.27551  -0.26845  -0.26567
 Alpha  occ. eigenvalues --   -0.26200  -0.24345  -0.23327  -0.22792  -0.22682
 Alpha  occ. eigenvalues --   -0.21753  -0.15556  -0.12859   0.04607
 Alpha virt. eigenvalues --    0.06348   0.06978   0.07365   0.08329   0.08795
 Alpha virt. eigenvalues --    0.08959   0.09383   0.10625   0.10933   0.11401
 Alpha virt. eigenvalues --    0.11747   0.12248   0.12763   0.13093   0.14129

  Beta  occ. eigenvalues --  -19.01161 -14.19400 -10.15462 -10.10230 -10.09036
  Beta  occ. eigenvalues --  -10.07692 -10.07335 -10.07095 -10.06632 -10.06413
  Beta  occ. eigenvalues --  -10.05892  -0.94329  -0.83034  -0.71707  -0.65951
  Beta  occ. eigenvalues --   -0.62339  -0.59910  -0.58790  -0.54440  -0.47861
  Beta  occ. eigenvalues --   -0.46302  -0.42609  -0.41517  -0.38895  -0.36578
  Beta  occ. eigenvalues --   -0.35848  -0.34510  -0.32852  -0.31372  -0.30932
  Beta  occ. eigenvalues --   -0.29518  -0.29039  -0.27512  -0.26821  -0.26530
  Beta  occ. eigenvalues --   -0.26174  -0.24286  -0.23290  -0.22765  -0.22655
  Beta  occ. eigenvalues --   -0.21727  -0.15531  -0.12812
  Beta virt. eigenvalues --    0.06571   0.07093   0.07517   0.08208   0.08690
  Beta virt. eigenvalues --    0.09257   0.09394   0.09956   0.10922   0.11298
  Beta virt. eigenvalues --    0.11668   0.12071   0.12582   0.13028   0.13429

 Mulliken charges and spin densities:
               1          2
     1  C    0.563262  -1.256773
     2  C   -1.161423   1.551957
     3  C    0.036600  -0.653843
     4  C    1.118333  -1.645232
     5  C   -0.016619   0.053744
     6  C   -0.899835   0.683583
     7  O   -0.234796   0.001456
     8  C    0.159823  -0.287122
     9  C   -0.252039  -0.074699
    10  C    1.721054  -2.001825
    11  N   -0.264590   0.147539
    12  H   -0.108816   0.241127
    13  H   -0.124805   0.266254
    14  H   -0.176924   0.304368
    15  H    0.104197   0.088025
    16  H   -0.012268   0.137625
    17  H    0.028336   0.103042
    18  H   -0.011745   0.141395
    19  H    0.182611  -0.027681
    20  H   -0.113037   0.262016
    21  H   -0.038843   0.238753
    22  H    0.326989  -0.146122
    23  H   -0.333392   0.554801
    24  H   -0.089416   0.236797
    25  H   -0.091635   0.205743
    26  H   -0.321867   0.469834
    27  H   -0.690564   0.848562
    28  H   -0.298589   0.556678
 Sum of Mulliken charges =  -1.00000   1.00000

 Dipole moment (field-independent basis, Debye):
    X=              5.2426    Y=              2.8261    Z=             -2.4231  Tot=              6.4298
 Quadrupole moment (field-independent basis, Debye-Ang):
   XX=           -154.0087   YY=           -107.4359   ZZ=           -102.7819
   XY=             -4.5854   XZ=              6.1467   YZ=              0.9233

 Summary of Natural Population Analysis:

                                       Natural Population
                Natural  -----------------------------------------------
    Atom  No    Charge         Core      Valence    Rydberg      Total
 -----------------------------------------------------------------------
      C    1   -0.28637      0.99965     2.28079    0.00593     3.28637
      C    2   -0.12014      0.99961     2.11054    0.00999     3.12014
      C    3   -0.28053      0.99965     2.27630    0.00458     3.28053
      C    4   -0.18957      0.99961     2.17977    0.01019     3.18957
      C    5   -0.24327      0.99957     2.23556    0.00815     3.24327
      C    6    0.29860      0.99963     1.68113    0.02063     2.70140
      O    7   -0.29372      0.99988     3.28770    0.00614     4.29372
      C    8   -0.05119      0.99958     2.03590    0.01571     3.05119
      C    9   -0.18321      0.99961     2.17573    0.00787     3.18321
      C   10   -0.08075      0.99966     2.06968    0.01142     3.08075
      N   11   -0.34360      0.99975     2.83126    0.01259     3.84360
      H   12    0.09435      0.00000     0.40463    0.00102     0.40565
      H   13    0.10126      0.00000     0.39758    0.00117     0.39874
      H   14    0.09812      0.00000     0.40099    0.00089     0.40188
      H   15    0.10061      0.00000     0.39751    0.00188     0.39939
      H   16    0.09398      0.00000     0.40505    0.00098     0.40602
      H   17    0.09815      0.00000     0.40097    0.00088     0.40185
      H   18    0.09681      0.00000     0.40233    0.00086     0.40319
      H   19    0.10199      0.00000     0.39683    0.00118     0.39801
      H   20    0.09527      0.00000     0.40375    0.00098     0.40473
      H   21    0.11604      0.00000     0.38277    0.00119     0.38396
      H   22    0.11901      0.00000     0.37911    0.00188     0.38099
      H   23    0.09957      0.00000     0.39854    0.00189     0.40043
      H   24    0.10243      0.00000     0.39641    0.00116     0.39757
      H   25    0.09697      0.00000     0.40166    0.00136     0.40303
      H   26    0.08799      0.00000     0.41033    0.00168     0.41201
      H   27    0.08894      0.00000     0.40591    0.00516     0.41106
      H   28    0.18227      0.00000     0.31112    0.00661     0.31773
 =======================================================================
   * Total *    0.00000     10.99621    31.85984    0.14395    43.00000

 Normal termination of Gaussian 16 at Tue Dec  8 21:11:29 2020.
