 Gaussian 16, Revision A.03,

 -----------------------------------------------------------
 # opt freq B3LYP/6-31G(d) empiricaldispersion=gd3bj scf=xqc
 -----------------------------------------------------------

 ------------------------------
 CID_60663404_JID_7700_neutraal
 ------------------------------
 Symbolic Z-matrix:
 Charge =  0 Multiplicity = 1

 SCF Done:  E(RB3LYP) =  -748.943641297     A.U. after   14 cycles
 SCF Done:  E(RB3LYP) =  -748.947064646     A.U. after   12 cycles
 SCF Done:  E(RB3LYP) =  -748.947527940     A.U. after   11 cycles
 SCF Done:  E(RB3LYP) =  -748.947702711     A.U. after   11 cycles
 SCF Done:  E(RB3LYP) =  -748.947849715     A.U. after   11 cycles
 SCF Done:  E(RB3LYP) =  -748.947931540     A.U. after   11 cycles
 SCF Done:  E(RB3LYP) =  -748.947993616     A.U. after   11 cycles
 SCF Done:  E(RB3LYP) =  -748.948105220     A.U. after   11 cycles
 SCF Done:  E(RB3LYP) =  -748.948253698     A.U. after   12 cycles
 SCF Done:  E(RB3LYP) =  -748.948375458     A.U. after   12 cycles
 SCF Done:  E(RB3LYP) =  -748.948761775     A.U. after    9 cycles
 SCF Done:  E(RB3LYP) =  -748.948761813     A.U. after    7 cycles
 SCF Done:  E(RB3LYP) =  -748.948761832     A.U. after    6 cycles
 SCF Done:  E(RB3LYP) =  -748.948761836     A.U. after    6 cycles
 SCF Done:  E(RB3LYP) =  -748.948761835     A.U. after    6 cycles
 Optimization completed.
    -- Stationary point found.
 Normal termination of Gaussian 16 at Fri Dec 11 13:13:09 2020.

 --------------------------------------------------------------------
 #N Geom=AllCheck Guess=TCheck SCRF=Check GenChk RB3LYP/6-31G(d) Freq
 --------------------------------------------------------------------

 Structure from the checkpoint file:  "JID_7700.chk"
 ------------------------------
 CID_60663404_JID_7700_neutraal
 ------------------------------
 Charge =  0 Multiplicity = 1

 SCF Done:  E(RB3LYP) =  -748.948761835     A.U. after    1 cycles

  Exact polarizability: 202.726  21.982 131.693  10.456  -0.461 135.897
 Approx polarizability: 251.126  40.787 205.862  19.442  -1.961 234.999

                      1                      2                      3
                      A                      A                      A
 Frequencies --     18.9925                23.3380                29.7999
 Red. masses --      4.3221                 4.1321                 4.0341
 Frc consts  --      0.0009                 0.0013                 0.0021
 IR Inten    --      0.0959                 0.1382                 0.3914

                      4                      5                      6
                      A                      A                      A
 Frequencies --     66.5380                86.1557                89.9049
 Red. masses --      3.5060                 3.5682                 3.8380
 Frc consts  --      0.0091                 0.0156                 0.0183
 IR Inten    --      0.4822                 0.6830                 3.9810

                      7                      8                      9
                      A                      A                      A
 Frequencies --    130.6596               167.2571               203.7339
 Red. masses --      1.1274                 3.2235                 3.3291
 Frc consts  --      0.0113                 0.0531                 0.0814
 IR Inten    --      0.1533                 1.0802                 0.6995

                     10                     11                     12
                      A                      A                      A
 Frequencies --    217.9991               219.3805               259.9791
 Red. masses --      3.1432                 2.2854                 2.5572
 Frc consts  --      0.0880                 0.0648                 0.1018
 IR Inten    --      5.6085                 0.4051                 4.5745

                     13                     14                     15
                      A                      A                      A
 Frequencies --    273.1121               283.4658               328.3358
 Red. masses --      2.9385                 1.5696                 3.4485
 Frc consts  --      0.1291                 0.0743                 0.2190
 IR Inten    --      0.6871                 0.7868                 0.5165

                     16                     17                     18
                      A                      A                      A
 Frequencies --    358.2578               399.6779               410.2275
 Red. masses --      2.5372                 3.0039                 3.6107
 Frc consts  --      0.1919                 0.2827                 0.3580
 IR Inten    --      0.5956                 0.9848                 0.0175

                     19                     20                     21
                      A                      A                      A
 Frequencies --    460.8689               476.8832               538.5662
 Red. masses --      3.5813                 3.9292                 4.4030
 Frc consts  --      0.4482                 0.5265                 0.7525
 IR Inten    --      0.9014                 2.5332                 2.9754

                     22                     23                     24
                      A                      A                      A
 Frequencies --    582.5261               632.6134               638.1153
 Red. masses --      4.7065                 3.6053                 4.3898
 Frc consts  --      0.9410                 0.8501                 1.0532
 IR Inten    --      6.1864                 2.3864                 3.3557

                     25                     26                     27
                      A                      A                      A
 Frequencies --    657.2514               674.0657               712.2813
 Red. masses --      4.4253                 4.3948                 2.3264
 Frc consts  --      1.1263                 1.1765                 0.6954
 IR Inten    --      1.4781                 3.8738                19.9659

                     28                     29                     30
                      A                      A                      A
 Frequencies --    744.4284               773.7966               790.6981
 Red. masses --      3.1734                 3.1729                 1.4035
 Frc consts  --      1.0362                 1.1193                 0.5170
 IR Inten    --     16.7494                 3.3034                68.0862

                     31                     32                     33
                      A                      A                      A
 Frequencies --    798.3219               809.4855               845.6690
 Red. masses --      1.2499                 1.9208                 1.3677
 Frc consts  --      0.4693                 0.7416                 0.5763
 IR Inten    --     44.7189                89.4477                 4.5495

                     34                     35                     36
                      A                      A                      A
 Frequencies --    876.2539               893.3673               915.0207
 Red. masses --      1.4264                 1.5065                 2.5588
 Frc consts  --      0.6453                 0.7084                 1.2622
 IR Inten    --      0.9499                16.2934                 6.3003

                     37                     38                     39
                      A                      A                      A
 Frequencies --    937.2448               957.0267               961.0083
 Red. masses --      2.6673                 2.3756                 1.2635
 Frc consts  --      1.3805                 1.2819                 0.6875
 IR Inten    --      5.7223                27.5257                 0.5096

                     40                     41                     42
                      A                      A                      A
 Frequencies --    985.7829              1011.5658              1017.0918
 Red. masses --      2.6124                 3.1210                 6.0163
 Frc consts  --      1.4957                 1.8816                 3.6669
 IR Inten    --      1.2982                14.8458                 0.4856

                     43                     44                     45
                      A                      A                      A
 Frequencies --   1034.6689              1052.2250              1081.0505
 Red. masses --      1.8402                 1.5223                 1.6098
 Frc consts  --      1.1607                 0.9930                 1.1084
 IR Inten    --     22.7440                24.5105                 5.3946

                     46                     47                     48
                      A                      A                      A
 Frequencies --   1083.2102              1103.4242              1126.2169
 Red. masses --      2.1084                 2.4672                 4.4980
 Frc consts  --      1.4575                 1.7699                 3.3614
 IR Inten    --      4.5454                67.6913                40.8355

                     49                     50                     51
                      A                      A                      A
 Frequencies --   1134.0043              1186.6807              1187.7410
 Red. masses --      1.6463                 1.2733                 1.8979
 Frc consts  --      1.2474                 1.0565                 1.5775
 IR Inten    --      4.5132                 0.8861                36.3488

                     52                     53                     54
                      A                      A                      A
 Frequencies --   1207.4445              1210.5835              1227.5550
 Red. masses --      1.1658                 1.2986                 1.4602
 Frc consts  --      1.0014                 1.1213                 1.2964
 IR Inten    --      0.6617                 1.6767                 2.7970

                     55                     56                     57
                      A                      A                      A
 Frequencies --   1244.8306              1260.1245              1275.7132
 Red. masses --      1.6880                 3.2388                 3.1259
 Frc consts  --      1.5411                 3.0301                 2.9973
 IR Inten    --      2.4949                 8.5085                 6.0960

                     58                     59                     60
                      A                      A                      A
 Frequencies --   1304.4752              1320.7042              1345.8711
 Red. masses --      2.6295                 1.8024                 1.3356
 Frc consts  --      2.6363                 1.8523                 1.4253
 IR Inten    --    126.7082                94.3245                14.5378

                     61                     62                     63
                      A                      A                      A
 Frequencies --   1376.8545              1380.5630              1411.5653
 Red. masses --      2.7720                 1.6051                 1.4224
 Frc consts  --      3.0961                 1.8024                 1.6698
 IR Inten    --      9.6355                48.5381                16.5514

                     64                     65                     66
                      A                      A                      A
 Frequencies --   1416.6794              1445.3696              1493.1970
 Red. masses --      2.6890                 1.3084                 1.6152
 Frc consts  --      3.1797                 1.6105                 2.1219
 IR Inten    --      4.1426                 3.3306                44.4029

                     67                     68                     69
                      A                      A                      A
 Frequencies --   1497.8350              1502.8463              1507.4555
 Red. masses --      1.1248                 1.0430                 1.7284
 Frc consts  --      1.4868                 1.3880                 2.3141
 IR Inten    --     10.8037                 6.1406                 8.9084

                     70                     71                     72
                      A                      A                      A
 Frequencies --   1515.2419              1520.8565              1522.3537
 Red. masses --      1.2022                 1.0478                 1.1125
 Frc consts  --      1.6262                 1.4280                 1.5190
 IR Inten    --     39.5743                 5.3043                 3.2599

                     73                     74                     75
                      A                      A                      A
 Frequencies --   1529.1765              1537.0510              1542.4061
 Red. masses --      1.0891                 1.1003                 2.1870
 Frc consts  --      1.5004                 1.5316                 3.0655
 IR Inten    --      4.7228                31.0597                33.4346

                     76                     77                     78
                      A                      A                      A
 Frequencies --   1618.4339              1645.0279              1671.2605
 Red. masses --      7.0387                 5.5872                 6.0737
 Frc consts  --     10.8625                 8.9083                 9.9952
 IR Inten    --     20.5835                58.1445                27.4171

                     79                     80                     81
                      A                      A                      A
 Frequencies --   1671.7206              2990.2306              3024.8886
 Red. masses --      6.1223                 1.0668                 1.0349
 Frc consts  --     10.0807                 5.6203                 5.5789
 IR Inten    --     50.7220                36.0316                57.0868

                     82                     83                     84
                      A                      A                      A
 Frequencies --   3044.6165              3047.5302              3050.1997
 Red. masses --      1.0386                 1.0899                 1.0616
 Frc consts  --      5.6726                 5.9641                 5.8191
 IR Inten    --     34.9252                14.3497                56.4451

                     85                     86                     87
                      A                      A                      A
 Frequencies --   3083.0271              3093.5954              3094.2116
 Red. masses --      1.1066                 1.1062                 1.1015
 Frc consts  --      6.1970                 6.2377                 6.2134
 IR Inten    --     44.3741                19.4191                19.8052

                     88                     89                     90
                      A                      A                      A
 Frequencies --   3140.3153              3158.8451              3174.7991
 Red. masses --      1.0995                 1.0996                 1.0869
 Frc consts  --      6.3887                 6.4648                 6.4544
 IR Inten    --     13.1226                27.0596                 6.8451

                     91                     92                     93
                      A                      A                      A
 Frequencies --   3194.8818              3198.7716              3230.2134
 Red. masses --      1.0926                 1.0907                 1.0916
 Frc consts  --      6.5709                 6.5757                 6.7109
 IR Inten    --     29.4463                 1.2897                12.2419

                     94                     95                     96
                      A                      A                      A
 Frequencies --   3257.9879              3271.3279              3478.6710
 Red. masses --      1.0929                 1.1009                 1.0739
 Frc consts  --      6.8347                 6.9417                 7.6569
 IR Inten    --     10.2289                 2.8084                 0.6309

 - Thermochemistry -
 -------------------
 Temperature   298.150 Kelvin.  Pressure   1.00000 Atm.
 Atom     1 has atomic number  6 and mass  12.00000

 Molecular mass:   231.12593 amu.
 Principal axes and moments of inertia in atomic units:
                           1         2         3
     Eigenvalues --  1739.06449********************
           X            0.99998   0.00622   0.00314
           Y           -0.00626   0.99990   0.01272
           Z           -0.00306  -0.01274   0.99991
 This molecule is an asymmetric top.
 Rotational symmetry number  1.
 Warning -- assumption of classical behavior for rotation
           may cause significant error
 Rotational temperatures (Kelvin)      0.04980     0.00849     0.00807
 Rotational constants (GHZ):           1.03777     0.17680     0.16825
 Zero-point vibrational energy     753547.3 (Joules/Mol)
                                  180.10214 (Kcal/Mol)
 Warning -- explicit consideration of  22 degrees of freedom as
           vibrations may cause significant error
 Vibrational temperatures:     27.33    33.58    42.88    95.73   123.96
          (Kelvin)            129.35   187.99   240.65   293.13   313.65
                              315.64   374.05   392.95   407.84   472.40
                              515.45   575.05   590.23   663.09   686.13
                              774.88   838.13   910.19   918.11   945.64
                              969.83  1024.81  1071.07  1113.32  1137.64
                             1148.61  1164.67  1216.73  1260.73  1285.36
                             1316.51  1348.49  1376.95  1382.68  1418.32
                             1455.42  1463.37  1488.66  1513.92  1555.39
                             1558.50  1587.58  1620.37  1631.58  1707.37
                             1708.89  1737.24  1741.76  1766.18  1791.03
                             1813.04  1835.47  1876.85  1900.20  1936.41
                             1980.99  1986.32  2030.93  2038.29  2079.56
                             2148.38  2155.05  2162.26  2168.89  2180.10
                             2188.17  2190.33  2200.14  2211.47  2219.18
                             2328.57  2366.83  2404.57  2405.23  4302.27
                             4352.14  4380.52  4384.72  4388.56  4435.79
                             4450.99  4451.88  4518.21  4544.87  4567.83
                             4596.72  4602.32  4647.56  4687.52  4706.71
                             5005.03

 Zero-point correction=                           0.287011 (Hartree/Particle)
 Thermal correction to Energy=                    0.303288
 Thermal correction to Enthalpy=                  0.304233
 Thermal correction to Gibbs Free Energy=         0.240294
 Sum of electronic and zero-point Energies=           -748.661751
 Sum of electronic and thermal Energies=              -748.645473
 Sum of electronic and thermal Enthalpies=            -748.644529
 Sum of electronic and thermal Free Energies=         -748.708468

                     E (Thermal)             CV                S
                      KCal/Mol        Cal/Mol-Kelvin    Cal/Mol-Kelvin
 Total                  190.316             61.013            134.570
 Electronic               0.000              0.000              0.000
 Translational            0.889              2.981             42.215
 Rotational               0.889              2.981             33.609
 Vibrational            188.539             55.052             58.745
 Vibration     1          0.593              1.986              6.737
 Vibration     2          0.593              1.985              6.328
 Vibration     3          0.594              1.984              5.843
 Vibration     4          0.598              1.970              4.253
 Vibration     5          0.601              1.959              3.746
 Vibration     6          0.602              1.956              3.662
 Vibration     7          0.612              1.923              2.936
 Vibration     8          0.624              1.883              2.466
 Vibration     9          0.639              1.835              2.099
 Vibration    10          0.646              1.814              1.976
 Vibration    11          0.647              1.812              1.964
 Vibration    12          0.668              1.746              1.662
 Vibration    13          0.676              1.723              1.576
 Vibration    14          0.682              1.704              1.513
 Vibration    15          0.712              1.619              1.268
 Vibration    16          0.733              1.558              1.130
 Vibration    17          0.766              1.471              0.964
 Vibration    18          0.774              1.448              0.926
 Vibration    19          0.819              1.337              0.764
 Vibration    20          0.833              1.301              0.719
 Vibration    21          0.894              1.165              0.568
 Vibration    22          0.939              1.069              0.481

 Optimization completed.
    -- Stationary point found.
 Normal termination of Gaussian 16 at Fri Dec 11 13:23:40 2020.

 ----------------------------------------------------------------------
 # B3LYP/6-311++G(d,p) empiricaldispersion=gd3bj scf=xqc pop=npa geom=c
 heck
 ----------------------------------------------------------------------

 --------------------------------------
 CID_60663404_JID_7700_Energie_neutraal
 --------------------------------------
 Structure from the checkpoint file:  "JID_7700.chk"
 Charge =  0 Multiplicity = 1

 SCF Done:  E(RB3LYP) =  -749.155365714     A.U. after   14 cycles
 Normal termination of Gaussian 16 at Fri Dec 11 13:28:37 2020.

 ----------------------------------------------------------------------
 # B3LYP/6-311++G(d,p) empiricaldispersion=gd3bj scf=xqc pop=npa geom=c
 heck
 ----------------------------------------------------------------------

 ------------------------------------
 CID_60663404_JID_7700_Energie_kation
 ------------------------------------
 Structure from the checkpoint file:  "JID_7700.chk"
 Charge =  1 Multiplicity = 2

 SCF Done:  E(UB3LYP) =  -748.881196179     A.U. after   27 cycles
 Normal termination of Gaussian 16 at Fri Dec 11 13:42:15 2020.
 Gaussian 16:  ES64L-G16RevA.03 25-Dec-2016

 ----------------------------------------------------------------------
 # B3LYP/6-311++G(d,p) empiricaldispersion=gd3bj scf=xqc pop=npa geom=c
 heck
 ----------------------------------------------------------------------

 -----------------------------------
 CID_60663404_JID_7700_Energie_anion
 -----------------------------------
 Structure from the checkpoint file:  "JID_7700.chk"
 Charge = -1 Multiplicity = 2

                         Standard orientation:
 ---------------------------------------------------------------------
 Center     Atomic      Atomic             Coordinates (Angstroms)
 Number     Number       Type             X           Y           Z
 ---------------------------------------------------------------------
      1          6           0       -5.987571    0.140208   -0.377882
      2          6           0       -4.627400    0.493827    0.108570
      3          6           0       -4.163986    1.234279    1.156345
      4          6           0       -2.731672    1.195616    1.081380
      5          6           0       -2.417041    0.436390   -0.006690
      6          8           0       -3.570749    0.000803   -0.608773
      7          6           0       -1.123046    0.004146   -0.598230
      8          7           0       -0.908662   -1.437403   -0.421617
      9          6           0        0.382500   -1.905255   -0.940924
     10          6           0        1.601805   -1.288451   -0.279070
     11          6           0        2.288113   -0.238296   -0.882736
     12          6           0        3.370975    0.378534   -0.239680
     13          6           0        3.773003   -0.060894    1.025077
     14          6           0        3.082558   -1.117220    1.628686
     15          6           0        2.009062   -1.727581    0.991022
     16          8           0        3.963265    1.396249   -0.930625
     17          6           0        5.062148    2.056061   -0.325984
     18          1           0       -6.157338    0.504684   -1.398572
     19          1           0       -6.140067   -0.946010   -0.388380
     20          1           0       -6.742482    0.586491    0.275201
     21          1           0       -4.769696    1.746389    1.891110
     22          1           0       -2.025720    1.672311    1.747616
     23          1           0       -1.115670    0.203815   -1.678612
     24          1           0       -0.327854    0.626604   -0.155446
     25          1           0       -0.965811   -1.648957    0.574238
     26          1           0        0.404866   -2.994440   -0.818595
     27          1           0        0.399388   -1.700430   -2.018204
     28          1           0        2.000544    0.122935   -1.866019
     29          1           0        4.608329    0.398620    1.539596
     30          1           0        3.400592   -1.463537    2.608418
     31          1           0        1.485447   -2.551650    1.470017
     32          1           0        4.775011    2.531907    0.621097
     33          1           0        5.895484    1.365120   -0.141851
     34          1           0        5.378813    2.823360   -1.034421
 ---------------------------------------------------------------------

 SCF Done:  E(UB3LYP) =  -749.142892159     A.U. after   33 cycles
 SCF Done:  E(UB3LYP) =  -749.142892160     a.u. after    1 cycles

 The electronic state is 2-A.
 Alpha  occ. eigenvalues --  -19.09611 -19.06764 -14.21942 -10.15007 -10.14136
 Alpha  occ. eigenvalues --  -10.13642 -10.13112 -10.11940 -10.11728 -10.09690
 Alpha  occ. eigenvalues --  -10.09275 -10.09207 -10.08551 -10.08541 -10.08427
 Alpha  occ. eigenvalues --  -10.08388 -10.08142  -1.02156  -0.98364  -0.83025
 Alpha  occ. eigenvalues --   -0.77008  -0.71494  -0.70701  -0.67823  -0.67364
 Alpha  occ. eigenvalues --   -0.63893  -0.60975  -0.58670  -0.55319  -0.52473
 Alpha  occ. eigenvalues --   -0.51472  -0.49436  -0.46708  -0.44658  -0.43408
 Alpha  occ. eigenvalues --   -0.40441  -0.40303  -0.38566  -0.38270  -0.38169
 Alpha  occ. eigenvalues --   -0.36525  -0.36074  -0.35131  -0.34395  -0.33240
 Alpha  occ. eigenvalues --   -0.32952  -0.31703  -0.30877  -0.30607  -0.29992
 Alpha  occ. eigenvalues --   -0.29300  -0.29065  -0.27971  -0.27583  -0.27405
 Alpha  occ. eigenvalues --   -0.24609  -0.23611  -0.19669  -0.17125  -0.15261
 Alpha  occ. eigenvalues --   -0.13897  -0.13533   0.03799
 Alpha virt. eigenvalues --    0.04827   0.06135   0.06627   0.07137   0.07282
 Alpha virt. eigenvalues --    0.07716   0.07907   0.08322   0.08447   0.08893
 Alpha virt. eigenvalues --    0.09427   0.09803   0.10015   0.10540   0.11386

  Beta  occ. eigenvalues --  -19.09604 -19.06755 -14.21936 -10.15010 -10.14134
  Beta  occ. eigenvalues --  -10.13641 -10.13059 -10.11937 -10.11724 -10.09686
  Beta  occ. eigenvalues --  -10.09241 -10.09194 -10.08545 -10.08518 -10.08421
  Beta  occ. eigenvalues --  -10.08381 -10.08130  -1.02145  -0.98344  -0.83014
  Beta  occ. eigenvalues --   -0.76990  -0.71480  -0.70683  -0.67798  -0.67334
  Beta  occ. eigenvalues --   -0.63865  -0.60913  -0.58640  -0.55292  -0.52446
  Beta  occ. eigenvalues --   -0.51451  -0.49393  -0.46690  -0.44622  -0.43387
  Beta  occ. eigenvalues --   -0.40410  -0.40269  -0.38545  -0.38247  -0.38137
  Beta  occ. eigenvalues --   -0.36505  -0.36051  -0.35102  -0.34369  -0.33207
  Beta  occ. eigenvalues --   -0.32914  -0.31674  -0.30854  -0.30586  -0.29973
  Beta  occ. eigenvalues --   -0.29279  -0.29039  -0.27944  -0.27568  -0.27386
  Beta  occ. eigenvalues --   -0.24570  -0.23584  -0.19657  -0.17092  -0.15249
  Beta  occ. eigenvalues --   -0.13877  -0.13519
  Beta virt. eigenvalues --    0.05636   0.06111   0.06555   0.06928   0.07324
  Beta virt. eigenvalues --    0.07493   0.07928   0.08004   0.08642   0.08788
  Beta virt. eigenvalues --    0.09292   0.09911   0.10051   0.10399   0.10747

 Mulliken charges and spin densities:
               1          2
     1  C    1.919829  -2.521525
     2  C   -1.041406   1.260179
     3  C   -0.360931   0.202291
     4  C   -0.277067   0.061567
     5  C    0.223923  -0.177081
     6  O   -0.016222   0.034698
     7  C   -0.257789  -0.438461
     8  N    0.041124   0.013969
     9  C   -0.379825  -0.458080
    10  C    0.651576   0.170822
    11  C   -0.795684   0.503162
    12  C   -0.874674   0.326192
    13  C    1.138283  -0.872465
    14  C    0.049803  -0.407067
    15  C    0.175888  -0.293563
    16  O   -0.204070   0.058871
    17  C    1.108278  -1.412966
    18  H   -0.083114   0.234683
    19  H   -0.039888   0.193808
    20  H   -0.466549   0.635915
    21  H   -0.410861   0.570827
    22  H   -0.098272   0.261453
    23  H    0.083522   0.063780
    24  H    0.343767  -0.161447
    25  H    0.155949   0.035844
    26  H    0.063381   0.125083
    27  H    0.133206   0.017094
    28  H    0.119422   0.062050
    29  H   -0.276483   0.454342
    30  H   -0.545148   0.730148
    31  H    0.040367   0.113746
    32  H   -0.383921   0.546940
    33  H   -0.361834   0.522733
    34  H   -0.374581   0.542459
 Sum of Mulliken charges =  -1.00000   1.00000

 Dipole moment (field-independent basis, Debye):
    X=             -2.1767    Y=             -3.2266    Z=             -2.7378  Tot=              4.7586
 Quadrupole moment (field-independent basis, Debye-Ang):
   XX=           -259.5740   YY=           -141.8831   ZZ=           -135.4776
   XY=            -10.4635   XZ=             -5.9079   YZ=             -0.9889

 Summary of Natural Population Analysis:

                                       Natural Population
                Natural  -----------------------------------------------
    Atom  No    Charge         Core      Valence    Rydberg      Total
 -----------------------------------------------------------------------
      C    1   -0.30658      0.99963     2.30125    0.00570     3.30658
      C    2    0.15321      0.99948     1.83312    0.01419     2.84679
      C    3   -0.15442      0.99950     2.14578    0.00914     3.15442
      C    4   -0.14438      0.99949     2.13668    0.00821     3.14438
      C    5    0.14418      0.99946     1.84246    0.01390     2.85582
      O    6   -0.23857      0.99985     3.23051    0.00821     4.23857
      C    7   -0.11294      0.99958     2.10325    0.01011     3.11294
      N    8   -0.32750      0.99975     2.81689    0.01086     3.82750
      C    9   -0.09392      0.99959     2.08296    0.01137     3.09392
      C   10   -0.02209      0.99951     2.01288    0.00971     3.02209
      C   11   -0.12143      0.99947     2.11323    0.00873     3.12143
      C   12    0.16372      0.99938     1.82233    0.01456     2.83628
      C   13   -0.14462      0.99952     2.13575    0.00935     3.14462
      C   14   -0.08605      0.99958     2.07586    0.01061     3.08605
      C   15   -0.12076      0.99951     2.11054    0.01071     3.12076
      O   16   -0.27244      0.99986     3.26277    0.00982     4.27244
      C   17   -0.10098      0.99960     2.09232    0.00905     3.10098
      H   18    0.10673      0.00000     0.39196    0.00131     0.39327
      H   19    0.10715      0.00000     0.39156    0.00128     0.39285
      H   20    0.11040      0.00000     0.38815    0.00144     0.38960
      H   21    0.10879      0.00000     0.39024    0.00097     0.39121
      H   22    0.10975      0.00000     0.38948    0.00077     0.39025
      H   23    0.09808      0.00000     0.40051    0.00142     0.40192
      H   24    0.09668      0.00000     0.40166    0.00167     0.40332
      H   25    0.17139      0.00000     0.32538    0.00323     0.32861
      H   26    0.09871      0.00000     0.40035    0.00094     0.40129
      H   27    0.09372      0.00000     0.40515    0.00113     0.40628
      H   28    0.10413      0.00000     0.39426    0.00161     0.39587
      H   29    0.11032      0.00000     0.38755    0.00213     0.38968
      H   30    0.10221      0.00000     0.39660    0.00119     0.39779
      H   31    0.09920      0.00000     0.39972    0.00108     0.40080
      H   32    0.08744      0.00000     0.41043    0.00213     0.41256
      H   33    0.08639      0.00000     0.41154    0.00207     0.41361
      H   34    0.09445      0.00000     0.40423    0.00132     0.40555
 =======================================================================
   * Total *   -0.00000     16.99274    44.80734    0.19992    62.00000

 Normal termination of Gaussian 16 at Fri Dec 11 13:59:05 2020.
