 Gaussian 16, Revision A.03,

 -----------------------------------------------------------
 # opt freq B3LYP/6-31G(d) empiricaldispersion=gd3bj scf=xqc
 -----------------------------------------------------------

 -------------------------------
 CID_115587993_JID_4829_neutraal
 -------------------------------
 Symbolic Z-matrix:
 Charge =  0 Multiplicity = 1

 SCF Done:  E(RB3LYP) =  -1013.15419821     A.U. after   14 cycles
 SCF Done:  E(RB3LYP) =  -1013.16046576     A.U. after   13 cycles
 SCF Done:  E(RB3LYP) =  -1013.16007331     A.U. after   13 cycles
 SCF Done:  E(RB3LYP) =  -1013.16164457     A.U. after   12 cycles
 SCF Done:  E(RB3LYP) =  -1013.16255698     A.U. after   12 cycles
 SCF Done:  E(RB3LYP) =  -1013.16268008     A.U. after   11 cycles
 SCF Done:  E(RB3LYP) =  -1013.16264144     A.U. after   10 cycles
 SCF Done:  E(RB3LYP) =  -1013.16276038     A.U. after   11 cycles
 SCF Done:  E(RB3LYP) =  -1013.16276774     A.U. after   10 cycles
 SCF Done:  E(RB3LYP) =  -1013.16277406     A.U. after    9 cycles
 SCF Done:  E(RB3LYP) =  -1013.16278873     A.U. after    9 cycles
 SCF Done:  E(RB3LYP) =  -1013.16278863     A.U. after    9 cycles
 SCF Done:  E(RB3LYP) =  -1013.16278862     A.U. after   10 cycles
 SCF Done:  E(RB3LYP) =  -1013.16278914     A.U. after    9 cycles
 SCF Done:  E(RB3LYP) =  -1013.16278925     A.U. after    8 cycles
 SCF Done:  E(RB3LYP) =  -1013.16278922     A.U. after    7 cycles
 Optimization completed.
    -- Stationary point found.
 Normal termination of Gaussian 16 at Thu Dec 10 11:05:33 2020.

 --------------------------------------------------------------------
 #N Geom=AllCheck Guess=TCheck SCRF=Check GenChk RB3LYP/6-31G(d) Freq
 --------------------------------------------------------------------

 Structure from the checkpoint file:  "JID_4829.chk"
 -------------------------------
 CID_115587993_JID_4829_neutraal
 -------------------------------
 Charge =  0 Multiplicity = 1

 SCF Done:  E(RB3LYP) =  -1013.16278922     A.U. after    1 cycles

  Exact polarizability: 135.944   9.909 131.236  -6.109  -0.786 136.775
 Approx polarizability: 174.534  18.455 184.209  -9.376  -9.814 225.408

                      1                      2                      3
                      A                      A                      A
 Frequencies --     22.1848                40.0813                60.9543
 Red. masses --      3.1160                 3.8895                 6.8605
 Frc consts  --      0.0009                 0.0037                 0.0150
 IR Inten    --      0.2089                 0.4937                 0.2691

                      4                      5                      6
                      A                      A                      A
 Frequencies --     75.5981                82.2461                96.6831
 Red. masses --      3.6804                 3.7697                 3.0208
 Frc consts  --      0.0124                 0.0150                 0.0166
 IR Inten    --      0.9587                 5.0539                 2.3214

                      7                      8                      9
                      A                      A                      A
 Frequencies --    110.6880               145.7117               161.5899
 Red. masses --      2.5366                 3.2798                 2.1457
 Frc consts  --      0.0183                 0.0410                 0.0330
 IR Inten    --     11.7969                 5.5998                 1.9342

                     10                     11                     12
                      A                      A                      A
 Frequencies --    176.1145               188.2498               201.3284
 Red. masses --      2.2474                 1.1942                 1.7079
 Frc consts  --      0.0411                 0.0249                 0.0408
 IR Inten    --      1.1336                 0.0061                 0.9059

                     13                     14                     15
                      A                      A                      A
 Frequencies --    209.3404               246.8520               261.7532
 Red. masses --      1.6311                 1.7038                 3.5768
 Frc consts  --      0.0421                 0.0612                 0.1444
 IR Inten    --      4.8677                 4.5571                 1.5003

                     16                     17                     18
                      A                      A                      A
 Frequencies --    290.1021               315.0225               344.5646
 Red. masses --      3.0162                 2.4380                 2.4313
 Frc consts  --      0.1496                 0.1425                 0.1701
 IR Inten    --      1.6578                10.7816                 1.3042

                     19                     20                     21
                      A                      A                      A
 Frequencies --    384.7335               399.6296               435.0231
 Red. masses --      2.2968                 2.3928                 3.2232
 Frc consts  --      0.2003                 0.2252                 0.3594
 IR Inten    --      0.8131                 3.6836                 5.4100

                     22                     23                     24
                      A                      A                      A
 Frequencies --    449.7931               492.1232               541.4827
 Red. masses --      2.5101                 3.5042                 2.4092
 Frc consts  --      0.2992                 0.5000                 0.4162
 IR Inten    --      7.1429                19.0535                33.1585

                     25                     26                     27
                      A                      A                      A
 Frequencies --    571.2266               603.9154               660.0270
 Red. masses --      3.1326                 1.3970                 6.9731
 Frc consts  --      0.6022                 0.3002                 1.7898
 IR Inten    --      4.3980                49.0917                 5.5429

                     28                     29                     30
                      A                      A                      A
 Frequencies --    693.8490               793.5571               847.4617
 Red. masses --      2.6175                 1.5876                 2.6560
 Frc consts  --      0.7425                 0.5890                 1.1239
 IR Inten    --      8.4084                 5.8272                18.0598

                     31                     32                     33
                      A                      A                      A
 Frequencies --    880.9983               918.5483               953.1698
 Red. masses --      3.1037                 2.2443                 2.2019
 Frc consts  --      1.4193                 1.1157                 1.1786
 IR Inten    --      1.9245                12.1359                 4.4465

                     34                     35                     36
                      A                      A                      A
 Frequencies --    982.2981              1002.2575              1053.0012
 Red. masses --      2.0091                 2.9940                 2.5164
 Frc consts  --      1.1422                 1.7720                 1.6440
 IR Inten    --     16.7630                 9.4130                13.9310

                     37                     38                     39
                      A                      A                      A
 Frequencies --   1054.8129              1091.8431              1100.1665
 Red. masses --      3.0235                 2.3798                 2.0897
 Frc consts  --      1.9820                 1.6715                 1.4902
 IR Inten    --      0.4505                33.4464                26.4354

                     40                     41                     42
                      A                      A                      A
 Frequencies --   1108.2552              1153.8220              1162.3660
 Red. masses --      2.2122                 1.4391                 2.0989
 Frc consts  --      1.6009                 1.1288                 1.6708
 IR Inten    --     44.2917                 0.5892                21.4451

                     43                     44                     45
                      A                      A                      A
 Frequencies --   1169.4641              1184.5410              1188.3715
 Red. masses --      3.7795                 1.7991                 1.7330
 Frc consts  --      3.0455                 1.4873                 1.4419
 IR Inten    --    145.8342                61.3893                12.8228

                     46                     47                     48
                      A                      A                      A
 Frequencies --   1193.0121              1200.0409              1228.6879
 Red. masses --      1.5620                 1.4337                 1.8164
 Frc consts  --      1.3099                 1.2165                 1.6156
 IR Inten    --     21.5501                10.1985                50.9549

                     49                     50                     51
                      A                      A                      A
 Frequencies --   1241.7732              1262.5279              1272.2213
 Red. masses --      1.8948                 1.6699                 1.4430
 Frc consts  --      1.7215                 1.5683                 1.3761
 IR Inten    --     25.8807               101.0541                61.6545

                     52                     53                     54
                      A                      A                      A
 Frequencies --   1296.2391              1320.1767              1341.0053
 Red. masses --      1.4732                 1.3221                 1.2686
 Frc consts  --      1.4584                 1.3576                 1.3441
 IR Inten    --     19.5135                53.8338                35.0584

                     55                     56                     57
                      A                      A                      A
 Frequencies --   1350.6605              1393.6469              1402.0627
 Red. masses --      1.1853                 1.3566                 1.3743
 Frc consts  --      1.2740                 1.5524                 1.5917
 IR Inten    --     22.0927                10.6478                17.2094

                     58                     59                     60
                      A                      A                      A
 Frequencies --   1428.7107              1429.7453              1449.9188
 Red. masses --      1.3904                 1.2521                 1.3428
 Frc consts  --      1.6721                 1.5080                 1.6632
 IR Inten    --     38.7487                11.7494                48.0824

                     61                     62                     63
                      A                      A                      A
 Frequencies --   1452.4829              1497.0810              1498.2436
 Red. masses --      1.5961                 1.2474                 1.1395
 Frc consts  --      1.9840                 1.6471                 1.5071
 IR Inten    --     88.4365                59.8325                 6.0402

                     64                     65                     66
                      A                      A                      A
 Frequencies --   1503.5344              1506.8910              1511.3125
 Red. masses --      1.1257                 1.1911                 1.0950
 Frc consts  --      1.4993                 1.5935                 1.4735
 IR Inten    --      3.2368                 7.1797                 1.2823

                     67                     68                     69
                      A                      A                      A
 Frequencies --   1517.3472              1518.5220              1520.7779
 Red. masses --      1.0519                 1.1232                 1.1453
 Frc consts  --      1.4269                 1.5259                 1.5606
 IR Inten    --      5.4479                11.8808                18.5009

                     70                     71                     72
                      A                      A                      A
 Frequencies --   1524.9624              1530.4719              1536.0457
 Red. masses --      1.0907                 1.1399                 1.1437
 Frc consts  --      1.4944                 1.5731                 1.5900
 IR Inten    --      2.9553                14.1620                47.6806

                     73                     74                     75
                      A                      A                      A
 Frequencies --   1537.6377              1542.6041              1559.0718
 Red. masses --      1.0909                 1.0663                 1.0963
 Frc consts  --      1.5197                 1.4950                 1.5701
 IR Inten    --     26.1327                 9.0311                20.5272

                     76                     77                     78
                      A                      A                      A
 Frequencies --   1568.8976              2984.8815              2992.6051
 Red. masses --      1.3961                 1.0604                 1.0491
 Frc consts  --      2.0247                 5.5666                 5.5357
 IR Inten    --    122.6177                44.9605                34.4871

                     79                     80                     81
                      A                      A                      A
 Frequencies --   2999.7701              3004.2357              3033.2887
 Red. masses --      1.0448                 1.0683                 1.0793
 Frc consts  --      5.5393                 5.6811                 5.8509
 IR Inten    --    109.3417                54.5175                33.7847

                     82                     83                     84
                      A                      A                      A
 Frequencies --   3036.7617              3043.8458              3059.8691
 Red. masses --      1.0884                 1.0411                 1.0839
 Frc consts  --      5.9139                 5.6830                 5.9794
 IR Inten    --     10.6244                56.8553                62.6525

                     85                     86                     87
                      A                      A                      A
 Frequencies --   3060.6656              3070.1656              3082.9469
 Red. masses --      1.0797                 1.0879                 1.0731
 Frc consts  --      5.9589                 6.0419                 6.0090
 IR Inten    --      2.3464                43.1072                74.3531

                     88                     89                     90
                      A                      A                      A
 Frequencies --   3096.8904              3099.2154              3103.6215
 Red. masses --      1.0936                 1.1020                 1.0991
 Frc consts  --      6.1797                 6.2365                 6.2377
 IR Inten    --     30.7522                33.4191                28.3461

                     91                     92                     93
                      A                      A                      A
 Frequencies --   3132.6005              3134.2197              3159.8235
 Red. masses --      1.0998                 1.0993                 1.0904
 Frc consts  --      6.3588                 6.3625                 6.4144
 IR Inten    --     49.3908                29.4775                 5.0485

                     94                     95                     96
                      A                      A                      A
 Frequencies --   3160.2623              3213.3540              3624.4718
 Red. masses --      1.1002                 1.0904                 1.0767
 Frc consts  --      6.4741                 6.6339                 8.3334
 IR Inten    --      8.1598                 4.6320                41.9611

 - Thermochemistry -
 -------------------
 Temperature   298.150 Kelvin.  Pressure   1.00000 Atm.
 Atom     1 has atomic number  6 and mass  12.00000

 Molecular mass:   220.12455 amu.
 Principal axes and moments of inertia in atomic units:
                           1         2         3
     Eigenvalues --  2374.025214340.883574812.18472
           X            0.99991  -0.00400  -0.01305
           Y            0.00572   0.99090   0.13446
           Z            0.01239  -0.13452   0.99083
 This molecule is an asymmetric top.
 Rotational symmetry number  1.
 Warning -- assumption of classical behavior for rotation
           may cause significant error
 Rotational temperatures (Kelvin)      0.03648     0.01995     0.01800
 Rotational constants (GHZ):           0.76020     0.41575     0.37504
 Zero-point vibrational energy     790346.5 (Joules/Mol)
                                  188.89734 (Kcal/Mol)
 Warning -- explicit consideration of  26 degrees of freedom as
           vibrations may cause significant error
 Vibrational temperatures:     31.92    57.67    87.70   108.77   118.33
          (Kelvin)            139.11   159.26   209.65   232.49   253.39
                              270.85   289.67   301.19   355.17   376.60
                              417.39   453.25   495.75   553.55   574.98
                              625.90   647.15   708.06   779.07   821.87
                              868.90   949.63   998.29  1141.75  1219.31
                             1267.56  1321.59  1371.40  1413.31  1442.03
                             1515.03  1517.64  1570.92  1582.89  1594.53
                             1660.09  1672.39  1682.60  1704.29  1709.80
                             1716.48  1726.59  1767.81  1786.63  1816.50
                             1830.44  1865.00  1899.44  1929.41  1943.30
                             2005.15  2017.26  2055.60  2057.08  2086.11
                             2089.80  2153.97  2155.64  2163.25  2168.08
                             2174.44  2183.12  2184.81  2188.06  2194.08
                             2202.01  2210.03  2212.32  2219.46  2243.16
                             2257.29  4294.58  4305.69  4316.00  4322.43
                             4364.23  4369.22  4379.42  4402.47  4403.62
                             4417.28  4435.67  4455.73  4459.08  4465.42
                             4507.11  4509.44  4546.28  4546.91  4623.30
                             5214.81

 Zero-point correction=                           0.301027 (Hartree/Particle)
 Thermal correction to Energy=                    0.318168
 Thermal correction to Enthalpy=                  0.319112
 Thermal correction to Gibbs Free Energy=         0.254919
 Sum of electronic and zero-point Energies=          -1012.861762
 Sum of electronic and thermal Energies=             -1012.844621
 Sum of electronic and thermal Enthalpies=           -1012.843677
 Sum of electronic and thermal Free Energies=        -1012.907870

                     E (Thermal)             CV                S
                      KCal/Mol        Cal/Mol-Kelvin    Cal/Mol-Kelvin
 Total                  199.653             60.680            135.106
 Electronic               0.000              0.000              0.000
 Translational            0.889              2.981             42.070
 Rotational               0.889              2.981             32.272
 Vibrational            197.876             54.718             60.764
 Vibration     1          0.593              1.985              6.428
 Vibration     2          0.594              1.981              5.255
 Vibration     3          0.597              1.973              4.426
 Vibration     4          0.599              1.965              4.002
 Vibration     5          0.600              1.961              3.837
 Vibration     6          0.603              1.952              3.520
 Vibration     7          0.607              1.941              3.257
 Vibration     8          0.617              1.907              2.727
 Vibration     9          0.622              1.889              2.531
 Vibration    10          0.628              1.872              2.369
 Vibration    11          0.633              1.856              2.245
 Vibration    12          0.638              1.838              2.121
 Vibration    13          0.642              1.826              2.049
 Vibration    14          0.661              1.768              1.753
 Vibration    15          0.669              1.743              1.650
 Vibration    16          0.686              1.692              1.473
 Vibration    17          0.702              1.645              1.336
 Vibration    18          0.723              1.586              1.191
 Vibration    19          0.754              1.503              1.020
 Vibration    20          0.766              1.471              0.964
 Vibration    21          0.796              1.394              0.842
 Vibration    22          0.809              1.361              0.796
 Vibration    23          0.848              1.267              0.678
 Vibration    24          0.897              1.158              0.562
 Vibration    25          0.927              1.093              0.502
 Vibration    26          0.962              1.023              0.443

 Optimization completed.
    -- Stationary point found.
 Normal termination of Gaussian 16 at Thu Dec 10 11:17:54 2020.

 ----------------------------------------------------------------------
 # B3LYP/6-311++G(d,p) empiricaldispersion=gd3bj scf=xqc pop=npa geom=c
 heck
 ----------------------------------------------------------------------

 ---------------------------------------
 CID_115587993_JID_4829_Energie_neutraal
 ---------------------------------------
 Structure from the checkpoint file:  "JID_4829.chk"
 Charge =  0 Multiplicity = 1

 SCF Done:  E(RB3LYP) =  -1013.37228421     A.U. after   14 cycles
 Normal termination of Gaussian 16 at Thu Dec 10 11:23:43 2020.

 ----------------------------------------------------------------------
 # B3LYP/6-311++G(d,p) empiricaldispersion=gd3bj scf=xqc pop=npa geom=c
 heck
 ----------------------------------------------------------------------

 -------------------------------------
 CID_115587993_JID_4829_Energie_kation
 -------------------------------------
 Structure from the checkpoint file:  "JID_4829.chk"
 Charge =  1 Multiplicity = 2

 SCF Done:  E(UB3LYP) =  -1013.09284214     A.U. after   27 cycles
 Normal termination of Gaussian 16 at Thu Dec 10 11:39:11 2020.
 Gaussian 16:  ES64L-G16RevA.03 25-Dec-2016

 ----------------------------------------------------------------------
 # B3LYP/6-311++G(d,p) empiricaldispersion=gd3bj scf=xqc pop=npa geom=c
 heck
 ----------------------------------------------------------------------

 ------------------------------------
 CID_115587993_JID_4829_Energie_anion
 ------------------------------------
 Structure from the checkpoint file:  "JID_4829.chk"
 Charge = -1 Multiplicity = 2

                         Standard orientation:
 ---------------------------------------------------------------------
 Center     Atomic      Atomic             Coordinates (Angstroms)
 Number     Number       Type             X           Y           Z
 ---------------------------------------------------------------------
      1          6           0        0.074165    1.934255    2.119006
      2          7           0        0.742492    1.813405    0.831632
      3          6           0        0.301171    1.128541   -0.261564
      4         16           0        0.756702    1.653325   -1.801868
      5          7           0       -0.499146    0.032208   -0.021328
      6          6           0       -0.127396   -0.915473    1.047306
      7          6           0        0.617187   -2.155238    0.530810
      8          6           0        1.884571   -1.781649   -0.227865
      9          8           0        2.690820   -0.998183    0.634246
     10          6           0        3.749965   -0.353471   -0.047259
     11          6           0       -1.267368   -0.523785   -1.143094
     12          6           0       -2.571020   -1.220437   -0.746345
     13          8           0       -3.638379   -0.346384   -0.432626
     14          6           0       -3.587516    0.223087    0.858463
     15          1           0        0.615991    1.419061    2.922010
     16          1           0       -0.932399    1.517076    2.053787
     17          1           0       -0.008146    2.993534    2.383277
     18          1           0        1.380716    2.555005    0.579887
     19          1           0        0.539613   -0.405765    1.735344
     20          1           0       -1.022176   -1.212071    1.603802
     21          1           0        0.879180   -2.768286    1.402124
     22          1           0       -0.020587   -2.772708   -0.111767
     23          1           0        2.425692   -2.689137   -0.544661
     24          1           0        1.635097   -1.209498   -1.133792
     25          1           0        4.432774   -1.081544   -0.513643
     26          1           0        3.367998    0.324733   -0.823415
     27          1           0        4.304979    0.222705    0.697861
     28          1           0       -1.509355    0.298491   -1.815748
     29          1           0       -0.651712   -1.227034   -1.720961
     30          1           0       -2.907578   -1.781703   -1.624448
     31          1           0       -2.420466   -1.949029    0.066329
     32          1           0       -3.456864   -0.548035    1.635554
     33          1           0       -2.779692    0.959489    0.955219
     34          1           0       -4.545802    0.723782    1.021279
 ---------------------------------------------------------------------

 SCF Done:  E(UB3LYP) =  -1013.36221731     A.U. after   30 cycles

 The electronic state is 2-A.
 Alpha  occ. eigenvalues --  -88.68848 -19.03479 -19.03260 -14.25188 -14.24544
 Alpha  occ. eigenvalues --  -10.18343 -10.13133 -10.12258 -10.11699 -10.11466
 Alpha  occ. eigenvalues --  -10.11051 -10.11017 -10.10629 -10.08093  -7.77641
 Alpha  occ. eigenvalues --   -5.74048  -5.73485  -5.73160  -0.94785  -0.94556
 Alpha  occ. eigenvalues --   -0.89240  -0.82320  -0.70014  -0.67653  -0.65319
 Alpha  occ. eigenvalues --   -0.61476  -0.59510  -0.57984  -0.55985  -0.52833
 Alpha  occ. eigenvalues --   -0.50567  -0.47052  -0.42875  -0.42050  -0.39884
 Alpha  occ. eigenvalues --   -0.39672  -0.38982  -0.38930  -0.37445  -0.36859
 Alpha  occ. eigenvalues --   -0.35572  -0.34954  -0.33588  -0.32390  -0.31942
 Alpha  occ. eigenvalues --   -0.30979  -0.28894  -0.28634  -0.27852  -0.27806
 Alpha  occ. eigenvalues --   -0.26118  -0.25559  -0.25182  -0.23024  -0.22622
 Alpha  occ. eigenvalues --   -0.18092  -0.17190  -0.14581  -0.12477  -0.11087
 Alpha  occ. eigenvalues --    0.04115
 Alpha virt. eigenvalues --    0.06116   0.06591   0.07516   0.07977   0.08177
 Alpha virt. eigenvalues --    0.08575   0.09491   0.09894   0.10459   0.10719
 Alpha virt. eigenvalues --    0.11152   0.12058   0.12397   0.12842   0.13088

  Beta  occ. eigenvalues --  -88.68846 -19.03470 -19.03253 -14.25180 -14.24531
  Beta  occ. eigenvalues --  -10.18309 -10.13120 -10.12248 -10.11687 -10.11430
  Beta  occ. eigenvalues --  -10.11032 -10.11013 -10.10566 -10.08073  -7.77640
  Beta  occ. eigenvalues --   -5.74048  -5.73481  -5.73159  -0.94767  -0.94546
  Beta  occ. eigenvalues --   -0.89198  -0.82286  -0.69977  -0.67620  -0.65274
  Beta  occ. eigenvalues --   -0.61433  -0.59468  -0.57920  -0.55949  -0.52781
  Beta  occ. eigenvalues --   -0.50523  -0.47016  -0.42846  -0.42014  -0.39850
  Beta  occ. eigenvalues --   -0.39622  -0.38926  -0.38885  -0.37416  -0.36828
  Beta  occ. eigenvalues --   -0.35530  -0.34907  -0.33558  -0.32361  -0.31906
  Beta  occ. eigenvalues --   -0.30935  -0.28864  -0.28599  -0.27818  -0.27770
  Beta  occ. eigenvalues --   -0.26087  -0.25523  -0.25101  -0.22982  -0.22583
  Beta  occ. eigenvalues --   -0.18059  -0.17176  -0.14541  -0.12447  -0.11065
  Beta virt. eigenvalues --    0.06359   0.06794   0.07269   0.07979   0.08406
  Beta virt. eigenvalues --    0.08605   0.09058   0.10141   0.10351   0.10588
  Beta virt. eigenvalues --    0.10961   0.11617   0.12512   0.12585   0.13052

 Mulliken charges and spin densities:
               1          2
     1  C    1.385343  -1.736144
     2  N   -0.219665   0.206209
     3  C   -0.342432   0.165757
     4  S   -0.726928   0.032124
     5  N    0.351578   0.018271
     6  C   -0.267940   0.047301
     7  C    0.528365  -0.897588
     8  C   -0.245607  -0.128042
     9  O   -0.050015   0.013930
    10  C    0.090697  -0.332097
    11  C   -0.119511   0.032664
    12  C   -0.251100  -0.358687
    13  O   -0.156116   0.047633
    14  C    0.448964  -0.749733
    15  H   -0.509791   0.707809
    16  H   -0.469803   0.631801
    17  H   -0.748166   0.905078
    18  H    0.228830   0.078672
    19  H    0.784305  -0.649512
    20  H   -0.105148   0.278128
    21  H   -0.499645   0.725136
    22  H   -0.000643   0.135736
    23  H   -0.147274   0.300265
    24  H    0.093757   0.025730
    25  H    0.028064   0.083853
    26  H    0.089926   0.043260
    27  H   -0.097589   0.228472
    28  H    0.216975  -0.038382
    29  H    0.083580   0.023071
    30  H    0.049193   0.131507
    31  H   -0.049211   0.191849
    32  H   -0.388692   0.518888
    33  H    0.104869   0.065059
    34  H   -0.089170   0.251979
 Sum of Mulliken charges =  -1.00000   1.00000

 Dipole moment (field-independent basis, Debye):
    X=              1.6188    Y=             -2.1353    Z=             -5.1195  Tot=              5.7783
 Quadrupole moment (field-independent basis, Debye-Ang):
   XX=           -147.7443   YY=           -147.2951   ZZ=           -148.9047
   XY=              1.5996   XZ=              4.3811   YZ=              0.8526

 Summary of Natural Population Analysis:

                                       Natural Population
                Natural  -----------------------------------------------
    Atom  No    Charge         Core      Valence    Rydberg      Total
 -----------------------------------------------------------------------
      C    1   -0.18153      0.99963     2.17311    0.00879     3.18153
      N    2   -0.31049      0.99964     2.79709    0.01376     3.81049
      C    3    0.17181      0.99959     1.80486    0.02374     2.82819
      S    4   -0.15629      4.99957     3.14510    0.01162     8.15629
      N    5   -0.27564      0.99962     2.75993    0.01610     3.77564
      C    6   -0.09027      0.99958     2.07665    0.01404     3.09027
      C    7   -0.20556      0.99961     2.19598    0.00996     3.20556
      C    8   -0.01491      0.99958     2.00287    0.01247     3.01491
      O    9   -0.30018      0.99988     3.29084    0.00946     4.30018
      C   10   -0.09899      0.99962     2.09132    0.00804     3.09899
      C   11   -0.10300      0.99959     2.09300    0.01041     3.10300
      C   12   -0.01379      0.99957     2.00129    0.01294     3.01379
      O   13   -0.29801      0.99989     3.28865    0.00947     4.29801
      C   14   -0.09828      0.99961     2.08896    0.00971     3.09828
      H   15    0.09687      0.00000     0.40126    0.00187     0.40313
      H   16    0.10219      0.00000     0.39540    0.00241     0.39781
      H   17    0.10262      0.00000     0.39494    0.00244     0.39738
      H   18    0.19853      0.00000     0.29953    0.00194     0.30147
      H   19    0.11258      0.00000     0.38413    0.00329     0.38742
      H   20    0.10045      0.00000     0.39728    0.00227     0.39955
      H   21    0.10733      0.00000     0.39093    0.00174     0.39267
      H   22    0.09832      0.00000     0.40054    0.00114     0.40168
      H   23    0.07963      0.00000     0.41915    0.00122     0.42037
      H   24    0.08766      0.00000     0.41054    0.00179     0.41234
      H   25    0.07339      0.00000     0.42524    0.00137     0.42661
      H   26    0.08942      0.00000     0.40934    0.00124     0.41058
      H   27    0.08911      0.00000     0.40976    0.00113     0.41089
      H   28    0.11831      0.00000     0.38042    0.00127     0.38169
      H   29    0.09441      0.00000     0.40443    0.00116     0.40559
      H   30    0.09106      0.00000     0.40794    0.00101     0.40894
      H   31    0.08216      0.00000     0.41646    0.00139     0.41784
      H   32    0.07982      0.00000     0.41849    0.00168     0.42018
      H   33    0.08258      0.00000     0.41559    0.00182     0.41742
      H   34    0.08869      0.00000     0.41025    0.00106     0.41131
 =======================================================================
   * Total *    0.00000     17.99497    41.80129    0.20374    60.00000

 Normal termination of Gaussian 16 at Thu Dec 10 11:56:08 2020.
