 Gaussian 16, Revision A.03,

 -----------------------------------------------------------
 # opt freq B3LYP/6-31G(d) empiricaldispersion=gd3bj scf=xqc
 -----------------------------------------------------------

 -------------------------------
 CID_115374289_JID_9843_neutraal
 -------------------------------
 Symbolic Z-matrix:
 Charge =  0 Multiplicity = 1

 SCF Done:  E(RB3LYP) =  -770.642897728     A.U. after   14 cycles
 SCF Done:  E(RB3LYP) =  -770.647100157     A.U. after   12 cycles
 SCF Done:  E(RB3LYP) =  -770.647684856     A.U. after   12 cycles
 SCF Done:  E(RB3LYP) =  -770.647743128     A.U. after   10 cycles
 SCF Done:  E(RB3LYP) =  -770.647762459     A.U. after   10 cycles
 SCF Done:  E(RB3LYP) =  -770.647773385     A.U. after    9 cycles
 SCF Done:  E(RB3LYP) =  -770.647782460     A.U. after    9 cycles
 SCF Done:  E(RB3LYP) =  -770.647789715     A.U. after    9 cycles
 SCF Done:  E(RB3LYP) =  -770.647804420     A.U. after   10 cycles
 SCF Done:  E(RB3LYP) =  -770.647828731     A.U. after   10 cycles
 SCF Done:  E(RB3LYP) =  -770.647866314     A.U. after   10 cycles
 SCF Done:  E(RB3LYP) =  -770.647908330     A.U. after   11 cycles
 SCF Done:  E(RB3LYP) =  -770.647910804     A.U. after    9 cycles
 SCF Done:  E(RB3LYP) =  -770.647911149     A.U. after    8 cycles
 Optimization completed.
    -- Stationary point found.
 Normal termination of Gaussian 16 at Sat Dec 12 10:03:32 2020.

 --------------------------------------------------------------------
 #N Geom=AllCheck Guess=TCheck SCRF=Check GenChk RB3LYP/6-31G(d) Freq
 --------------------------------------------------------------------

 Structure from the checkpoint file:  "JID_9843.chk"
 -------------------------------
 CID_115374289_JID_9843_neutraal
 -------------------------------
 Charge =  0 Multiplicity = 1

 SCF Done:  E(RB3LYP) =  -770.647911149     A.U. after    1 cycles

  Exact polarizability: 205.780   6.336 202.000  25.514 -19.880 136.831
 Approx polarizability: 282.545  17.271 311.149  57.471 -40.117 236.019

                      1                      2                      3
                      A                      A                      A
 Frequencies --     23.6446                29.7374                32.9874
 Red. masses --      4.1893                 3.5093                 3.5629
 Frc consts  --      0.0014                 0.0018                 0.0023
 IR Inten    --      0.0326                 0.3270                 0.1136

                      4                      5                      6
                      A                      A                      A
 Frequencies --     44.5260                53.5140                59.1237
 Red. masses --      1.5661                 2.0915                 2.5557
 Frc consts  --      0.0018                 0.0035                 0.0053
 IR Inten    --      0.6253                 0.0659                 0.6404

                      7                      8                      9
                      A                      A                      A
 Frequencies --     61.5247               110.8219               126.8811
 Red. masses --      3.3028                 3.1666                 3.4323
 Frc consts  --      0.0074                 0.0229                 0.0326
 IR Inten    --      0.2927                 0.2460                 0.1629

                     10                     11                     12
                      A                      A                      A
 Frequencies --    158.9579               194.1463               214.7996
 Red. masses --      2.3739                 3.2397                 3.0181
 Frc consts  --      0.0353                 0.0719                 0.0820
 IR Inten    --      0.0706                 4.4434                 0.5393

                     13                     14                     15
                      A                      A                      A
 Frequencies --    237.1213               253.4828               266.1866
 Red. masses --      2.4147                 2.8911                 1.8743
 Frc consts  --      0.0800                 0.1094                 0.0782
 IR Inten    --      0.9987                 0.1248                 0.4208

                     16                     17                     18
                      A                      A                      A
 Frequencies --    317.6243               355.1600               359.3645
 Red. masses --      2.1763                 2.6522                 2.3029
 Frc consts  --      0.1294                 0.1971                 0.1752
 IR Inten    --      2.1012                 1.4275                 0.7263

                     19                     20                     21
                      A                      A                      A
 Frequencies --    398.4755               416.8105               420.1010
 Red. masses --      3.3617                 2.9951                 3.3130
 Frc consts  --      0.3145                 0.3066                 0.3445
 IR Inten    --      2.1958                 0.0874                 0.8787

                     22                     23                     24
                      A                      A                      A
 Frequencies --    465.6501               515.7562               522.6013
 Red. masses --      3.7802                 3.1301                 3.4640
 Frc consts  --      0.4829                 0.4906                 0.5574
 IR Inten    --      0.8320                 0.5096                 8.3855

                     25                     26                     27
                      A                      A                      A
 Frequencies --    545.4305               590.6881               612.1960
 Red. masses --      4.8737                 4.7456                 3.1966
 Frc consts  --      0.8543                 0.9756                 0.7059
 IR Inten    --      0.4609                 0.8553                 2.6766

                     28                     29                     30
                      A                      A                      A
 Frequencies --    632.6393               639.0494               715.1652
 Red. masses --      3.4434                 5.9041                 1.8235
 Frc consts  --      0.8120                 1.4206                 0.5495
 IR Inten    --     12.8277                 1.0316                26.1623

                     31                     32                     33
                      A                      A                      A
 Frequencies --    720.9236               740.6409               765.1822
 Red. masses --      4.7682                 2.4048                 1.6761
 Frc consts  --      1.4601                 0.7772                 0.5782
 IR Inten    --     21.3485                17.4530                11.8892

                     34                     35                     36
                      A                      A                      A
 Frequencies --    779.2611               806.9916               845.4353
 Red. masses --      1.5185                 1.4757                 2.9704
 Frc consts  --      0.5433                 0.5662                 1.2509
 IR Inten    --      1.0997                36.3371                 2.9886

                     37                     38                     39
                      A                      A                      A
 Frequencies --    859.0335               893.1136               898.5234
 Red. masses --      1.2507                 2.1586                 1.5552
 Frc consts  --      0.5438                 1.0145                 0.7397
 IR Inten    --      0.1413                 1.6745                 9.5848

                     40                     41                     42
                      A                      A                      A
 Frequencies --    913.4647               927.5953               935.6205
 Red. masses --      1.8935                 1.7017                 1.4625
 Frc consts  --      0.9309                 0.8627                 0.7543
 IR Inten    --      0.1854                 4.4701                 8.6683

                     43                     44                     45
                      A                      A                      A
 Frequencies --    962.0373               964.4835               969.9871
 Red. masses --      1.3889                 1.3543                 1.3839
 Frc consts  --      0.7574                 0.7422                 0.7672
 IR Inten    --      0.0929                 0.1986                 3.2152

                     46                     47                     48
                      A                      A                      A
 Frequencies --    988.4820               993.7770              1015.1822
 Red. masses --      2.1085                 1.2557                 1.7050
 Frc consts  --      1.2138                 0.7307                 1.0353
 IR Inten    --      4.9222                 0.2101                 3.7407

                     49                     50                     51
                      A                      A                      A
 Frequencies --   1023.2457              1033.4331              1051.0105
 Red. masses --      6.2134                 1.8735                 2.8748
 Frc consts  --      3.8330                 1.1789                 1.8710
 IR Inten    --      0.6265                 0.1433                 2.3334

                     52                     53                     54
                      A                      A                      A
 Frequencies --   1059.2747              1062.0222              1078.7683
 Red. masses --      2.7979                 2.2287                 1.5582
 Frc consts  --      1.8497                 1.4810                 1.0684
 IR Inten    --      8.6173                 4.0153                 5.6213

                     55                     56                     57
                      A                      A                      A
 Frequencies --   1080.4063              1116.3221              1138.7933
 Red. masses --      2.6549                 1.6060                 2.7147
 Frc consts  --      1.8259                 1.1792                 2.0743
 IR Inten    --      7.2065                 3.9924                22.8168

                     58                     59                     60
                      A                      A                      A
 Frequencies --   1164.2086              1170.4514              1193.6664
 Red. masses --      1.8078                 1.8748                 1.1206
 Frc consts  --      1.4436                 1.5132                 0.9407
 IR Inten    --      7.5473                32.6303                 0.3014

                     61                     62                     63
                      A                      A                      A
 Frequencies --   1194.7499              1201.0875              1208.4916
 Red. masses --      1.8106                 1.6459                 1.8711
 Frc consts  --      1.5227                 1.3989                 1.6100
 IR Inten    --      2.5028                 5.2046                 6.8493

                     64                     65                     66
                      A                      A                      A
 Frequencies --   1215.8123              1242.3029              1276.1443
 Red. masses --      1.1457                 2.4422                 1.3015
 Frc consts  --      0.9979                 2.2207                 1.2488
 IR Inten    --      0.5218                 0.1673                31.0225

                     67                     68                     69
                      A                      A                      A
 Frequencies --   1290.4495              1312.8394              1315.5947
 Red. masses --      2.0489                 2.7587                 1.3257
 Frc consts  --      2.0103                 2.8014                 1.3519
 IR Inten    --      5.6095                 2.6682                 1.9068

                     70                     71                     72
                      A                      A                      A
 Frequencies --   1333.8571              1354.5995              1363.5400
 Red. masses --      1.4254                 1.5617                 1.9944
 Frc consts  --      1.4942                 1.6884                 2.1847
 IR Inten    --     17.6900                11.6975                 8.6119

                     73                     74                     75
                      A                      A                      A
 Frequencies --   1367.3840              1374.1901              1395.8343
 Red. masses --      1.9215                 1.2714                 1.3739
 Frc consts  --      2.1167                 1.4146                 1.5772
 IR Inten    --      3.9442                 2.7140                 3.8982

                     76                     77                     78
                      A                      A                      A
 Frequencies --   1407.2314              1417.6234              1444.0364
 Red. masses --      1.5621                 1.3908                 1.2597
 Frc consts  --      1.8226                 1.6468                 1.5476
 IR Inten    --     24.1173                 0.7822                 2.4970

                     79                     80                     81
                      A                      A                      A
 Frequencies --   1444.3392              1475.8189              1499.1394
 Red. masses --      1.2715                 2.2685                 2.2715
 Frc consts  --      1.5628                 2.9110                 3.0078
 IR Inten    --      4.1615                18.0688                16.3605

                     82                     83                     84
                      A                      A                      A
 Frequencies --   1503.8142              1508.5274              1515.3832
 Red. masses --      2.0981                 1.1265                 1.0451
 Frc consts  --      2.7956                 1.5104                 1.4140
 IR Inten    --      5.4994                 0.8354                 6.3195

                     85                     86                     87
                      A                      A                      A
 Frequencies --   1516.3825              1520.0110              1530.5508
 Red. masses --      1.1641                 1.1283                 1.1250
 Frc consts  --      1.5771                 1.5359                 1.5527
 IR Inten    --     16.8671                 4.9704                 8.2282

                     88                     89                     90
                      A                      A                      A
 Frequencies --   1532.4950              1544.7804              1546.3668
 Red. masses --      1.1667                 1.1033                 1.0709
 Frc consts  --      1.6144                 1.5513                 1.5088
 IR Inten    --     20.3482                10.8543                 4.1597

                     91                     92                     93
                      A                      A                      A
 Frequencies --   1549.9558              1634.9433              1647.8970
 Red. masses --      2.2266                 5.0023                 5.5376
 Frc consts  --      3.1516                 7.8782                 8.8600
 IR Inten    --      6.4187                10.9325                 0.9717

                     94                     95                     96
                      A                      A                      A
 Frequencies --   1656.9817              1669.9519              2928.5241
 Red. masses --      5.8418                 5.6452                 1.0765
 Frc consts  --      9.4501                 9.2755                 5.4398
 IR Inten    --      0.3510                 3.6171                29.2445

                     97                     98                     99
                      A                      A                      A
 Frequencies --   2933.5692              3033.9713              3041.9364
 Red. masses --      1.0791                 1.0646                 1.0387
 Frc consts  --      5.4716                 5.7740                 5.6632
 IR Inten    --     88.2774                40.6217                20.0697

                    100                    101                    102
                      A                      A                      A
 Frequencies --   3045.3807              3045.6165              3079.9152
 Red. masses --      1.0411                 1.0549                 1.1019
 Frc consts  --      5.6888                 5.7649                 6.1585
 IR Inten    --     14.7454                46.8777                 7.2623

                    103                    104                    105
                      A                      A                      A
 Frequencies --   3088.2757              3095.1049              3098.7469
 Red. masses --      1.0867                 1.0984                 1.1010
 Frc consts  --      6.1067                 6.1994                 6.2286
 IR Inten    --     28.5284                16.2050                18.5083

                    106                    107                    108
                      A                      A                      A
 Frequencies --   3109.0036              3115.1639              3125.3324
 Red. masses --      1.1031                 1.1007                 1.1013
 Frc consts  --      6.2821                 6.2934                 6.3377
 IR Inten    --     62.1055                46.7231                14.1284

                    109                    110                    111
                      A                      A                      A
 Frequencies --   3155.1551              3166.9933              3171.0269
 Red. masses --      1.0893                 1.0910                 1.0871
 Frc consts  --      6.3890                 6.4471                 6.4406
 IR Inten    --     47.1574                14.9091                10.5954

                    112                    113                    114
                      A                      A                      A
 Frequencies --   3183.2590              3191.5229              3192.6947
 Red. masses --      1.0859                 1.0901                 1.0902
 Frc consts  --      6.4833                 6.5422                 6.5473
 IR Inten    --      2.1442                11.8552                 3.1215

                    115                    116                    117
                      A                      A                      A
 Frequencies --   3200.3279              3211.3846              3499.6085
 Red. masses --      1.0939                 1.0980                 1.0733
 Frc consts  --      6.6014                 6.6716                 7.7450
 IR Inten    --     40.6855                19.3087                 1.1604

 - Thermochemistry -
 -------------------
 Temperature   298.150 Kelvin.  Pressure   1.00000 Atm.
 Atom     1 has atomic number  6 and mass  12.00000

 Molecular mass:   254.17830 amu.
 Principal axes and moments of inertia in atomic units:
                           1         2         3
     Eigenvalues --  4053.642806707.576119553.02536
           X            0.99958   0.02891   0.00323
           Y           -0.02884   0.99936  -0.02111
           Z           -0.00384   0.02101   0.99977
 This molecule is an asymmetric top.
 Rotational symmetry number  1.
 Warning -- assumption of classical behavior for rotation
           may cause significant error
 Rotational temperatures (Kelvin)      0.02137     0.01291     0.00907
 Rotational constants (GHZ):           0.44521     0.26906     0.18892
 Zero-point vibrational energy     940570.6 (Joules/Mol)
                                  224.80177 (Kcal/Mol)
 Warning -- explicit consideration of  27 degrees of freedom as
           vibrations may cause significant error
 Vibrational temperatures:     34.02    42.79    47.46    64.06    76.99
          (Kelvin)             85.07    88.52   159.45   182.55   228.70
                              279.33   309.05   341.16   364.71   382.98
                              456.99   511.00   517.05   573.32   599.70
                              604.43   669.97   742.06   751.91   784.75
                              849.87   880.81   910.23   919.45  1028.96
                             1037.25  1065.62  1100.93  1121.18  1161.08
                             1216.39  1235.96  1284.99  1292.77  1314.27
                             1334.60  1346.15  1384.16  1387.68  1395.60
                             1422.21  1429.82  1460.62  1472.22  1486.88
                             1512.17  1524.06  1528.01  1552.11  1554.46
                             1606.14  1638.47  1675.04  1684.02  1717.42
                             1718.98  1728.10  1738.75  1749.28  1787.40
                             1836.09  1856.67  1888.88  1892.85  1919.12
                             1948.97  1961.83  1967.36  1977.15  2008.29
                             2024.69  2039.64  2077.65  2078.08  2123.37
                             2156.93  2163.65  2170.43  2180.30  2181.74
                             2186.96  2202.12  2204.92  2222.59  2224.88
                             2230.04  2352.32  2370.96  2384.03  2402.69
                             4213.49  4220.75  4365.21  4376.67  4381.62
                             4381.96  4431.31  4443.34  4453.17  4458.41
                             4473.16  4482.03  4496.66  4539.56  4556.60
                             4562.40  4580.00  4591.89  4593.58  4604.56
                             4620.47  5035.16

 Zero-point correction=                           0.358244 (Hartree/Particle)
 Thermal correction to Energy=                    0.376827
 Thermal correction to Enthalpy=                  0.377771
 Thermal correction to Gibbs Free Energy=         0.308370
 Sum of electronic and zero-point Energies=           -770.289667
 Sum of electronic and thermal Energies=              -770.271085
 Sum of electronic and thermal Enthalpies=            -770.270140
 Sum of electronic and thermal Free Energies=         -770.339541

                     E (Thermal)             CV                S
                      KCal/Mol        Cal/Mol-Kelvin    Cal/Mol-Kelvin
 Total                  236.462             69.907            146.066
 Electronic               0.000              0.000              0.000
 Translational            0.889              2.981             42.499
 Rotational               0.889              2.981             33.918
 Vibrational            234.685             63.945             69.650
 Vibration     1          0.593              1.985              6.302
 Vibration     2          0.594              1.984              5.847
 Vibration     3          0.594              1.983              5.641
 Vibration     4          0.595              1.980              5.047
 Vibration     5          0.596              1.976              4.683
 Vibration     6          0.596              1.974              4.486
 Vibration     7          0.597              1.973              4.408
 Vibration     8          0.607              1.941              3.254
 Vibration     9          0.611              1.926              2.993
 Vibration    10          0.621              1.893              2.562
 Vibration    11          0.635              1.848              2.188
 Vibration    12          0.645              1.818              2.002
 Vibration    13          0.656              1.784              1.824
 Vibration    14          0.665              1.757              1.706
 Vibration    15          0.672              1.735              1.621
 Vibration    16          0.704              1.640              1.322
 Vibration    17          0.731              1.565              1.143
 Vibration    18          0.734              1.556              1.125
 Vibration    19          0.765              1.473              0.968
 Vibration    20          0.780              1.434              0.903
 Vibration    21          0.783              1.427              0.892
 Vibration    22          0.823              1.326              0.750
 Vibration    23          0.871              1.215              0.620
 Vibration    24          0.878              1.200              0.604
 Vibration    25          0.901              1.150              0.554
 Vibration    26          0.948              1.052              0.466
 Vibration    27          0.971              1.006              0.429

                           ! Non-Optimized Parameters !
 Normal termination of Gaussian 16 at Sat Dec 12 10:23:54 2020.

 ----------------------------------------------------------------------
 # B3LYP/6-311++G(d,p) empiricaldispersion=gd3bj scf=xqc pop=npa geom=c
 heck
 ----------------------------------------------------------------------

 ---------------------------------------
 CID_115374289_JID_9843_Energie_neutraal
 ---------------------------------------
 Structure from the checkpoint file:  "JID_9843.chk"
 Charge =  0 Multiplicity = 1

 SCF Done:  E(RB3LYP) =  -770.851142651     A.U. after   15 cycles
 Normal termination of Gaussian 16 at Sat Dec 12 10:32:31 2020.

 ----------------------------------------------------------------------
 # B3LYP/6-311++G(d,p) empiricaldispersion=gd3bj scf=xqc pop=npa geom=c
 heck
 ----------------------------------------------------------------------

 -------------------------------------
 CID_115374289_JID_9843_Energie_kation
 -------------------------------------
 Structure from the checkpoint file:  "JID_9843.chk"
 Charge =  1 Multiplicity = 2

 SCF Done:  E(UB3LYP) =  -770.553398843     A.U. after   33 cycles
 SCF Done:  E(UB3LYP) =  -770.553398843     a.u. after    1 cycles
 Normal termination of Gaussian 16 at Sat Dec 12 10:55:51 2020.
 Gaussian 16:  ES64L-G16RevA.03 25-Dec-2016

 ----------------------------------------------------------------------
 # B3LYP/6-311++G(d,p) empiricaldispersion=gd3bj scf=xqc pop=npa geom=c
 heck
 ----------------------------------------------------------------------

 ------------------------------------
 CID_115374289_JID_9843_Energie_anion
 ------------------------------------
 Structure from the checkpoint file:  "JID_9843.chk"
 Charge = -1 Multiplicity = 2

                         Standard orientation:
 ---------------------------------------------------------------------
 Center     Atomic      Atomic             Coordinates (Angstroms)
 Number     Number       Type             X           Y           Z
 ---------------------------------------------------------------------
      1          6           0       -4.749379   -2.430539   -0.258314
      2          6           0       -4.413876   -1.032292    0.270284
      3          6           0       -2.977574   -0.890878    0.776129
      4          7           0       -2.004735   -1.094284   -0.297520
      5          6           0       -0.617229   -0.892166    0.119187
      6          6           0        0.316803   -1.451995   -0.984233
      7          6           0        1.777711   -1.326213   -0.632792
      8          6           0        2.522765   -0.214208   -1.042065
      9          6           0        3.855320   -0.067662   -0.659347
     10          6           0        4.464444   -1.034511    0.141449
     11          6           0        3.732537   -2.148400    0.555104
     12          6           0        2.399810   -2.290138    0.169317
     13          6           0       -0.338227    0.578124    0.356715
     14          6           0        0.516874    0.995843    1.381416
     15          7           0        0.854536    2.270337    1.596937
     16          6           0        0.334876    3.189242    0.775616
     17          6           0       -0.537378    2.901953   -0.280618
     18          6           0       -0.869980    1.559225   -0.479456
     19          6           0       -1.096437    3.994531   -1.155610
     20          1           0       -4.165744   -2.675589   -1.153538
     21          1           0       -5.806697   -2.505133   -0.534344
     22          1           0       -4.547453   -3.198934    0.498750
     23          1           0       -4.581584   -0.288603   -0.518538
     24          1           0       -5.093426   -0.783483    1.095506
     25          1           0       -2.829212    0.121110    1.168150
     26          1           0       -2.812625   -1.583650    1.624939
     27          1           0       -2.096297   -2.043272   -0.653916
     28          1           0       -0.383586   -1.435383    1.054562
     29          1           0        0.061894   -2.509055   -1.141701
     30          1           0        0.092460   -0.921858   -1.916332
     31          1           0        2.046993    0.548741   -1.652140
     32          1           0        4.416374    0.804562   -0.982780
     33          1           0        5.502331   -0.920849    0.441336
     34          1           0        4.199393   -2.907698    1.176556
     35          1           0        1.832510   -3.159898    0.493907
     36          1           0        0.955981    0.260159    2.053730
     37          1           0        0.625290    4.221858    0.969180
     38          1           0       -1.551200    1.261604   -1.272630
     39          1           0       -0.675554    4.969448   -0.890373
     40          1           0       -0.877933    3.810341   -2.214180
     41          1           0       -2.186895    4.063706   -1.058741
 ---------------------------------------------------------------------

 SCF Done:  E(UB3LYP) =  -770.840212217     A.U. after   33 cycles
 SCF Done:  E(UB3LYP) =  -770.840212217     a.u. after    1 cycles

 The electronic state is 2-A.
 Alpha  occ. eigenvalues --  -14.20073 -14.19542 -10.10979 -10.09458 -10.09275
 Alpha  occ. eigenvalues --  -10.09240 -10.08773 -10.08475 -10.08350 -10.08299
 Alpha  occ. eigenvalues --  -10.08249 -10.08247 -10.07936 -10.07855 -10.07809
 Alpha  occ. eigenvalues --  -10.07494 -10.07108 -10.06897 -10.06384  -0.83513
 Alpha  occ. eigenvalues --   -0.81687  -0.76692  -0.71485  -0.70254  -0.67402
 Alpha  occ. eigenvalues --   -0.66830  -0.65431  -0.61714  -0.60146  -0.57260
 Alpha  occ. eigenvalues --   -0.54820  -0.51584  -0.51454  -0.49872  -0.48169
 Alpha  occ. eigenvalues --   -0.47183  -0.42233  -0.41379  -0.40548  -0.38444
 Alpha  occ. eigenvalues --   -0.37656  -0.37123  -0.36264  -0.34455  -0.33730
 Alpha  occ. eigenvalues --   -0.33601  -0.33004  -0.32411  -0.32109  -0.30892
 Alpha  occ. eigenvalues --   -0.30576  -0.30242  -0.29467  -0.28792  -0.28068
 Alpha  occ. eigenvalues --   -0.27659  -0.26701  -0.25551  -0.25091  -0.24770
 Alpha  occ. eigenvalues --   -0.24367  -0.23891  -0.23466  -0.17622  -0.16500
 Alpha  occ. eigenvalues --   -0.15541  -0.15029  -0.14840  -0.13624   0.04224
 Alpha virt. eigenvalues --    0.05958   0.06145   0.06274   0.07148   0.07479
 Alpha virt. eigenvalues --    0.07744   0.07914   0.08320   0.08654   0.08892
 Alpha virt. eigenvalues --    0.09340   0.09528   0.10213   0.10342   0.11214

  Beta  occ. eigenvalues --  -14.20052 -14.19387 -10.10982 -10.09426 -10.09270
  Beta  occ. eigenvalues --  -10.09234 -10.08768 -10.08481 -10.08342 -10.08286
  Beta  occ. eigenvalues --  -10.08238 -10.08231 -10.07934 -10.07836 -10.07775
  Beta  occ. eigenvalues --  -10.07476 -10.07094 -10.06758 -10.06348  -0.83323
  Beta  occ. eigenvalues --   -0.81633  -0.76657  -0.71352  -0.70186  -0.67362
  Beta  occ. eigenvalues --   -0.66739  -0.65387  -0.61655  -0.60071  -0.57210
  Beta  occ. eigenvalues --   -0.54713  -0.51534  -0.51290  -0.49826  -0.48112
  Beta  occ. eigenvalues --   -0.47131  -0.42196  -0.41326  -0.40471  -0.38405
  Beta  occ. eigenvalues --   -0.37607  -0.37073  -0.36227  -0.34413  -0.33694
  Beta  occ. eigenvalues --   -0.33521  -0.32976  -0.32357  -0.32070  -0.30850
  Beta  occ. eigenvalues --   -0.30540  -0.30197  -0.29392  -0.28693  -0.27943
  Beta  occ. eigenvalues --   -0.27402  -0.26631  -0.25517  -0.25058  -0.24719
  Beta  occ. eigenvalues --   -0.24318  -0.23856  -0.23416  -0.16940  -0.16391
  Beta  occ. eigenvalues --   -0.15432  -0.14865  -0.14612  -0.13568
  Beta virt. eigenvalues --    0.06072   0.06504   0.06755   0.07128   0.07451
  Beta virt. eigenvalues --    0.07846   0.07904   0.08160   0.08466   0.08685
  Beta virt. eigenvalues --    0.09157   0.09454   0.09690   0.10382   0.10519

 Mulliken charges and spin densities:
               1          2
     1  C    0.631514  -1.138202
     2  C   -0.422870   0.212911
     3  C   -0.000617  -0.346173
     4  N    0.119521   0.061110
     5  C    0.062740  -0.573166
     6  C    1.963580  -2.546289
     7  C   -0.941936   1.590887
     8  C   -0.622321   0.564334
     9  C   -0.264945  -0.105846
    10  C    0.106451  -0.433277
    11  C    0.490940  -0.814031
    12  C   -0.462801   0.348471
    13  C    0.077751   0.433505
    14  C   -0.527862  -0.390066
    15  N   -0.001906   0.082638
    16  C   -0.541548  -0.060152
    17  C    0.316410  -0.185366
    18  C   -0.539137   0.939863
    19  C   -0.202098  -0.405406
    20  H   -0.327807   0.463344
    21  H   -0.466708   0.615125
    22  H   -0.131490   0.270495
    23  H    0.036104   0.086152
    24  H   -0.031609   0.158934
    25  H    0.152922   0.007663
    26  H   -0.007221   0.129115
    27  H    0.918614  -0.668732
    28  H    0.079109   0.121289
    29  H   -0.777976   0.958878
    30  H    0.117938   0.044066
    31  H    0.130851   0.038088
    32  H    0.046479   0.109892
    33  H    0.050128   0.093911
    34  H   -0.198228   0.368570
    35  H   -0.499948   0.663104
    36  H    0.181761  -0.022738
    37  H    0.105853   0.027556
    38  H    0.208232   0.027834
    39  H    0.053686   0.076409
    40  H    0.130986   0.020770
    41  H   -0.012541   0.174529
 Sum of Mulliken charges =  -1.00000   1.00000

 Dipole moment (field-independent basis, Debye):
    X=              3.2141    Y=              5.3318    Z=             -0.6453  Tot=              6.2589
 Quadrupole moment (field-independent basis, Debye-Ang):
   XX=           -194.7548   YY=           -178.5684   ZZ=           -144.6815
   XY=            -10.5114   XZ=             -6.8011   YZ=             -8.4666

 Summary of Natural Population Analysis:

                                       Natural Population
                Natural  -----------------------------------------------
    Atom  No    Charge         Core      Valence    Rydberg      Total
 -----------------------------------------------------------------------
      C    1   -0.28909      0.99967     2.28449    0.00493     3.28909
      C    2   -0.19293      0.99964     2.18379    0.00950     3.19293
      C    3   -0.08510      0.99962     2.07539    0.01009     3.08510
      N    4   -0.33982      0.99972     2.82935    0.01075     3.83982
      C    5   -0.00801      0.99955     1.99579    0.01267     3.00801
      C    6   -0.19372      0.99958     2.18329    0.01086     3.19372
      C    7   -0.01367      0.99950     2.00324    0.01093     3.01367
      C    8   -0.09784      0.99951     2.08860    0.00974     3.09784
      C    9   -0.09640      0.99956     2.08759    0.00925     3.09640
      C   10   -0.10641      0.99956     2.09776    0.00909     3.10641
      C   11   -0.10189      0.99956     2.09204    0.01028     3.10189
      C   12   -0.09610      0.99950     2.08631    0.01029     3.09610
      C   13   -0.03310      0.99948     2.02228    0.01133     3.03310
      C   14    0.02739      0.99952     1.95962    0.01346     2.97261
      N   15   -0.21383      0.99971     2.70198    0.01213     3.71383
      C   16    0.02330      0.99954     1.96327    0.01390     2.97670
      C   17   -0.03920      0.99951     2.03239    0.00730     3.03920
      C   18   -0.06407      0.99946     2.05471    0.00991     3.06407
      C   19   -0.29005      0.99964     2.28572    0.00469     3.29005
      H   20    0.09689      0.00000     0.40181    0.00130     0.40311
      H   21    0.09963      0.00000     0.39917    0.00120     0.40037
      H   22    0.09680      0.00000     0.40194    0.00125     0.40320
      H   23    0.09732      0.00000     0.40145    0.00123     0.40268
      H   24    0.09397      0.00000     0.40516    0.00087     0.40603
      H   25    0.09719      0.00000     0.40139    0.00142     0.40281
      H   26    0.07697      0.00000     0.42164    0.00139     0.42303
      H   27    0.17485      0.00000     0.32122    0.00394     0.32515
      H   28    0.08421      0.00000     0.41322    0.00258     0.41579
      H   29    0.10548      0.00000     0.39277    0.00176     0.39452
      H   30    0.10342      0.00000     0.39491    0.00167     0.39658
      H   31    0.10222      0.00000     0.39641    0.00137     0.39778
      H   32    0.09857      0.00000     0.40059    0.00084     0.40143
      H   33    0.09803      0.00000     0.40122    0.00075     0.40197
      H   34    0.09983      0.00000     0.39930    0.00087     0.40017
      H   35    0.10279      0.00000     0.39571    0.00150     0.39721
      H   36    0.08932      0.00000     0.40856    0.00212     0.41068
      H   37    0.08313      0.00000     0.41543    0.00144     0.41687
      H   38    0.10596      0.00000     0.39231    0.00174     0.39404
      H   39    0.09922      0.00000     0.39978    0.00100     0.40078
      H   40    0.10107      0.00000     0.39778    0.00115     0.39893
      H   41    0.10368      0.00000     0.39486    0.00146     0.39632
 =======================================================================
   * Total *   -0.00000     18.99184    49.78423    0.22393    69.00000

 Normal termination of Gaussian 16 at Sat Dec 12 11:20:23 2020.
