 Gaussian 16, Revision A.03,

 -----------------------------------------------------------
 # opt freq B3LYP/6-31G(d) empiricaldispersion=gd3bj scf=xqc
 -----------------------------------------------------------

 -------------------------------
 CID_130715640_JID_4342_neutraal
 -------------------------------
 Symbolic Z-matrix:
 Charge =  0 Multiplicity = 1

 SCF Done:  E(RB3LYP) =  -653.003117148     A.U. after   13 cycles
 SCF Done:  E(RB3LYP) =  -653.017970853     A.U. after   11 cycles
 SCF Done:  E(RB3LYP) =  -653.019966359     A.U. after   11 cycles
 SCF Done:  E(RB3LYP) =  -653.019977594     A.U. after   11 cycles
 SCF Done:  E(RB3LYP) =  -653.020455441     A.U. after   10 cycles
 SCF Done:  E(RB3LYP) =  -653.020519230     A.U. after   10 cycles
 SCF Done:  E(RB3LYP) =  -653.020526796     A.U. after    9 cycles
 SCF Done:  E(RB3LYP) =  -653.020530918     A.U. after    8 cycles
 SCF Done:  E(RB3LYP) =  -653.020533286     A.U. after    7 cycles
 SCF Done:  E(RB3LYP) =  -653.020533724     A.U. after    7 cycles
 SCF Done:  E(RB3LYP) =  -653.020533830     A.U. after    6 cycles
 Optimization completed.
    -- Stationary point found.
 Normal termination of Gaussian 16 at Thu Dec 10 09:24:58 2020.

 --------------------------------------------------------------------
 #N Geom=AllCheck Guess=TCheck SCRF=Check GenChk RB3LYP/6-31G(d) Freq
 --------------------------------------------------------------------

 Structure from the checkpoint file:  "JID_4342.chk"
 -------------------------------
 CID_130715640_JID_4342_neutraal
 -------------------------------
 Charge =  0 Multiplicity = 1

 SCF Done:  E(RB3LYP) =  -653.020533830     A.U. after    1 cycles

  Exact polarizability: 129.660   2.078 123.493  -1.132   0.413 106.787
 Approx polarizability: 163.852   1.779 170.419  -3.093   2.093 165.556

                      1                      2                      3
                      A                      A                      A
 Frequencies --     43.9715                81.8984               104.5791
 Red. masses --      3.5863                 4.0399                 2.7755
 Frc consts  --      0.0041                 0.0160                 0.0179
 IR Inten    --      1.0962                 0.3046                 1.9287

                      4                      5                      6
                      A                      A                      A
 Frequencies --    128.9180               136.7865               156.3955
 Red. masses --      2.2129                 2.6178                 1.9021
 Frc consts  --      0.0217                 0.0289                 0.0274
 IR Inten    --      3.5052                 0.6243                 0.8594

                      7                      8                      9
                      A                      A                      A
 Frequencies --    168.6228               191.3214               217.6427
 Red. masses --      2.4891                 2.6869                 1.6848
 Frc consts  --      0.0417                 0.0579                 0.0470
 IR Inten    --      4.6227                 3.5825                 4.2510

                     10                     11                     12
                      A                      A                      A
 Frequencies --    252.2781               269.9538               290.3839
 Red. masses --      1.1944                 2.9228                 2.7825
 Frc consts  --      0.0448                 0.1255                 0.1382
 IR Inten    --      0.4382                 1.2644                 6.5501

                     13                     14                     15
                      A                      A                      A
 Frequencies --    305.8347               318.4481               370.9703
 Red. masses --      2.5936                 3.8368                 2.3788
 Frc consts  --      0.1429                 0.2292                 0.1929
 IR Inten    --      0.6915                 0.5713                 8.3766

                     16                     17                     18
                      A                      A                      A
 Frequencies --    400.7429               424.6596               467.6525
 Red. masses --      3.1559                 2.9752                 3.0789
 Frc consts  --      0.2986                 0.3161                 0.3967
 IR Inten    --      1.7306                 6.8620                 1.4188

                     19                     20                     21
                      A                      A                      A
 Frequencies --    500.2778               520.2991               572.9837
 Red. masses --      2.6783                 3.6615                 3.5338
 Frc consts  --      0.3949                 0.5840                 0.6836
 IR Inten    --      4.1245                 7.2971                 5.1214

                     22                     23                     24
                      A                      A                      A
 Frequencies --    628.8388               657.8824               817.5485
 Red. masses --      3.1707                 2.6309                 2.0867
 Frc consts  --      0.7387                 0.6709                 0.8218
 IR Inten    --     17.6743                 7.9079                 1.1397

                     25                     26                     27
                      A                      A                      A
 Frequencies --    864.0634               879.2985               886.1549
 Red. masses --      3.1204                 1.2562                 1.4432
 Frc consts  --      1.3726                 0.5723                 0.6677
 IR Inten    --     30.7856                11.1427                80.2313

                     28                     29                     30
                      A                      A                      A
 Frequencies --    900.0405               910.2113               955.4128
 Red. masses --      2.3035                 1.7900                 2.5547
 Frc consts  --      1.0994                 0.8737                 1.3740
 IR Inten    --     14.8152                 8.2084                11.9795

                     31                     32                     33
                      A                      A                      A
 Frequencies --    960.5073               987.2229              1003.1309
 Red. masses --      2.4398                 4.2705                 2.9215
 Frc consts  --      1.3262                 2.4522                 1.7321
 IR Inten    --      7.3705                 6.6850                16.1388

                     34                     35                     36
                      A                      A                      A
 Frequencies --   1021.3782              1030.2982              1051.4726
 Red. masses --      1.8444                 3.0402                 2.7789
 Frc consts  --      1.1336                 1.9014                 1.8101
 IR Inten    --     16.7578                 4.4698                12.7607

                     37                     38                     39
                      A                      A                      A
 Frequencies --   1090.2851              1097.0613              1108.0264
 Red. masses --      2.3103                 1.3790                 2.6473
 Frc consts  --      1.6180                 0.9779                 1.9149
 IR Inten    --      6.9888                 6.2937                 6.5796

                     40                     41                     42
                      A                      A                      A
 Frequencies --   1115.1650              1140.7861              1147.3176
 Red. masses --      2.2196                 2.2194                 2.6680
 Frc consts  --      1.6263                 1.7018                 2.0692
 IR Inten    --     24.5538                54.3868               108.0885

                     43                     44                     45
                      A                      A                      A
 Frequencies --   1157.0070              1175.9452              1186.8859
 Red. masses --      2.2995                 3.1815                 2.0621
 Frc consts  --      1.8136                 2.5921                 1.7115
 IR Inten    --     39.1299                22.3394                15.4134

                     46                     47                     48
                      A                      A                      A
 Frequencies --   1189.0790              1210.0824              1224.7614
 Red. masses --      1.3957                 2.5108                 1.3823
 Frc consts  --      1.1627                 2.1662                 1.2217
 IR Inten    --      1.6556                18.9022                14.6112

                     49                     50                     51
                      A                      A                      A
 Frequencies --   1242.6126              1272.0702              1280.9688
 Red. masses --      1.6490                 1.5093                 1.3986
 Frc consts  --      1.5002                 1.4390                 1.3522
 IR Inten    --     31.2960                19.7735                13.0323

                     52                     53                     54
                      A                      A                      A
 Frequencies --   1282.4139              1299.6135              1329.1921
 Red. masses --      1.4270                 1.5916                 1.2853
 Frc consts  --      1.3827                 1.5839                 1.3379
 IR Inten    --      9.0508                 9.8774                 5.3039

                     55                     56                     57
                      A                      A                      A
 Frequencies --   1332.6041              1335.7239              1338.4709
 Red. masses --      1.3879                 1.3597                 1.3365
 Frc consts  --      1.4522                 1.4293                 1.4107
 IR Inten    --      1.2085                 2.9131                 1.4888

                     58                     59                     60
                      A                      A                      A
 Frequencies --   1371.4568              1385.5251              1394.9936
 Red. masses --      1.2605                 1.3406                 1.2517
 Frc consts  --      1.3969                 1.5162                 1.4352
 IR Inten    --      0.3071                 3.3839                 5.5366

                     61                     62                     63
                      A                      A                      A
 Frequencies --   1412.0997              1415.1451              1419.0916
 Red. masses --      1.2907                 1.2940                 1.2382
 Frc consts  --      1.5163                 1.5268                 1.4692
 IR Inten    --     12.8220                15.2323                10.0055

                     64                     65                     66
                      A                      A                      A
 Frequencies --   1432.5939              1446.9958              1490.1865
 Red. masses --      1.3365                 1.3177                 1.2063
 Frc consts  --      1.6161                 1.6256                 1.5783
 IR Inten    --     20.3915                 4.3175                 1.8415

                     67                     68                     69
                      A                      A                      A
 Frequencies --   1504.3517              1511.5378              1516.5550
 Red. masses --      1.1332                 1.0948                 1.0566
 Frc consts  --      1.5110                 1.4738                 1.4317
 IR Inten    --      1.5772                 3.8986                11.1055

                     70                     71                     72
                      A                      A                      A
 Frequencies --   1520.2956              1521.2516              1526.2864
 Red. masses --      1.0755                 1.0704                 1.0753
 Frc consts  --      1.4647                 1.4595                 1.4759
 IR Inten    --      3.7681                 0.2042                 0.8373

                     73                     74                     75
                      A                      A                      A
 Frequencies --   1535.8940              1539.3454              1543.8037
 Red. masses --      1.0782                 1.0689                 1.1165
 Frc consts  --      1.4986                 1.4923                 1.5678
 IR Inten    --      3.8159                 7.4302                 1.0381

                     76                     77                     78
                      A                      A                      A
 Frequencies --   1551.1189              2969.6008              2972.7504
 Red. masses --      1.0503                 1.0825                 1.0723
 Frc consts  --      1.4889                 5.6242                 5.5835
 IR Inten    --      6.5363                31.1329                43.7125

                     79                     80                     81
                      A                      A                      A
 Frequencies --   2984.9689              2997.9228              3020.1439
 Red. masses --      1.0693                 1.0509                 1.0433
 Frc consts  --      5.6135                 5.5650                 5.6067
 IR Inten    --     43.5902                63.2276                27.9003

                     82                     83                     84
                      A                      A                      A
 Frequencies --   3034.0426              3054.4136              3063.0319
 Red. masses --      1.0746                 1.0564                 1.0586
 Frc consts  --      5.8283                 5.8067                 5.8516
 IR Inten    --     66.5102                65.9740                14.9611

                     85                     86                     87
                      A                      A                      A
 Frequencies --   3073.4991              3074.4837              3082.1986
 Red. masses --      1.0630                 1.1041                 1.0840
 Frc consts  --      5.9162                 6.1489                 6.0671
 IR Inten    --     14.5328                50.4412                33.5421

                     88                     89                     90
                      A                      A                      A
 Frequencies --   3082.8443              3111.5890              3112.1764
 Red. masses --      1.0819                 1.0939                 1.1099
 Frc consts  --      6.0581                 6.2400                 6.3336
 IR Inten    --     41.8974                25.9654                33.5533

                     91                     92                     93
                      A                      A                      A
 Frequencies --   3113.4179              3115.3073              3118.1102
 Red. masses --      1.1070                 1.0967                 1.1028
 Frc consts  --      6.3225                 6.2713                 6.3175
 IR Inten    --     56.1707                33.0558                37.6081

                     94                     95                     96
                      A                      A                      A
 Frequencies --   3126.1353              3134.7829              3467.2292
 Red. masses --      1.1020                 1.0996                 1.0750
 Frc consts  --      6.3450                 6.3666                 7.6139
 IR Inten    --     29.3460                29.7635                 2.3301

 - Thermochemistry -
 -------------------
 Temperature   298.150 Kelvin.  Pressure   1.00000 Atm.
 Atom     1 has atomic number  6 and mass  12.00000

 Molecular mass:   200.15248 amu.
 Principal axes and moments of inertia in atomic units:
                           1         2         3
     Eigenvalues --  1865.336193585.211174428.41729
           X            0.99996  -0.00612  -0.00600
           Y            0.00618   0.99993   0.01023
           Z            0.00593  -0.01027   0.99993
 This molecule is an asymmetric top.
 Rotational symmetry number  1.
 Warning -- assumption of classical behavior for rotation
           may cause significant error
 Rotational temperatures (Kelvin)      0.04643     0.02416     0.01956
 Rotational constants (GHZ):           0.96752     0.50338     0.40754
 Zero-point vibrational energy     806171.4 (Joules/Mol)
                                  192.67959 (Kcal/Mol)
 Warning -- explicit consideration of  21 degrees of freedom as
           vibrations may cause significant error
 Vibrational temperatures:     63.27   117.83   150.47   185.48   196.81
          (Kelvin)            225.02   242.61   275.27   313.14   362.97
                              388.40   417.80   440.03   458.18   533.74
                              576.58   610.99   672.85   719.79   748.59
                              824.40   904.76   946.55  1176.27  1243.19
                             1265.11  1274.98  1294.96  1309.59  1374.63
                             1381.96  1420.39  1443.28  1469.54  1482.37
                             1512.83  1568.68  1578.43  1594.20  1604.47
                             1641.34  1650.73  1664.68  1691.92  1707.66
                             1710.82  1741.04  1762.16  1787.84  1830.23
                             1843.03  1845.11  1869.85  1912.41  1917.32
                             1921.81  1925.76  1973.22  1993.46  2007.08
                             2031.70  2036.08  2041.76  2061.18  2081.90
                             2144.05  2164.43  2174.77  2181.98  2187.37
                             2188.74  2195.99  2209.81  2214.77  2221.19
                             2231.71  4272.59  4277.12  4294.70  4313.34
                             4345.31  4365.31  4394.62  4407.02  4422.08
                             4423.50  4434.60  4435.53  4476.88  4477.73
                             4479.51  4482.23  4486.27  4497.81  4510.25
                             4988.57

 Zero-point correction=                           0.307054 (Hartree/Particle)
 Thermal correction to Energy=                    0.321250
 Thermal correction to Enthalpy=                  0.322194
 Thermal correction to Gibbs Free Energy=         0.266487
 Sum of electronic and zero-point Energies=           -652.713479
 Sum of electronic and thermal Energies=              -652.699284
 Sum of electronic and thermal Enthalpies=            -652.698340
 Sum of electronic and thermal Free Energies=         -652.754046

                     E (Thermal)             CV                S
                      KCal/Mol        Cal/Mol-Kelvin    Cal/Mol-Kelvin
 Total                  201.587             54.412            117.245
 Electronic               0.000              0.000              0.000
 Translational            0.889              2.981             41.786
 Rotational               0.889              2.981             31.760
 Vibrational            199.810             48.450             43.698
 Vibration     1          0.595              1.980              5.072
 Vibration     2          0.600              1.962              3.845
 Vibration     3          0.605              1.946              3.367
 Vibration     4          0.611              1.924              2.962
 Vibration     5          0.614              1.917              2.848
 Vibration     6          0.620              1.896              2.593
 Vibration     7          0.625              1.881              2.451
 Vibration     8          0.634              1.852              2.215
 Vibration     9          0.646              1.814              1.979
 Vibration    10          0.664              1.759              1.715
 Vibration    11          0.674              1.729              1.597
 Vibration    12          0.686              1.692              1.472
 Vibration    13          0.696              1.663              1.385
 Vibration    14          0.705              1.638              1.318
 Vibration    15          0.743              1.532              1.076
 Vibration    16          0.767              1.469              0.960
 Vibration    17          0.787              1.417              0.876
 Vibration    18          0.825              1.322              0.744
 Vibration    19          0.856              1.249              0.657
 Vibration    20          0.875              1.205              0.609
 Vibration    21          0.929              1.090              0.499

 Optimization completed.
    -- Stationary point found.
 Normal termination of Gaussian 16 at Thu Dec 10 09:37:31 2020.

 ----------------------------------------------------------------------
 # B3LYP/6-311++G(d,p) empiricaldispersion=gd3bj scf=xqc pop=npa geom=c
 heck
 ----------------------------------------------------------------------

 ---------------------------------------
 CID_130715640_JID_4342_Energie_neutraal
 ---------------------------------------
 Structure from the checkpoint file:  "JID_4342.chk"
 Charge =  0 Multiplicity = 1

 SCF Done:  E(RB3LYP) =  -653.209629641     A.U. after   14 cycles
 Normal termination of Gaussian 16 at Thu Dec 10 09:43:15 2020.

 ----------------------------------------------------------------------
 # B3LYP/6-311++G(d,p) empiricaldispersion=gd3bj scf=xqc pop=npa geom=c
 heck
 ----------------------------------------------------------------------

 -------------------------------------
 CID_130715640_JID_4342_Energie_kation
 -------------------------------------
 Structure from the checkpoint file:  "JID_4342.chk"
 Charge =  1 Multiplicity = 2

 SCF Done:  E(UB3LYP) =  -652.930288488     A.U. after   21 cycles
 Normal termination of Gaussian 16 at Thu Dec 10 09:55:44 2020.
 Gaussian 16:  ES64L-G16RevA.03 25-Dec-2016

 ----------------------------------------------------------------------
 # B3LYP/6-311++G(d,p) empiricaldispersion=gd3bj scf=xqc pop=npa geom=c
 heck
 ----------------------------------------------------------------------

 ------------------------------------
 CID_130715640_JID_4342_Energie_anion
 ------------------------------------
 Structure from the checkpoint file:  "JID_4342.chk"
 Charge = -1 Multiplicity = 2

                         Standard orientation:
 ---------------------------------------------------------------------
 Center     Atomic      Atomic             Coordinates (Angstroms)
 Number     Number       Type             X           Y           Z
 ---------------------------------------------------------------------
      1          6           0        1.097313    1.644682    1.462639
      2          7           0        0.915472    0.300785    0.920247
      3          6           0       -0.493555   -0.069524    0.715394
      4          6           0       -0.727129   -1.576787    0.931822
      5          6           0       -2.203804   -1.927031    0.760589
      6          8           0       -2.676225   -1.549626   -0.527828
      7          6           0       -2.572397   -0.150015   -0.722064
      8          6           0       -1.107873    0.315250   -0.648460
      9          8           0       -0.940269    1.688576   -0.993271
     10          6           0       -1.737780    2.626399   -0.291200
     11          6           0        1.793776    0.095703   -0.218900
     12          6           0        3.314413    0.230871    0.020369
     13          7           0        3.580314   -0.962201   -0.848364
     14          6           0        2.136522   -1.333389   -0.702294
     15          1           0        0.444011    1.780432    2.330740
     16          1           0        0.888942    2.448479    0.737921
     17          1           0        2.130145    1.759744    1.808262
     18          1           0       -1.060056    0.450694    1.499404
     19          1           0       -0.153218   -2.156371    0.202599
     20          1           0       -0.371511   -1.856769    1.929531
     21          1           0       -2.369017   -3.005027    0.839755
     22          1           0       -2.808699   -1.430000    1.539649
     23          1           0       -3.181309    0.376218    0.032347
     24          1           0       -2.986121    0.069272   -1.710739
     25          1           0       -0.564776   -0.221940   -1.432986
     26          1           0       -2.793059    2.584651   -0.593395
     27          1           0       -1.679459    2.501449    0.798436
     28          1           0       -1.343455    3.613391   -0.546143
     29          1           0        1.510826    0.723371   -1.081794
     30          1           0        3.806327    1.160725   -0.282651
     31          1           0        3.584601   -0.002159    1.056943
     32          1           0        3.732354   -0.634180   -1.802439
     33          1           0        2.032421   -2.071420    0.099365
     34          1           0        1.645588   -1.709201   -1.606564
 ---------------------------------------------------------------------

 SCF Done:  E(UB3LYP) =  -653.195764547     A.U. after   29 cycles

 The electronic state is 2-A.
 Alpha  occ. eigenvalues --  -19.03511 -19.02974 -14.20822 -14.20637 -10.12530
 Alpha  occ. eigenvalues --  -10.12348 -10.12189 -10.11025 -10.10581 -10.10323
 Alpha  occ. eigenvalues --  -10.10131 -10.09890 -10.08484 -10.07408  -0.95260
 Alpha  occ. eigenvalues --   -0.93790  -0.84962  -0.81320  -0.69644  -0.67088
 Alpha  occ. eigenvalues --   -0.62130  -0.60036  -0.58688  -0.57132  -0.52778
 Alpha  occ. eigenvalues --   -0.52630  -0.48727  -0.46177  -0.42028  -0.41664
 Alpha  occ. eigenvalues --   -0.39934  -0.39249  -0.38085  -0.37402  -0.36012
 Alpha  occ. eigenvalues --   -0.34092  -0.33108  -0.32726  -0.32198  -0.31126
 Alpha  occ. eigenvalues --   -0.30535  -0.29643  -0.28899  -0.28615  -0.27227
 Alpha  occ. eigenvalues --   -0.26795  -0.26001  -0.24086  -0.22900  -0.22167
 Alpha  occ. eigenvalues --   -0.21606  -0.18512  -0.15768  -0.14196  -0.11476
 Alpha  occ. eigenvalues --    0.04377
 Alpha virt. eigenvalues --    0.06094   0.06862   0.07353   0.08441   0.08905
 Alpha virt. eigenvalues --    0.09147   0.09581   0.10122   0.11162   0.11387
 Alpha virt. eigenvalues --    0.12029   0.12095   0.12203   0.13216   0.13497

  Beta  occ. eigenvalues --  -19.03504 -19.02962 -14.20810 -14.20625 -10.12529
  Beta  occ. eigenvalues --  -10.12326 -10.12171 -10.10979 -10.10571 -10.10320
  Beta  occ. eigenvalues --  -10.10126 -10.09874 -10.08459 -10.07402  -0.95245
  Beta  occ. eigenvalues --   -0.93764  -0.84941  -0.81294  -0.69623  -0.67060
  Beta  occ. eigenvalues --   -0.62099  -0.59979  -0.58653  -0.57095  -0.52739
  Beta  occ. eigenvalues --   -0.52579  -0.48681  -0.46148  -0.41995  -0.41623
  Beta  occ. eigenvalues --   -0.39901  -0.39222  -0.38055  -0.37374  -0.35984
  Beta  occ. eigenvalues --   -0.34051  -0.33074  -0.32699  -0.32170  -0.31097
  Beta  occ. eigenvalues --   -0.30515  -0.29619  -0.28876  -0.28589  -0.27198
  Beta  occ. eigenvalues --   -0.26764  -0.25975  -0.24057  -0.22878  -0.22140
  Beta  occ. eigenvalues --   -0.21567  -0.18476  -0.15739  -0.14179  -0.11438
  Beta virt. eigenvalues --    0.06431   0.07066   0.07511   0.07924   0.09052
  Beta virt. eigenvalues --    0.09375   0.09498   0.09993   0.10431   0.11658
  Beta virt. eigenvalues --    0.11851   0.12248   0.12521   0.12614   0.13395

 Mulliken charges and spin densities:
               1          2
     1  C    0.441743  -0.617612
     2  N    0.318671   0.097570
     3  C   -0.081757  -0.342872
     4  C   -0.304216   0.151302
     5  C    0.397356  -0.919856
     6  O   -0.149966   0.045720
     7  C    0.836252  -1.240610
     8  C   -1.462848   1.012428
     9  O   -0.072183   0.050160
    10  C    1.145325  -1.428755
    11  C   -0.856709   0.569237
    12  C    0.399203  -0.766477
    13  N   -0.218600   0.117558
    14  C    0.136053  -0.733787
    15  H   -0.509986   0.650984
    16  H    0.181986  -0.041194
    17  H   -0.171329   0.325628
    18  H    0.271258  -0.078960
    19  H    0.335842  -0.212607
    20  H   -0.075439   0.260395
    21  H   -0.124711   0.322391
    22  H   -0.350942   0.476255
    23  H   -0.093547   0.278393
    24  H    0.059245   0.133726
    25  H    0.074147   0.167388
    26  H   -0.470412   0.616598
    27  H   -0.433960   0.598182
    28  H   -0.358829   0.523771
    29  H    0.166030   0.028991
    30  H   -0.326421   0.501819
    31  H    0.183053  -0.011727
    32  H    0.032382   0.194599
    33  H    0.075435   0.119767
    34  H    0.007870   0.151594
 Sum of Mulliken charges =  -1.00000   1.00000

 Dipole moment (field-independent basis, Debye):
    X=              1.8290    Y=             -3.9499    Z=             -2.2191  Tot=              4.8858
 Quadrupole moment (field-independent basis, Debye-Ang):
   XX=           -160.5020   YY=           -140.6530   ZZ=           -125.9980
   XY=              6.6701   XZ=              6.0172   YZ=             -3.2211

 Summary of Natural Population Analysis:

                                       Natural Population
                Natural  -----------------------------------------------
    Atom  No    Charge         Core      Valence    Rydberg      Total
 -----------------------------------------------------------------------
      C    1   -0.17542      0.99963     2.16723    0.00856     3.17542
      N    2   -0.28374      0.99969     2.76894    0.01511     3.78374
      C    3   -0.01804      0.99954     2.00292    0.01558     3.01804
      C    4   -0.20637      0.99960     2.19693    0.00985     3.20637
      C    5   -0.00938      0.99958     1.99693    0.01287     3.00938
      O    6   -0.29736      0.99989     3.28860    0.00887     4.29736
      C    7   -0.02112      0.99956     2.00859    0.01298     3.02112
      C    8    0.04993      0.99949     1.93638    0.01420     2.95007
      O    9   -0.30170      0.99989     3.29167    0.01014     4.30170
      C   10   -0.10342      0.99960     2.09346    0.01036     3.10342
      C   11   -0.02329      0.99956     2.00912    0.01461     3.02329
      C   12   -0.08618      0.99963     2.07556    0.01099     3.08618
      N   13   -0.33863      0.99978     2.82590    0.01294     3.83863
      C   14   -0.09004      0.99963     2.07986    0.01055     3.09004
      H   15    0.09805      0.00000     0.40061    0.00135     0.40195
      H   16    0.08767      0.00000     0.41071    0.00162     0.41233
      H   17    0.09333      0.00000     0.40529    0.00138     0.40667
      H   18    0.09927      0.00000     0.39776    0.00297     0.40073
      H   19    0.09783      0.00000     0.40037    0.00180     0.40217
      H   20    0.10659      0.00000     0.39187    0.00154     0.39341
      H   21    0.09119      0.00000     0.40773    0.00108     0.40881
      H   22    0.08047      0.00000     0.41773    0.00180     0.41953
      H   23    0.08289      0.00000     0.41509    0.00202     0.41711
      H   24    0.09375      0.00000     0.40487    0.00138     0.40625
      H   25    0.09133      0.00000     0.40599    0.00268     0.40867
      H   26    0.08152      0.00000     0.41678    0.00170     0.41848
      H   27    0.08316      0.00000     0.41461    0.00223     0.41684
      H   28    0.09272      0.00000     0.40590    0.00138     0.40728
      H   29    0.08895      0.00000     0.40823    0.00282     0.41105
      H   30    0.09325      0.00000     0.40551    0.00124     0.40675
      H   31    0.09141      0.00000     0.40696    0.00163     0.40859
      H   32    0.16829      0.00000     0.32904    0.00267     0.33171
      H   33    0.09224      0.00000     0.40607    0.00168     0.40776
      H   34    0.09085      0.00000     0.40809    0.00106     0.40915
 =======================================================================
   * Total *   -0.00000     13.99506    40.80131    0.20363    55.00000

 Normal termination of Gaussian 16 at Thu Dec 10 10:12:40 2020.
