 Gaussian 16, Revision A.03,

 -----------------------------------------------------------
 # opt freq B3LYP/6-31G(d) empiricaldispersion=gd3bj scf=xqc
 -----------------------------------------------------------

 -------------------------------
 CID_115578319_JID_3437_neutraal
 -------------------------------
 Symbolic Z-matrix:
 Charge =  0 Multiplicity = 1

 SCF Done:  E(RB3LYP) =  -900.821802482     A.U. after   14 cycles
 SCF Done:  E(RB3LYP) =  -900.826357076     A.U. after   12 cycles
 SCF Done:  E(RB3LYP) =  -900.825538025     A.U. after   13 cycles
 SCF Done:  E(RB3LYP) =  -900.827682248     A.U. after   12 cycles
 SCF Done:  E(RB3LYP) =  -900.828719472     A.U. after   12 cycles
 SCF Done:  E(RB3LYP) =  -900.828843114     A.U. after   12 cycles
 SCF Done:  E(RB3LYP) =  -900.828989689     A.U. after   11 cycles
 SCF Done:  E(RB3LYP) =  -900.829026939     A.U. after   10 cycles
 SCF Done:  E(RB3LYP) =  -900.829038339     A.U. after   10 cycles
 SCF Done:  E(RB3LYP) =  -900.829042164     A.U. after    9 cycles
 SCF Done:  E(RB3LYP) =  -900.832205982     A.U. after   10 cycles
 SCF Done:  E(RB3LYP) =  -900.832209403     A.U. after    9 cycles
 SCF Done:  E(RB3LYP) =  -900.832210604     A.U. after    9 cycles
 SCF Done:  E(RB3LYP) =  -900.832210544     A.U. after    9 cycles
 SCF Done:  E(RB3LYP) =  -900.832210953     A.U. after    8 cycles
 SCF Done:  E(RB3LYP) =  -900.832210917     A.U. after    7 cycles
 Optimization completed.
    -- Stationary point found.
 Normal termination of Gaussian 16 at Sun Dec 13 12:47:54 2020.

 --------------------------------------------------------------------
 #N Geom=AllCheck Guess=TCheck SCRF=Check GenChk RB3LYP/6-31G(d) Freq
 --------------------------------------------------------------------

 Structure from the checkpoint file:  "JID_3437.chk"
 -------------------------------
 CID_115578319_JID_3437_neutraal
 -------------------------------
 Charge =  0 Multiplicity = 1

 SCF Done:  E(RB3LYP) =  -900.832210916     A.U. after    1 cycles

  Exact polarizability: 148.462  -0.994 148.425   8.895   3.561 109.278
 Approx polarizability: 189.455  -0.953 235.648  15.012   9.537 163.703

                      1                      2                      3
                      A                      A                      A
 Frequencies --     27.3447                48.6390                56.6407
 Red. masses --      3.6140                 3.3475                 2.6158
 Frc consts  --      0.0016                 0.0047                 0.0049
 IR Inten    --      0.2162                 0.1735                 0.1705

                      4                      5                      6
                      A                      A                      A
 Frequencies --     76.6769               105.2957               136.8564
 Red. masses --      3.6980                 3.2377                 3.6971
 Frc consts  --      0.0128                 0.0212                 0.0408
 IR Inten    --      1.5834                 4.0563                 2.3391

                      7                      8                      9
                      A                      A                      A
 Frequencies --    168.5949               181.2867               194.4910
 Red. masses --      1.9530                 2.4597                 1.1144
 Frc consts  --      0.0327                 0.0476                 0.0248
 IR Inten    --      0.6082                 0.2364                 0.0949

                     10                     11                     12
                      A                      A                      A
 Frequencies --    207.2300               212.3185               254.7000
 Red. masses --      2.9904                 2.4789                 2.5978
 Frc consts  --      0.0757                 0.0658                 0.0993
 IR Inten    --      1.6414                 0.7016                 1.7480

                     13                     14                     15
                      A                      A                      A
 Frequencies --    290.6210               326.7989               356.6886
 Red. masses --      1.4650                 3.4964                 3.1722
 Frc consts  --      0.0729                 0.2200                 0.2378
 IR Inten    --      0.5564                 5.1205                 1.9187

                     16                     17                     18
                      A                      A                      A
 Frequencies --    378.0346               396.8218               448.6784
 Red. masses --      2.0468                 2.6425                 3.7789
 Frc consts  --      0.1723                 0.2452                 0.4482
 IR Inten    --      1.7286                 5.4302                 9.4255

                     19                     20                     21
                      A                      A                      A
 Frequencies --    474.6611               506.7440               555.0394
 Red. masses --      2.8208                 2.5851                 2.8862
 Frc consts  --      0.3744                 0.3911                 0.5239
 IR Inten    --      1.1912                 8.2121                 7.8087

                     22                     23                     24
                      A                      A                      A
 Frequencies --    643.6763               669.9985               737.0696
 Red. masses --      3.4757                 3.9590                 1.5216
 Frc consts  --      0.8484                 1.0471                 0.4871
 IR Inten    --      1.3034                 7.2403                73.9063

                     25                     26                     27
                      A                      A                      A
 Frequencies --    761.9039               782.6339               810.6511
 Red. masses --      1.2378                 1.1468                 1.1400
 Frc consts  --      0.4234                 0.4139                 0.4414
 IR Inten    --     14.1572                10.7935                13.8944

                     28                     29                     30
                      A                      A                      A
 Frequencies --    819.7551               837.3892               879.8204
 Red. masses --      2.4392                 1.2377                 1.4595
 Frc consts  --      0.9658                 0.5113                 0.6656
 IR Inten    --      5.3260                 3.2150                 4.0938

                     31                     32                     33
                      A                      A                      A
 Frequencies --    896.4844               913.8492               958.3118
 Red. masses --      2.2900                 2.8206                 2.0586
 Frc consts  --      1.0843                 1.3878                 1.1139
 IR Inten    --      3.9584                11.9289                 1.2133

                     34                     35                     36
                      A                      A                      A
 Frequencies --    966.9747               993.7306              1017.0832
 Red. masses --      3.1689                 1.7092                 1.7383
 Frc consts  --      1.7458                 0.9944                 1.0595
 IR Inten    --      5.6635                 3.8694                 4.5253

                     37                     38                     39
                      A                      A                      A
 Frequencies --   1038.3789              1064.5694              1074.2121
 Red. masses --      2.1245                 1.4667                 1.9968
 Frc consts  --      1.3496                 0.9794                 1.3576
 IR Inten    --      1.6411                10.6551                 1.6233

                     40                     41                     42
                      A                      A                      A
 Frequencies --   1094.4877              1102.8978              1117.9020
 Red. masses --      1.4435                 2.5024                 1.7308
 Frc consts  --      1.0188                 1.7934                 1.2744
 IR Inten    --      6.4034                 3.1388                 3.6070

                     43                     44                     45
                      A                      A                      A
 Frequencies --   1131.7349              1138.8008              1150.0635
 Red. masses --      1.1664                 1.7800                 1.8706
 Frc consts  --      0.8802                 1.3601                 1.4578
 IR Inten    --      3.4611                20.8455                61.9315

                     46                     47                     48
                      A                      A                      A
 Frequencies --   1184.1305              1205.0418              1215.6993
 Red. masses --      2.1109                 1.3903                 2.3766
 Frc consts  --      1.7439                 1.1895                 2.0695
 IR Inten    --     48.0563                 1.9609                20.4589

                     49                     50                     51
                      A                      A                      A
 Frequencies --   1259.0198              1264.6466              1290.2916
 Red. masses --      1.3626                 2.1819                 1.2962
 Frc consts  --      1.2725                 2.0560                 1.2715
 IR Inten    --     23.0065                94.3877                13.9268

                     52                     53                     54
                      A                      A                      A
 Frequencies --   1314.5292              1331.3497              1348.2349
 Red. masses --      2.6462                 1.4065                 1.1424
 Frc consts  --      2.6941                 1.4689                 1.2235
 IR Inten    --    127.3301                69.5729                10.3931

                     55                     56                     57
                      A                      A                      A
 Frequencies --   1391.8713              1396.2432              1405.4742
 Red. masses --      1.3113                 1.2875                 1.4058
 Frc consts  --      1.4968                 1.4788                 1.6361
 IR Inten    --     22.7804                 7.6647                 8.1919

                     58                     59                     60
                      A                      A                      A
 Frequencies --   1420.2231              1432.0600              1444.2204
 Red. masses --      1.3525                 1.3971                 1.2722
 Frc consts  --      1.6073                 1.6881                 1.5634
 IR Inten    --     12.5739                18.1889                 9.7763

                     61                     62                     63
                      A                      A                      A
 Frequencies --   1445.7179              1465.7679              1490.5611
 Red. masses --      1.2746                 2.8935                 1.0890
 Frc consts  --      1.5696                 3.6628                 1.4256
 IR Inten    --     18.0724               285.6997                 2.0988

                     64                     65                     66
                      A                      A                      A
 Frequencies --   1509.2942              1516.3174              1524.1038
 Red. masses --      1.1105                 1.0552                 1.0706
 Frc consts  --      1.4904                 1.4295                 1.4652
 IR Inten    --     12.0428                 0.2640                 3.6416

                     67                     68                     69
                      A                      A                      A
 Frequencies --   1525.2043              1530.9810              1535.9013
 Red. masses --      1.0742                 1.2851                 1.0999
 Frc consts  --      1.4722                 1.7748                 1.5288
 IR Inten    --      4.3154                 0.8837                 9.4611

                     70                     71                     72
                      A                      A                      A
 Frequencies --   1538.1536              1546.5723              1552.0574
 Red. masses --      1.0720                 1.0865                 1.3441
 Frc consts  --      1.4943                 1.5312                 1.9076
 IR Inten    --      3.6973                20.6607                93.9690

                     73                     74                     75
                      A                      A                      A
 Frequencies --   1559.6345              3022.5278              3041.9098
 Red. masses --      1.1469                 1.0610                 1.0424
 Frc consts  --      1.6437                 5.7112                 5.6827
 IR Inten    --     28.2504                23.4767                26.3860

                     76                     77                     78
                      A                      A                      A
 Frequencies --   3042.3041              3046.6375              3051.2616
 Red. masses --      1.0743                 1.0675                 1.0734
 Frc consts  --      5.8583                 5.8378                 5.8879
 IR Inten    --     34.8436                35.6260                70.1217

                     79                     80                     81
                      A                      A                      A
 Frequencies --   3059.0734              3063.6710              3088.9546
 Red. masses --      1.0990                 1.0373                 1.0974
 Frc consts  --      6.0593                 5.7363                 6.1695
 IR Inten    --     37.6430                22.7356                 2.3554

                     82                     83                     84
                      A                      A                      A
 Frequencies --   3111.5183              3122.2524              3130.3248
 Red. masses --      1.0998                 1.1018                 1.1015
 Frc consts  --      6.2736                 6.3281                 6.3596
 IR Inten    --     40.2795                48.3255                33.1842

                     85                     86                     87
                      A                      A                      A
 Frequencies --   3141.7953              3153.9291              3163.8431
 Red. masses --      1.0990                 1.0547                 1.0561
 Frc consts  --      6.3916                 6.1811                 6.2285
 IR Inten    --     11.1297                16.5844                 4.8321

                     88                     89                     90
                      A                      A                      A
 Frequencies --   3169.3492              3177.4590              3187.7195
 Red. masses --      1.0908                 1.0900                 1.0879
 Frc consts  --      6.4556                 6.4837                 6.5132
 IR Inten    --     17.6794                 5.2714                 8.1924

                     91                     92                     93
                      A                      A                      A
 Frequencies --   3229.8673              3249.1175              3567.5167
 Red. masses --      1.1181                 1.1166                 1.0750
 Frc consts  --      6.8723                 6.9452                 8.0611
 IR Inten    --      4.2574                12.1524                20.7560

 - Thermochemistry -
 -------------------
 Temperature   298.150 Kelvin.  Pressure   1.00000 Atm.
 Atom     1 has atomic number  6 and mass  12.00000

 Molecular mass:   200.13472 amu.
 Principal axes and moments of inertia in atomic units:
                           1         2         3
     Eigenvalues --  1980.957153559.536534288.59150
           X            0.99996  -0.00660  -0.00550
           Y            0.00670   0.99982   0.01796
           Z            0.00538  -0.01799   0.99982
 This molecule is an asymmetric top.
 Rotational symmetry number  1.
 Warning -- assumption of classical behavior for rotation
           may cause significant error
 Rotational temperatures (Kelvin)      0.04372     0.02433     0.02020
 Rotational constants (GHZ):           0.91105     0.50702     0.42082
 Zero-point vibrational energy     780389.1 (Joules/Mol)
                                  186.51748 (Kcal/Mol)
 Warning -- explicit consideration of  21 degrees of freedom as
           vibrations may cause significant error
 Vibrational temperatures:     39.34    69.98    81.49   110.32   151.50
          (Kelvin)            196.91   242.57   260.83   279.83   298.16
                              305.48   366.46   418.14   470.19   513.20
                              543.91   570.94   645.55   682.93   729.09
                              798.58   926.11   963.98  1060.48  1096.21
                             1126.04  1166.35  1179.44  1204.82  1265.87
                             1289.84  1314.83  1378.80  1391.26  1429.76
                             1463.36  1494.00  1531.68  1545.55  1574.72
                             1586.82  1608.41  1628.31  1638.48  1654.68
                             1703.70  1733.79  1749.12  1811.45  1819.54
                             1856.44  1891.31  1915.52  1939.81  2002.59
                             2008.88  2022.16  2043.38  2060.41  2077.91
                             2080.07  2108.91  2144.59  2171.54  2181.64
                             2192.85  2194.43  2202.74  2209.82  2213.06
                             2225.17  2233.06  2243.97  4348.74  4376.63
                             4377.20  4383.43  4390.08  4401.32  4407.94
                             4444.32  4476.78  4492.22  4503.84  4520.34
                             4537.80  4552.06  4559.99  4571.65  4586.42
                             4647.06  4674.76  5132.86

 Zero-point correction=                           0.297235 (Hartree/Particle)
 Thermal correction to Energy=                    0.312372
 Thermal correction to Enthalpy=                  0.313316
 Thermal correction to Gibbs Free Energy=         0.254169
 Sum of electronic and zero-point Energies=           -900.534976
 Sum of electronic and thermal Energies=              -900.519839
 Sum of electronic and thermal Enthalpies=            -900.518895
 Sum of electronic and thermal Free Energies=         -900.578042

                     E (Thermal)             CV                S
                      KCal/Mol        Cal/Mol-Kelvin    Cal/Mol-Kelvin
 Total                  196.017             56.099            124.485
 Electronic               0.000              0.000              0.000
 Translational            0.889              2.981             41.786
 Rotational               0.889              2.981             31.781
 Vibrational            194.239             50.138             50.918
 Vibration     1          0.593              1.984              6.013
 Vibration     2          0.595              1.978              4.872
 Vibration     3          0.596              1.975              4.571
 Vibration     4          0.599              1.965              3.974
 Vibration     5          0.605              1.945              3.354
 Vibration     6          0.614              1.917              2.847
 Vibration     7          0.625              1.881              2.451
 Vibration     8          0.630              1.865              2.315
 Vibration     9          0.635              1.848              2.185
 Vibration    10          0.641              1.830              2.068
 Vibration    11          0.643              1.822              2.024
 Vibration    12          0.665              1.755              1.698
 Vibration    13          0.687              1.691              1.470
 Vibration    14          0.710              1.622              1.276
 Vibration    15          0.732              1.562              1.137
 Vibration    16          0.748              1.517              1.047
 Vibration    17          0.763              1.477              0.974
 Vibration    18          0.808              1.364              0.800
 Vibration    19          0.831              1.306              0.725
 Vibration    20          0.862              1.235              0.641
 Vibration    21          0.910              1.129              0.534

 Optimization completed.
    -- Stationary point found.
 Normal termination of Gaussian 16 at Sun Dec 13 12:57:31 2020.

 ----------------------------------------------------------------------
 # B3LYP/6-311++G(d,p) empiricaldispersion=gd3bj scf=xqc pop=npa geom=c
 heck
 ----------------------------------------------------------------------

 ---------------------------------------
 CID_115578319_JID_3437_Energie_neutraal
 ---------------------------------------
 Structure from the checkpoint file:  "JID_3437.chk"
 Charge =  0 Multiplicity = 1

 SCF Done:  E(RB3LYP) =  -900.999390668     A.U. after   14 cycles
 Normal termination of Gaussian 16 at Sun Dec 13 13:01:30 2020.

 ----------------------------------------------------------------------
 # B3LYP/6-311++G(d,p) empiricaldispersion=gd3bj scf=xqc pop=npa geom=c
 heck
 ----------------------------------------------------------------------

 -------------------------------------
 CID_115578319_JID_3437_Energie_kation
 -------------------------------------
 Structure from the checkpoint file:  "JID_3437.chk"
 Charge =  1 Multiplicity = 2

 SCF Done:  E(UB3LYP) =  -900.725803557     A.U. after   22 cycles
 Normal termination of Gaussian 16 at Sun Dec 13 13:09:46 2020.
 Gaussian 16:  ES64L-G16RevA.03 25-Dec-2016

 ----------------------------------------------------------------------
 # B3LYP/6-311++G(d,p) empiricaldispersion=gd3bj scf=xqc pop=npa geom=c
 heck
 ----------------------------------------------------------------------

 ------------------------------------
 CID_115578319_JID_3437_Energie_anion
 ------------------------------------
 Structure from the checkpoint file:  "JID_3437.chk"
 Charge = -1 Multiplicity = 2

                         Standard orientation:
 ---------------------------------------------------------------------
 Center     Atomic      Atomic             Coordinates (Angstroms)
 Number     Number       Type             X           Y           Z
 ---------------------------------------------------------------------
      1          6           0        2.189192    0.306636   -2.049839
      2          6           0        2.989498   -0.402790   -0.953191
      3          6           0        3.197848    0.442395    0.312062
      4          6           0        1.898204    0.912528    0.976463
      5          7           0        1.045700   -0.212280    1.392316
      6          6           0       -0.021587   -0.690538    0.654905
      7         16           0       -0.139170   -2.341932    0.334537
      8          7           0       -0.947130    0.226321    0.235088
      9          6           0       -1.149544    1.516911    0.908344
     10          6           0       -1.039612    2.723766   -0.023018
     11          6           0       -1.955337   -0.226913   -0.704040
     12          6           0       -3.173766   -0.970392   -0.234763
     13          6           0       -3.314146    0.420328   -0.800780
     14          1           0        1.154231    0.490184   -1.741173
     15          1           0        2.151595   -0.303823   -2.958078
     16          1           0        2.638592    1.273030   -2.313418
     17          1           0        2.483356   -1.338670   -0.689313
     18          1           0        3.976401   -0.680315   -1.344962
     19          1           0        3.785701   -0.131473    1.042464
     20          1           0        3.792773    1.336073    0.074583
     21          1           0        2.128167    1.534386    1.851049
     22          1           0        1.337790    1.532616    0.280044
     23          1           0        1.585300   -1.000353    1.732802
     24          1           0       -2.141478    1.508560    1.378560
     25          1           0       -0.432429    1.580512    1.725276
     26          1           0       -1.766628    2.658960   -0.836784
     27          1           0       -1.233991    3.645292    0.536939
     28          1           0       -0.044925    2.799629   -0.472683
     29          1           0       -1.514377   -0.572576   -1.634393
     30          1           0       -3.496463   -1.829103   -0.814196
     31          1           0       -3.283946   -1.085935    0.839108
     32          1           0       -3.584383    1.218822   -0.117496
     33          1           0       -3.723054    0.545225   -1.799604
 ---------------------------------------------------------------------

 SCF Done:  E(UB3LYP) =  -900.987937766     A.U. after   30 cycles

 The electronic state is 2-A.
 Alpha  occ. eigenvalues --  -88.68660 -14.25988 -14.23676 -10.18083 -10.12152
 Alpha  occ. eigenvalues --  -10.11378 -10.10840 -10.08770 -10.08157 -10.07460
 Alpha  occ. eigenvalues --  -10.06786 -10.06486 -10.06103  -7.77452  -5.73855
 Alpha  occ. eigenvalues --   -5.73320  -5.72952  -0.89458  -0.82873  -0.75808
 Alpha  occ. eigenvalues --   -0.70350  -0.67823  -0.63634  -0.60185  -0.55772
 Alpha  occ. eigenvalues --   -0.54879  -0.53309  -0.51688  -0.48053  -0.46267
 Alpha  occ. eigenvalues --   -0.42607  -0.41025  -0.39698  -0.38178  -0.36927
 Alpha  occ. eigenvalues --   -0.35988  -0.35149  -0.32549  -0.31618  -0.30368
 Alpha  occ. eigenvalues --   -0.30052  -0.29371  -0.28712  -0.28019  -0.26895
 Alpha  occ. eigenvalues --   -0.26041  -0.25789  -0.23914  -0.23762  -0.23502
 Alpha  occ. eigenvalues --   -0.21813  -0.21594  -0.14960  -0.12342  -0.10618
 Alpha  occ. eigenvalues --    0.04225
 Alpha virt. eigenvalues --    0.06296   0.07004   0.07267   0.07819   0.08518
 Alpha virt. eigenvalues --    0.08974   0.09166   0.10054   0.10311   0.11194
 Alpha virt. eigenvalues --    0.11426   0.12024   0.12154   0.12882   0.13099

  Beta  occ. eigenvalues --  -88.68658 -14.25993 -14.23669 -10.18039 -10.12148
  Beta  occ. eigenvalues --  -10.11354 -10.10816 -10.08742 -10.08154 -10.07438
  Beta  occ. eigenvalues --  -10.06780 -10.06438 -10.06082  -7.77450  -5.73856
  Beta  occ. eigenvalues --   -5.73313  -5.72950  -0.89428  -0.82855  -0.75791
  Beta  occ. eigenvalues --   -0.70309  -0.67780  -0.63591  -0.60141  -0.55717
  Beta  occ. eigenvalues --   -0.54840  -0.53244  -0.51640  -0.48002  -0.46240
  Beta  occ. eigenvalues --   -0.42580  -0.40992  -0.39661  -0.38108  -0.36895
  Beta  occ. eigenvalues --   -0.35960  -0.35119  -0.32481  -0.31592  -0.30332
  Beta  occ. eigenvalues --   -0.30006  -0.29334  -0.28666  -0.27995  -0.26824
  Beta  occ. eigenvalues --   -0.26003  -0.25740  -0.23888  -0.23729  -0.23473
  Beta  occ. eigenvalues --   -0.21788  -0.21542  -0.14937  -0.12303  -0.10610
  Beta virt. eigenvalues --    0.06562   0.07058   0.07370   0.07852   0.08346
  Beta virt. eigenvalues --    0.08999   0.09330   0.09618   0.10391   0.10739
  Beta virt. eigenvalues --    0.11581   0.11750   0.12249   0.12385   0.13290

 Mulliken charges and spin densities:
               1          2
     1  C    0.188775  -0.760481
     2  C   -0.884493   0.850776
     3  C    1.381588  -2.030753
     4  C   -0.646152   0.682541
     5  N    0.043941   0.049109
     6  C    0.163153  -0.425666
     7  S   -0.408257  -0.123228
     8  N    0.346475  -0.044811
     9  C   -0.556808   0.320989
    10  C    1.354036  -1.778639
    11  C   -0.558750   0.371018
    12  C   -0.129586  -0.212454
    13  C    0.229301  -0.633595
    14  H    0.611771  -0.424556
    15  H    0.000279   0.120415
    16  H   -0.273687   0.417368
    17  H    0.023921   0.075014
    18  H   -0.005262   0.178812
    19  H   -0.052424   0.199609
    20  H   -0.412552   0.580523
    21  H   -0.793455   1.008402
    22  H    0.962016  -0.914716
    23  H    0.276600  -0.006302
    24  H   -0.426909   0.594629
    25  H   -0.064200   0.277368
    26  H   -0.149018   0.310830
    27  H   -0.558128   0.713762
    28  H   -0.801489   0.949604
    29  H    0.111306   0.099069
    30  H    0.136393  -0.024587
    31  H    0.109193   0.033724
    32  H   -0.030902   0.191683
    33  H   -0.186676   0.354546
 Sum of Mulliken charges =  -1.00000   1.00000

 Dipole moment (field-independent basis, Debye):
    X=             -1.4618    Y=             -5.7181    Z=             -1.0286  Tot=              5.9910
 Quadrupole moment (field-independent basis, Debye-Ang):
   XX=           -149.2803   YY=           -155.4179   ZZ=           -125.9130
   XY=             -0.8292   XZ=              0.8399   YZ=             -4.1642

 Summary of Natural Population Analysis:

                                       Natural Population
                Natural  -----------------------------------------------
    Atom  No    Charge         Core      Valence    Rydberg      Total
 -----------------------------------------------------------------------
      C    1   -0.28734      0.99966     2.28256    0.00512     3.28734
      C    2   -0.20040      0.99964     2.19236    0.00840     3.20040
      C    3   -0.19140      0.99962     2.18318    0.00860     3.19140
      C    4   -0.09353      0.99959     2.08142    0.01253     3.09353
      N    5   -0.32782      0.99966     2.81630    0.01186     3.82782
      C    6    0.17182      0.99961     1.80690    0.02166     2.82818
      S    7   -0.14674      4.99956     3.13537    0.01180     8.14674
      N    8   -0.25962      0.99959     2.74460    0.01543     3.75962
      C    9   -0.08661      0.99960     2.07488    0.01213     3.08661
      C   10   -0.28850      0.99965     2.28316    0.00569     3.28850
      C   11   -0.01124      0.99955     1.99886    0.01283     3.01124
      C   12   -0.19505      0.99961     2.18628    0.00916     3.19505
      C   13   -0.20387      0.99962     2.19514    0.00911     3.20387
      H   14    0.09751      0.00000     0.40082    0.00167     0.40249
      H   15    0.09854      0.00000     0.40071    0.00075     0.40146
      H   16    0.09628      0.00000     0.40263    0.00109     0.40372
      H   17    0.10498      0.00000     0.39355    0.00147     0.39502
      H   18    0.09415      0.00000     0.40494    0.00091     0.40585
      H   19    0.09411      0.00000     0.40477    0.00111     0.40589
      H   20    0.10233      0.00000     0.39573    0.00194     0.39767
      H   21    0.09895      0.00000     0.39906    0.00199     0.40105
      H   22    0.10074      0.00000     0.39642    0.00284     0.39926
      H   23    0.19313      0.00000     0.30465    0.00222     0.30687
      H   24    0.09486      0.00000     0.40349    0.00165     0.40514
      H   25    0.10845      0.00000     0.38961    0.00194     0.39155
      H   26    0.10143      0.00000     0.39698    0.00159     0.39857
      H   27    0.10628      0.00000     0.39114    0.00258     0.39372
      H   28    0.09837      0.00000     0.39981    0.00182     0.40163
      H   29    0.10781      0.00000     0.39106    0.00113     0.39219
      H   30    0.10339      0.00000     0.39585    0.00077     0.39661
      H   31    0.10588      0.00000     0.39327    0.00085     0.39412
      H   32    0.10796      0.00000     0.39079    0.00125     0.39204
      H   33    0.10514      0.00000     0.39395    0.00091     0.39486
 =======================================================================
   * Total *    0.00000     16.99495    37.83022    0.17483    55.00000

 Normal termination of Gaussian 16 at Sun Dec 13 13:20:57 2020.
