 Gaussian 16, Revision A.03,

 -----------------------------------------------------------
 # opt freq B3LYP/6-31G(d) empiricaldispersion=gd3bj scf=xqc
 -----------------------------------------------------------

 ------------------------------
 CID_79466301_JID_1965_neutraal
 ------------------------------
 Symbolic Z-matrix:
 Charge =  0 Multiplicity = 1

 SCF Done:  E(RB3LYP) =  -875.559233640     A.U. after   15 cycles
 SCF Done:  E(RB3LYP) =  -875.563123112     A.U. after   13 cycles
 SCF Done:  E(RB3LYP) =  -875.563851182     A.U. after   12 cycles
 SCF Done:  E(RB3LYP) =  -875.564292771     A.U. after   13 cycles
 SCF Done:  E(RB3LYP) =  -875.564449736     A.U. after   12 cycles
 SCF Done:  E(RB3LYP) =  -875.564502468     A.U. after   12 cycles
 SCF Done:  E(RB3LYP) =  -875.564550892     A.U. after   11 cycles
 SCF Done:  E(RB3LYP) =  -875.564557102     A.U. after   10 cycles
 SCF Done:  E(RB3LYP) =  -875.564560291     A.U. after    9 cycles
 SCF Done:  E(RB3LYP) =  -875.564561501     A.U. after    8 cycles
 SCF Done:  E(RB3LYP) =  -875.564562679     A.U. after    9 cycles
 SCF Done:  E(RB3LYP) =  -875.564563785     A.U. after    8 cycles
 SCF Done:  E(RB3LYP) =  -875.564564489     A.U. after    9 cycles
 Optimization completed.
    -- Stationary point found.
 Normal termination of Gaussian 16 at Tue Dec  8 21:54:57 2020.

 --------------------------------------------------------------------
 #N Geom=AllCheck Guess=TCheck SCRF=Check GenChk RB3LYP/6-31G(d) Freq
 --------------------------------------------------------------------

 Structure from the checkpoint file:  "JID_1965.chk"
 ------------------------------
 CID_79466301_JID_1965_neutraal
 ------------------------------
 Charge =  0 Multiplicity = 1

 SCF Done:  E(RB3LYP) =  -875.564564489     A.U. after    1 cycles

  Exact polarizability: 127.798  -0.705 120.801  -1.945  -2.877  54.163
 Approx polarizability: 199.272  -7.881 202.644  -7.220  -7.857  83.155

                      1                      2                      3
                      A                      A                      A
 Frequencies --     33.4521                70.0906               117.9805
 Red. masses --      3.8634                 3.5451                 5.0516
 Frc consts  --      0.0025                 0.0103                 0.0414
 IR Inten    --      1.7846                 4.4620                 2.6924

                      4                      5                      6
                      A                      A                      A
 Frequencies --    126.5034               141.8984               200.3522
 Red. masses --      3.8180                 3.7663                 1.1915
 Frc consts  --      0.0360                 0.0447                 0.0282
 IR Inten    --      1.6872                 0.1906                 1.1922

                      7                      8                      9
                      A                      A                      A
 Frequencies --    228.0395               258.4744               265.8288
 Red. masses --      1.3031                 3.4270                 4.2467
 Frc consts  --      0.0399                 0.1349                 0.1768
 IR Inten    --      0.2128                 7.0345                 3.4783

                     10                     11                     12
                      A                      A                      A
 Frequencies --    297.2332               386.6005               443.6220
 Red. masses --      3.3683                 5.8958                 5.3642
 Frc consts  --      0.1753                 0.5192                 0.6220
 IR Inten    --      0.7671                 3.2223                 1.6751

                     13                     14                     15
                      A                      A                      A
 Frequencies --    467.8467               505.1676               568.1752
 Red. masses --      4.1927                 2.6753                 1.9171
 Frc consts  --      0.5407                 0.4023                 0.3646
 IR Inten    --      9.7869                22.5539                53.2459

                     16                     17                     18
                      A                      A                      A
 Frequencies --    592.4248               625.2065               627.1980
 Red. masses --      5.8563                 2.6426                 4.1932
 Frc consts  --      1.2110                 0.6086                 0.9719
 IR Inten    --      8.7357                 8.0314                18.3378

                     19                     20                     21
                      A                      A                      A
 Frequencies --    724.2962               758.7374               770.0984
 Red. masses --      2.1163                 2.8768                 4.9654
 Frc consts  --      0.6541                 0.9758                 1.7350
 IR Inten    --      4.1119                50.1367                26.9110

                     22                     23                     24
                      A                      A                      A
 Frequencies --    839.5423               882.0866               953.0575
 Red. masses --      1.5239                 3.9548                 5.6658
 Frc consts  --      0.6329                 1.8130                 3.0321
 IR Inten    --     13.2319                10.4336                35.2321

                     25                     26                     27
                      A                      A                      A
 Frequencies --   1009.8670              1085.8539              1136.9653
 Red. masses --      3.1201                 2.4437                 2.2440
 Frc consts  --      1.8747                 1.6976                 1.7091
 IR Inten    --     16.6102                54.7545                20.8729

                     28                     29                     30
                      A                      A                      A
 Frequencies --   1162.1117              1186.9925              1206.4077
 Red. masses --      1.2963                 1.2646                 2.2890
 Frc consts  --      1.0314                 1.0498                 1.9629
 IR Inten    --     11.1391                 0.6405                15.4394

                     31                     32                     33
                      A                      A                      A
 Frequencies --   1210.8693              1238.3635              1263.5072
 Red. masses --      1.5559                 1.7518                 1.6708
 Frc consts  --      1.3441                 1.5829                 1.5716
 IR Inten    --     37.2525                66.1701                85.3210

                     34                     35                     36
                      A                      A                      A
 Frequencies --   1384.5628              1433.0710              1463.8170
 Red. masses --      3.1104                 4.0873                 2.9595
 Frc consts  --      3.5131                 4.9456                 3.7363
 IR Inten    --    180.1539               141.6031               138.3851

                     37                     38                     39
                      A                      A                      A
 Frequencies --   1482.2421              1497.0883              1516.0443
 Red. masses --      1.7759                 1.2303                 1.3218
 Frc consts  --      2.2989                 1.6246                 1.7899
 IR Inten    --     19.0051                36.4548                33.9018

                     40                     41                     42
                      A                      A                      A
 Frequencies --   1520.8583              1525.5480              1535.6121
 Red. masses --      1.0564                 1.2742                 1.0535
 Frc consts  --      1.4396                 1.7472                 1.4636
 IR Inten    --      7.6304                39.7654                30.6463

                     43                     44                     45
                      A                      A                      A
 Frequencies --   1554.1732              1623.3756              1747.1810
 Red. masses --      1.0657                 5.4900                 7.6094
 Frc consts  --      1.5167                 8.5243                13.6861
 IR Inten    --     34.2951               129.7055               275.7900

                     46                     47                     48
                      A                      A                      A
 Frequencies --   3021.2409              3031.7811              3078.4173
 Red. masses --      1.0353                 1.0472                 1.1066
 Frc consts  --      5.5681                 5.6712                 6.1788
 IR Inten    --     45.4473                52.3462                46.5458

                     49                     50                     51
                      A                      A                      A
 Frequencies --   3105.9780              3144.8595              3161.4341
 Red. masses --      1.0884                 1.1048                 1.0991
 Frc consts  --      6.1864                 6.4378                 6.4720
 IR Inten    --     27.4632                19.4975                26.6325

                     52                     53                     54
                      A                      A                      A
 Frequencies --   3271.2808              3281.5674              3609.5570
 Red. masses --      1.0916                 1.0937                 1.0760
 Frc consts  --      6.8825                 6.9390                 8.2600
 IR Inten    --      2.3962                 1.6370                39.4580

 - Thermochemistry -
 -------------------
 Temperature   298.150 Kelvin.  Pressure   1.00000 Atm.
 Atom     1 has atomic number  6 and mass  12.00000

 Molecular mass:   171.03540 amu.
 Principal axes and moments of inertia in atomic units:
                           1         2         3
     Eigenvalues --  1277.494822548.456773723.06109
           X            0.99992   0.01024   0.00715
           Y           -0.01027   0.99994   0.00463
           Z           -0.00710  -0.00470   0.99996
 This molecule is an asymmetric top.
 Rotational symmetry number  1.
 Warning -- assumption of classical behavior for rotation
           may cause significant error
 Rotational temperatures (Kelvin)      0.06780     0.03399     0.02326
 Rotational constants (GHZ):           1.41272     0.70817     0.48475
 Zero-point vibrational energy     408970.6 (Joules/Mol)
                                   97.74631 (Kcal/Mol)
 Warning -- explicit consideration of  16 degrees of freedom as
           vibrations may cause significant error
 Vibrational temperatures:     48.13   100.84   169.75   182.01   204.16
          (Kelvin)            288.26   328.10   371.89   382.47   427.65
                              556.23   638.27   673.13   726.82   817.48
                              852.37   899.53   902.40  1042.10  1091.65
                             1108.00  1207.91  1269.13  1371.24  1452.97
                             1562.30  1635.84  1672.02  1707.82  1735.75
                             1742.17  1781.73  1817.91  1992.08  2061.87
                             2106.11  2132.62  2153.98  2181.25  2188.18
                             2194.92  2209.40  2236.11  2335.68  2513.80
                             4346.89  4362.06  4429.16  4468.81  4524.75
                             4548.60  4706.64  4721.44  5193.35

 Zero-point correction=                           0.155769 (Hartree/Particle)
 Thermal correction to Energy=                    0.167134
 Thermal correction to Enthalpy=                  0.168078
 Thermal correction to Gibbs Free Energy=         0.117525
 Sum of electronic and zero-point Energies=           -875.408796
 Sum of electronic and thermal Energies=              -875.397431
 Sum of electronic and thermal Enthalpies=            -875.396486
 Sum of electronic and thermal Free Energies=         -875.447039

                     E (Thermal)             CV                S
                      KCal/Mol        Cal/Mol-Kelvin    Cal/Mol-Kelvin
 Total                  104.878             40.734            106.398
 Electronic               0.000              0.000              0.000
 Translational            0.889              2.981             41.318
 Rotational               0.889              2.981             30.873
 Vibrational            103.101             34.773             34.207
 Vibration     1          0.594              1.983              5.613
 Vibration     2          0.598              1.968              4.151
 Vibration     3          0.608              1.934              3.133
 Vibration     4          0.611              1.927              2.999
 Vibration     5          0.615              1.911              2.778
 Vibration     6          0.638              1.839              2.130
 Vibration     7          0.651              1.798              1.894
 Vibration     8          0.667              1.748              1.672
 Vibration     9          0.672              1.736              1.623
 Vibration    10          0.691              1.679              1.432
 Vibration    11          0.755              1.499              1.013
 Vibration    12          0.803              1.375              0.815
 Vibration    13          0.825              1.321              0.744
 Vibration    14          0.860              1.239              0.645
 Vibration    15          0.924              1.100              0.508
 Vibration    16          0.950              1.048              0.463

                           ! Non-Optimized Parameters !
 Normal termination of Gaussian 16 at Tue Dec  8 21:58:25 2020.

 ----------------------------------------------------------------------
 # B3LYP/6-311++G(d,p) empiricaldispersion=gd3bj scf=xqc pop=npa geom=c
 heck
 ----------------------------------------------------------------------

 --------------------------------------
 CID_79466301_JID_1965_Energie_neutraal
 --------------------------------------
 Structure from the checkpoint file:  "JID_1965.chk"
 Charge =  0 Multiplicity = 1

 SCF Done:  E(RB3LYP) =  -875.731377508     A.U. after   16 cycles
 Normal termination of Gaussian 16 at Tue Dec  8 21:59:48 2020.

 ----------------------------------------------------------------------
 # B3LYP/6-311++G(d,p) empiricaldispersion=gd3bj scf=xqc pop=npa geom=c
 heck
 ----------------------------------------------------------------------

 ------------------------------------
 CID_79466301_JID_1965_Energie_kation
 ------------------------------------
 Structure from the checkpoint file:  "JID_1965.chk"
 Charge =  1 Multiplicity = 2

 SCF Done:  E(UB3LYP) =  -875.434495441     A.U. after   27 cycles
 Normal termination of Gaussian 16 at Tue Dec  8 22:02:48 2020.
 Gaussian 16:  ES64L-G16RevA.03 25-Dec-2016

 ----------------------------------------------------------------------
 # B3LYP/6-311++G(d,p) empiricaldispersion=gd3bj scf=xqc pop=npa geom=c
 heck
 ----------------------------------------------------------------------

 -----------------------------------
 CID_79466301_JID_1965_Energie_anion
 -----------------------------------
 Structure from the checkpoint file:  "JID_1965.chk"
 Charge = -1 Multiplicity = 2

                         Standard orientation:
 ---------------------------------------------------------------------
 Center     Atomic      Atomic             Coordinates (Angstroms)
 Number     Number       Type             X           Y           Z
 ---------------------------------------------------------------------
      1          6           0        1.862751    2.375453    0.491886
      2          7           0        2.509339    1.213405   -0.091988
      3          6           0        2.039167   -0.069967   -0.210813
      4          8           0        2.809762   -0.999598   -0.448722
      5          6           0        0.588200   -0.322035   -0.055986
      6          6           0       -0.520780    0.493422   -0.149509
      7          6           0       -1.742808   -0.226967    0.009335
      8          6           0       -1.539704   -1.571989    0.219087
      9         16           0        0.135568   -1.982092    0.201997
     10          8           0       -3.002552    0.290083   -0.029959
     11          6           0       -3.112876    1.688047   -0.242876
     12          1           0        1.162372    2.078042    1.277021
     13          1           0        1.320805    2.974580   -0.252394
     14          1           0        2.628183    3.013451    0.941556
     15          1           0        3.512146    1.250660   -0.220048
     16          1           0       -0.470492    1.552379   -0.355606
     17          1           0       -2.302698   -2.320796    0.375591
     18          1           0       -2.613873    2.256987    0.553449
     19          1           0       -2.691730    1.981912   -1.213783
     20          1           0       -4.180539    1.912755   -0.231113
 ---------------------------------------------------------------------

 SCF Done:  E(UB3LYP) =  -875.729707394     A.U. after   33 cycles
 SCF Done:  E(UB3LYP) =  -875.729707394     a.u. after    1 cycles

 The electronic state is 2-A.
 Alpha  occ. eigenvalues --  -88.73689 -19.03870 -18.94552 -14.20744 -10.13499
 Alpha  occ. eigenvalues --  -10.11694 -10.10591 -10.09013 -10.06387 -10.05320
 Alpha  occ. eigenvalues --  -10.04461  -7.82307  -5.78601  -5.78238  -5.77917
 Alpha  occ. eigenvalues --   -0.95424  -0.90137  -0.79262  -0.74746  -0.63259
 Alpha  occ. eigenvalues --   -0.60812  -0.59104  -0.57036  -0.49617  -0.43979
 Alpha  occ. eigenvalues --   -0.42778  -0.39990  -0.37228  -0.36242  -0.36025
 Alpha  occ. eigenvalues --   -0.33535  -0.33027  -0.29601  -0.28513  -0.27978
 Alpha  occ. eigenvalues --   -0.27583  -0.26097  -0.25052  -0.22526  -0.21549
 Alpha  occ. eigenvalues --   -0.20272  -0.13382  -0.12688  -0.12451  -0.09242
 Alpha  occ. eigenvalues --    0.04503
 Alpha virt. eigenvalues --    0.06467   0.07202   0.09262   0.09798   0.10146
 Alpha virt. eigenvalues --    0.11505   0.11982   0.12697   0.13499   0.14652
 Alpha virt. eigenvalues --    0.15408   0.15588   0.15777   0.16397   0.17127

  Beta  occ. eigenvalues --  -88.73643 -19.03883 -18.94406 -14.20701 -10.13372
  Beta  occ. eigenvalues --  -10.11664 -10.10658 -10.08975 -10.06251 -10.05098
  Beta  occ. eigenvalues --  -10.04295  -7.82265  -5.78580  -5.78217  -5.77765
  Beta  occ. eigenvalues --   -0.95445  -0.89864  -0.79117  -0.74512  -0.63135
  Beta  occ. eigenvalues --   -0.60441  -0.58959  -0.56802  -0.49254  -0.43870
  Beta  occ. eigenvalues --   -0.42586  -0.39845  -0.37141  -0.36095  -0.35993
  Beta  occ. eigenvalues --   -0.33346  -0.32872  -0.29486  -0.28354  -0.27794
  Beta  occ. eigenvalues --   -0.27088  -0.25907  -0.24648  -0.22458  -0.21326
  Beta  occ. eigenvalues --   -0.19929  -0.13072  -0.12265  -0.11395  -0.08387
  Beta virt. eigenvalues --    0.07018   0.07942   0.08852   0.09561   0.09993
  Beta virt. eigenvalues --    0.10564   0.11805   0.12376   0.12843   0.13572
  Beta virt. eigenvalues --    0.14687   0.15484   0.15651   0.15972   0.16498

 Mulliken charges and spin densities:
               1          2
     1  C    0.693508  -1.117975
     2  N   -0.406888   0.166947
     3  C    0.140851   0.177839
     4  O   -0.411938   0.054293
     5  C   -0.135885  -0.189096
     6  C    0.520406   0.546420
     7  C   -1.059773  -0.324172
     8  C    0.550148   0.182792
     9  S   -0.510423   0.070863
    10  O   -0.198373   0.030101
    11  C    0.290060  -0.608096
    12  H    0.021627   0.139040
    13  H   -0.421950   0.580493
    14  H   -0.541402   0.670687
    15  H    0.213482   0.092830
    16  H    0.498842  -0.361613
    17  H    0.196799   0.008328
    18  H   -0.055523   0.191479
    19  H   -0.252316   0.397579
    20  H   -0.131254   0.291261
 Sum of Mulliken charges =  -1.00000   1.00000

 Dipole moment (field-independent basis, Debye):
    X=             -2.6398    Y=             -1.5303    Z=              0.9241  Tot=              3.1881
 Quadrupole moment (field-independent basis, Debye-Ang):
   XX=           -116.3118   YY=           -111.4300   ZZ=            -90.2971
   XY=              3.6711   XZ=              0.2247   YZ=             -1.3562

 Summary of Natural Population Analysis:

                                       Natural Population
                Natural  -----------------------------------------------
    Atom  No    Charge         Core      Valence    Rydberg      Total
 -----------------------------------------------------------------------
      C    1   -0.18064      0.99965     2.17254    0.00844     3.18064
      N    2   -0.31626      0.99968     2.80597    0.01060     3.81626
      C    3    0.33699      0.99958     1.63981    0.02362     2.66301
      O    4   -0.32169      0.99988     3.31680    0.00501     4.32169
      C    5   -0.12368      0.99949     2.11117    0.01302     3.12368
      C    6   -0.12399      0.99945     2.11519    0.00934     3.12399
      C    7    0.11040      0.99933     1.87455    0.01572     2.88960
      C    8   -0.18317      0.99951     2.17287    0.01079     3.18317
      S    9    0.24135      4.99943     2.73763    0.02158     7.75865
      O   10   -0.27946      0.99985     3.27031    0.00929     4.27946
      C   11   -0.09915      0.99961     2.09012    0.00942     3.09915
      H   12    0.10048      0.00000     0.39818    0.00134     0.39952
      H   13    0.08834      0.00000     0.41023    0.00143     0.41166
      H   14    0.09638      0.00000     0.40196    0.00166     0.40362
      H   15    0.18875      0.00000     0.30891    0.00234     0.31125
      H   16    0.10633      0.00000     0.39192    0.00174     0.39367
      H   17    0.10346      0.00000     0.39563    0.00091     0.39654
      H   18    0.08223      0.00000     0.41640    0.00137     0.41777
      H   19    0.08498      0.00000     0.41348    0.00153     0.41502
      H   20    0.08832      0.00000     0.41067    0.00101     0.41168
 =======================================================================
   * Total *    0.00000     14.99547    29.85435    0.15019    45.00000

 Normal termination of Gaussian 16 at Tue Dec  8 22:06:31 2020.
