 Gaussian 16, Revision A.03,

 -----------------------------------------------------------
 # opt freq B3LYP/6-31G(d) empiricaldispersion=gd3bj scf=xqc
 -----------------------------------------------------------

 ------------------------------
 CID_83029242_JID_8807_neutraal
 ------------------------------
 Symbolic Z-matrix:
 Charge =  0 Multiplicity = 1

 SCF Done:  E(RB3LYP) =  -1146.99256227     A.U. after   15 cycles
 SCF Done:  E(RB3LYP) =  -1146.99771287     A.U. after   12 cycles
 SCF Done:  E(RB3LYP) =  -1146.99831141     A.U. after   11 cycles
 SCF Done:  E(RB3LYP) =  -1146.99844772     A.U. after   11 cycles
 SCF Done:  E(RB3LYP) =  -1146.99848526     A.U. after   11 cycles
 SCF Done:  E(RB3LYP) =  -1146.99850973     A.U. after   10 cycles
 SCF Done:  E(RB3LYP) =  -1146.99851730     A.U. after   10 cycles
 SCF Done:  E(RB3LYP) =  -1146.99851955     A.U. after    8 cycles
 SCF Done:  E(RB3LYP) =  -1146.99852114     A.U. after    8 cycles
 SCF Done:  E(RB3LYP) =  -1146.99852206     A.U. after    8 cycles
 SCF Done:  E(RB3LYP) =  -1146.99852236     A.U. after    7 cycles
 Optimization completed.
    -- Stationary point found.
 Normal termination of Gaussian 16 at Fri Dec 11 22:12:57 2020.

 --------------------------------------------------------------------
 #N Geom=AllCheck Guess=TCheck SCRF=Check GenChk RB3LYP/6-31G(d) Freq
 --------------------------------------------------------------------

 Structure from the checkpoint file:  "JID_8807.chk"
 ------------------------------
 CID_83029242_JID_8807_neutraal
 ------------------------------
 Charge =  0 Multiplicity = 1

 SCF Done:  E(RB3LYP) =  -1146.99852236     A.U. after    1 cycles

  Exact polarizability: 215.223   4.349 174.178  -3.909   1.123 134.137
 Approx polarizability: 280.719   0.903 277.008  -3.374   5.093 200.220

                      1                      2                      3
                      A                      A                      A
 Frequencies --     25.5246                27.6317                45.8051
 Red. masses --      3.0096                 3.2592                 4.1946
 Frc consts  --      0.0012                 0.0015                 0.0052
 IR Inten    --      0.0702                 0.1779                 0.4812

                      4                      5                      6
                      A                      A                      A
 Frequencies --     55.3917               114.2672               129.6511
 Red. masses --      6.5166                 3.7582                 3.4402
 Frc consts  --      0.0118                 0.0289                 0.0341
 IR Inten    --      0.2319                 2.0092                 1.7684

                      7                      8                      9
                      A                      A                      A
 Frequencies --    151.2799               192.5567               205.6199
 Red. masses --      2.6799                 1.8204                 3.4187
 Frc consts  --      0.0361                 0.0398                 0.0852
 IR Inten    --      1.0499                 0.2078                 2.0371

                     10                     11                     12
                      A                      A                      A
 Frequencies --    214.4658               224.1354               247.4666
 Red. masses --      1.3702                 1.0608                 3.0192
 Frc consts  --      0.0371                 0.0314                 0.1089
 IR Inten    --      0.0416                 0.0302                 0.1379

                     13                     14                     15
                      A                      A                      A
 Frequencies --    251.7712               277.3120               279.4291
 Red. masses --      1.5365                 1.1355                 1.0937
 Frc consts  --      0.0574                 0.0514                 0.0503
 IR Inten    --      0.1438                 0.2187                 0.0253

                     16                     17                     18
                      A                      A                      A
 Frequencies --    295.6701               298.1951               308.5812
 Red. masses --      2.2411                 2.3427                 3.0985
 Frc consts  --      0.1154                 0.1227                 0.1738
 IR Inten    --      2.2486                 1.4796                 0.8446

                     19                     20                     21
                      A                      A                      A
 Frequencies --    328.1935               330.7961               336.2090
 Red. masses --      3.1697                 2.1222                 2.7344
 Frc consts  --      0.2012                 0.1368                 0.1821
 IR Inten    --      2.2224                10.6954                 0.2232

                     22                     23                     24
                      A                      A                      A
 Frequencies --    358.2338               404.3986               413.2337
 Red. masses --      2.4877                 2.1099                 2.6133
 Frc consts  --      0.1881                 0.2033                 0.2629
 IR Inten    --      3.0547                21.4063                 7.2478

                     25                     26                     27
                      A                      A                      A
 Frequencies --    430.8007               450.7666               478.7689
 Red. masses --      2.0331                 2.2508                 2.6737
 Frc consts  --      0.2223                 0.2695                 0.3611
 IR Inten    --     88.8518                 1.9357                 9.0827

                     28                     29                     30
                      A                      A                      A
 Frequencies --    494.7330               501.9431               508.5025
 Red. masses --      3.0502                 4.2485                 3.4303
 Frc consts  --      0.4399                 0.6307                 0.5226
 IR Inten    --      7.6562                 6.8775                 8.9962

                     31                     32                     33
                      A                      A                      A
 Frequencies --    560.9720               606.5696               626.6496
 Red. masses --      3.2514                 3.4705                 6.5024
 Frc consts  --      0.6028                 0.7523                 1.5044
 IR Inten    --      1.2344                 1.1196                 0.1291

                     34                     35                     36
                      A                      A                      A
 Frequencies --    643.8821               754.8252               758.2447
 Red. masses --      4.4168                 9.9068                 3.7819
 Frc consts  --      1.0789                 3.3257                 1.2811
 IR Inten    --      0.5654                 7.3283                 6.4275

                     37                     38                     39
                      A                      A                      A
 Frequencies --    762.5369               820.0852               837.2808
 Red. masses --      8.3756                 4.8076                 2.9831
 Frc consts  --      2.8694                 1.9050                 1.2321
 IR Inten    --      4.9271                 4.0683                 3.1859

                     40                     41                     42
                      A                      A                      A
 Frequencies --    839.8642               881.1340               904.4620
 Red. masses --      2.0025                 2.2239                 2.2167
 Frc consts  --      0.8322                 1.0173                 1.0684
 IR Inten    --      3.9779                 4.3218                 6.2855

                     43                     44                     45
                      A                      A                      A
 Frequencies --    931.3797               947.7172               947.8359
 Red. masses --      1.9785                 1.4923                 1.7723
 Frc consts  --      1.0112                 0.7897                 0.9381
 IR Inten    --      0.5755                 0.9223                 0.5954

                     46                     47                     48
                      A                      A                      A
 Frequencies --    958.7603               978.4217               980.0725
 Red. masses --      1.6520                 2.1326                 1.1987
 Frc consts  --      0.8947                 1.2028                 0.6784
 IR Inten    --      1.3410                13.0044                 0.0218

                     49                     50                     51
                      A                      A                      A
 Frequencies --   1003.9529              1007.5893              1029.5034
 Red. masses --      4.2439                 1.6271                 1.3106
 Frc consts  --      2.5202                 0.9732                 0.8184
 IR Inten    --      9.7938                 6.0633                 0.9897

                     52                     53                     54
                      A                      A                      A
 Frequencies --   1060.4007              1062.7452              1086.8571
 Red. masses --      1.4086                 1.4276                 1.8311
 Frc consts  --      0.9332                 0.9500                 1.2744
 IR Inten    --      0.0361                 3.9995                 5.5485

                     55                     56                     57
                      A                      A                      A
 Frequencies --   1094.1110              1117.3195              1156.6402
 Red. masses --      3.1542                 4.2656                 2.8034
 Frc consts  --      2.2246                 3.1375                 2.2097
 IR Inten    --     13.8339                69.2553                65.6223

                     58                     59                     60
                      A                      A                      A
 Frequencies --   1187.9498              1205.0697              1242.4633
 Red. masses --      1.7702                 2.3037                 2.4051
 Frc consts  --      1.4719                 1.9711                 2.1875
 IR Inten    --      7.1594               121.4953                52.6827

                     61                     62                     63
                      A                      A                      A
 Frequencies --   1244.7139              1249.3528              1258.0875
 Red. masses --      2.6450                 2.2586                 2.8568
 Frc consts  --      2.4144                 2.0771                 2.6641
 IR Inten    --      6.9774                36.5145                62.3909

                     64                     65                     66
                      A                      A                      A
 Frequencies --   1264.9573              1265.3932              1299.6027
 Red. masses --      2.7442                 2.1629                 1.3301
 Frc consts  --      2.5872                 2.0405                 1.3236
 IR Inten    --     13.0991                15.5676                12.5625

                     67                     68                     69
                      A                      A                      A
 Frequencies --   1321.1871              1343.5453              1361.2577
 Red. masses --      1.4332                 1.6470                 1.5620
 Frc consts  --      1.4739                 1.7517                 1.7053
 IR Inten    --     14.1546                18.9997                 5.6712

                     70                     71                     72
                      A                      A                      A
 Frequencies --   1368.5027              1399.3039              1418.1918
 Red. masses --      2.6959                 1.4305                 1.2186
 Frc consts  --      2.9747                 1.6503                 1.4440
 IR Inten    --     96.0803                 1.7548                 4.1878

                     73                     74                     75
                      A                      A                      A
 Frequencies --   1420.5558              1425.2776              1427.5381
 Red. masses --      1.3953                 1.3250                 1.3043
 Frc consts  --      1.6589                 1.5858                 1.5660
 IR Inten    --     42.1198                 4.3220                 1.7998

                     76                     77                     78
                      A                      A                      A
 Frequencies --   1427.8003              1444.5275              1453.7167
 Red. masses --      1.3049                 1.2419                 1.2652
 Frc consts  --      1.5673                 1.5269                 1.5753
 IR Inten    --     12.0299                11.6761                13.8851

                     79                     80                     81
                      A                      A                      A
 Frequencies --   1500.3176              1503.6467              1505.9299
 Red. masses --      1.1796                 1.8470                 1.0498
 Frc consts  --      1.5644                 2.4604                 1.4027
 IR Inten    --      1.0657                 0.3630                 0.0059

                     82                     83                     84
                      A                      A                      A
 Frequencies --   1507.2840              1515.8415              1518.4081
 Red. masses --      1.0732                 1.0585                 1.0831
 Frc consts  --      1.4365                 1.4330                 1.4713
 IR Inten    --      0.5756                 0.9072                 1.4513

                     85                     86                     87
                      A                      A                      A
 Frequencies --   1521.0630              1521.6193              1524.8578
 Red. masses --      1.0458                 1.0705                 1.0774
 Frc consts  --      1.4256                 1.4604                 1.4760
 IR Inten    --      0.1310                 4.9890                 0.8671

                     88                     89                     90
                      A                      A                      A
 Frequencies --   1528.7959              1530.4331              1537.3053
 Red. masses --      1.0507                 1.0564                 1.0873
 Frc consts  --      1.4468                 1.4579                 1.5140
 IR Inten    --      3.8278                 5.7609                 8.8914

                     91                     92                     93
                      A                      A                      A
 Frequencies --   1548.4209              1550.5304              1562.5302
 Red. masses --      1.0728                 1.2094                 2.0468
 Frc consts  --      1.5154                 1.7130                 2.9443
 IR Inten    --      1.6842                76.0206               122.1492

                     94                     95                     96
                      A                      A                      A
 Frequencies --   1601.7126              3011.3481              3026.8800
 Red. masses --     10.5747                 1.0710                 1.0657
 Frc consts  --     15.9840                 5.7221                 5.7527
 IR Inten    --    483.2201                38.7031                20.0963

                     97                     98                     99
                      A                      A                      A
 Frequencies --   3047.2108              3047.3543              3049.9071
 Red. masses --      1.0646                 1.0349                 1.0357
 Frc consts  --      5.8242                 5.6625                 5.6759
 IR Inten    --     22.7402                27.5790                14.7556

                    100                    101                    102
                      A                      A                      A
 Frequencies --   3058.0720              3059.2227              3064.1821
 Red. masses --      1.0349                 1.0370                 1.0367
 Frc consts  --      5.7022                 5.7180                 5.7349
 IR Inten    --     22.7588                35.8455                10.5110

                    103                    104                    105
                      A                      A                      A
 Frequencies --   3087.6413              3101.9207              3110.7889
 Red. masses --      1.0914                 1.0898                 1.0929
 Frc consts  --      6.1305                 6.1779                 6.2315
 IR Inten    --      8.1231                26.1348                39.0054

                    106                    107                    108
                      A                      A                      A
 Frequencies --   3113.2353              3115.2690              3115.3291
 Red. masses --      1.1029                 1.1001                 1.1022
 Frc consts  --      6.2984                 6.2900                 6.3026
 IR Inten    --     14.2057                16.6104                25.2527

                    109                    110                    111
                      A                      A                      A
 Frequencies --   3126.9335              3128.3369              3134.3269
 Red. masses --      1.1006                 1.1022                 1.1021
 Frc consts  --      6.3406                 6.3552                 6.3793
 IR Inten    --     47.4482                 8.0114                16.0829

                    112                    113                    114
                      A                      A                      A
 Frequencies --   3134.3589              3136.1862              3138.3551
 Red. masses --      1.1019                 1.1031                 1.1012
 Frc consts  --      6.3783                 6.3924                 6.3905
 IR Inten    --     21.0404                22.7123                49.8355

                    115                    116                    117
                      A                      A                      A
 Frequencies --   3139.4517              3140.4408              3604.6841
 Red. masses --      1.1022                 1.1024                 1.0765
 Frc consts  --      6.4007                 6.4059                 8.2414
 IR Inten    --     35.3765                25.6268                32.7490

 - Thermochemistry -
 -------------------
 Temperature   298.150 Kelvin.  Pressure   1.00000 Atm.
 Atom     1 has atomic number  6 and mass  12.00000

 Molecular mass:   269.15618 amu.
 Principal axes and moments of inertia in atomic units:
                           1         2         3
     Eigenvalues --  2459.27954********************
           X            0.99979   0.02007  -0.00513
           Y           -0.02003   0.99978   0.00683
           Z            0.00527  -0.00673   0.99996
 This molecule is an asymmetric top.
 Rotational symmetry number  1.
 Warning -- assumption of classical behavior for rotation
           may cause significant error
 Rotational temperatures (Kelvin)      0.03522     0.00862     0.00773
 Rotational constants (GHZ):           0.73385     0.17959     0.16097
 Zero-point vibrational energy     938711.3 (Joules/Mol)
                                  224.35738 (Kcal/Mol)
 Warning -- explicit consideration of  32 degrees of freedom as
           vibrations may cause significant error
 Vibrational temperatures:     36.72    39.76    65.90    79.70   164.41
          (Kelvin)            186.54   217.66   277.05   295.84   308.57
                              322.48   356.05   362.24   398.99   402.04
                              425.40   429.04   443.98   472.20   475.94
                              483.73   515.42   581.84   594.55   619.83
                              648.55   688.84   711.81   722.18   731.62
                              807.11   872.72   901.61   926.40  1086.03
                             1090.94  1097.12  1179.92  1204.66  1208.38
                             1267.76  1301.32  1340.05  1363.55  1363.72
                             1379.44  1407.73  1410.11  1444.46  1449.70
                             1481.23  1525.68  1529.05  1563.74  1574.18
                             1607.57  1664.15  1709.19  1733.83  1787.63
                             1790.87  1797.54  1810.11  1819.99  1820.62
                             1869.84  1900.89  1933.06  1958.55  1968.97
                             2013.29  2040.46  2043.86  2050.66  2053.91
                             2054.29  2078.35  2091.57  2158.62  2163.41
                             2166.70  2168.65  2180.96  2184.65  2188.47
                             2189.27  2193.93  2199.60  2201.95  2211.84
                             2227.83  2230.87  2248.13  2304.51  4332.66
                             4355.01  4384.26  4384.46  4388.14  4399.88
                             4401.54  4408.67  4442.43  4462.97  4475.73
                             4479.25  4482.18  4482.26  4498.96  4500.98
                             4509.60  4509.64  4512.27  4515.39  4516.97
                             4518.39  5186.34

 Zero-point correction=                           0.357536 (Hartree/Particle)
 Thermal correction to Energy=                    0.376722
 Thermal correction to Enthalpy=                  0.377666
 Thermal correction to Gibbs Free Energy=         0.309909
 Sum of electronic and zero-point Energies=          -1146.640986
 Sum of electronic and thermal Energies=             -1146.621801
 Sum of electronic and thermal Enthalpies=           -1146.620856
 Sum of electronic and thermal Free Energies=        -1146.688613

                     E (Thermal)             CV                S
                      KCal/Mol        Cal/Mol-Kelvin    Cal/Mol-Kelvin
 Total                  236.397             74.362            142.607
 Electronic               0.000              0.000              0.000
 Translational            0.889              2.981             42.669
 Rotational               0.889              2.981             33.982
 Vibrational            234.619             68.400             65.955
 Vibration     1          0.593              1.985              6.150
 Vibration     2          0.593              1.984              5.993
 Vibration     3          0.595              1.979              4.991
 Vibration     4          0.596              1.975              4.615
 Vibration     5          0.607              1.938              3.195
 Vibration     6          0.612              1.924              2.951
 Vibration     7          0.619              1.901              2.656
 Vibration     8          0.635              1.850              2.203
 Vibration     9          0.640              1.832              2.082
 Vibration    10          0.644              1.819              2.005
 Vibration    11          0.649              1.804              1.925
 Vibration    12          0.661              1.767              1.749
 Vibration    13          0.664              1.760              1.718
 Vibration    14          0.678              1.715              1.550
 Vibration    15          0.680              1.712              1.537
 Vibration    16          0.690              1.682              1.441
 Vibration    17          0.691              1.677              1.427
 Vibration    18          0.698              1.657              1.370
 Vibration    19          0.711              1.619              1.269
 Vibration    20          0.713              1.614              1.256
 Vibration    21          0.717              1.603              1.230
 Vibration    22          0.733              1.558              1.130
 Vibration    23          0.770              1.461              0.947
 Vibration    24          0.777              1.441              0.915
 Vibration    25          0.792              1.403              0.856
 Vibration    26          0.810              1.359              0.793
 Vibration    27          0.835              1.297              0.713
 Vibration    28          0.850              1.262              0.671
 Vibration    29          0.857              1.246              0.653
 Vibration    30          0.864              1.231              0.637
 Vibration    31          0.917              1.116              0.522
 Vibration    32          0.965              1.018              0.438

                           ! Non-Optimized Parameters !
 Normal termination of Gaussian 16 at Fri Dec 11 22:32:15 2020.

 ----------------------------------------------------------------------
 # B3LYP/6-311++G(d,p) empiricaldispersion=gd3bj scf=xqc pop=npa geom=c
 heck
 ----------------------------------------------------------------------

 --------------------------------------
 CID_83029242_JID_8807_Energie_neutraal
 --------------------------------------
 Structure from the checkpoint file:  "JID_8807.chk"
 Charge =  0 Multiplicity = 1

 SCF Done:  E(RB3LYP) =  -1147.23181014     A.U. after   17 cycles
 Normal termination of Gaussian 16 at Fri Dec 11 22:41:53 2020.

 ----------------------------------------------------------------------
 # B3LYP/6-311++G(d,p) empiricaldispersion=gd3bj scf=xqc pop=npa geom=c
 heck
 ----------------------------------------------------------------------

 ------------------------------------
 CID_83029242_JID_8807_Energie_kation
 ------------------------------------
 Structure from the checkpoint file:  "JID_8807.chk"
 Charge =  1 Multiplicity = 2

 SCF Done:  E(UB3LYP) =  -1146.93433760     A.U. after   25 cycles
 Normal termination of Gaussian 16 at Fri Dec 11 23:01:19 2020.
 Gaussian 16:  ES64L-G16RevA.03 25-Dec-2016

 ----------------------------------------------------------------------
 # B3LYP/6-311++G(d,p) empiricaldispersion=gd3bj scf=xqc pop=npa geom=c
 heck
 ----------------------------------------------------------------------

 -----------------------------------
 CID_83029242_JID_8807_Energie_anion
 -----------------------------------
 Structure from the checkpoint file:  "JID_8807.chk"
 Charge = -1 Multiplicity = 2

                         Standard orientation:
 ---------------------------------------------------------------------
 Center     Atomic      Atomic             Coordinates (Angstroms)
 Number     Number       Type             X           Y           Z
 ---------------------------------------------------------------------
      1          6           0        5.342891    0.381815   -0.547150
      2          6           0        3.957571   -0.238655   -0.374634
      3          6           0        2.869924    0.850618   -0.504756
      4          6           0        1.502860    0.365310   -0.020523
      5          6           0        1.626513   -0.205087    1.397485
      6          6           0        2.721106   -1.270391    1.428803
      7          8           0        3.965442   -0.762343    0.965483
      8          7           0        0.534804    1.461225   -0.111514
      9          6           0       -0.797321    1.215731   -0.044485
     10          7           0       -1.334959    0.021627   -0.124860
     11          6           0       -2.708721    0.134256   -0.071087
     12          7           0       -3.268204    1.314369    0.051302
     13         16           0       -2.026367    2.474865    0.103309
     14          6           0       -3.542115   -1.131729   -0.147942
     15          6           0       -5.039046   -0.807341   -0.060752
     16          6           0       -3.232067   -1.834168   -1.486092
     17          6           0       -3.133983   -2.051865    1.021289
     18          6           0        3.758537   -1.365129   -1.401070
     19          1           0        5.515038    1.137664    0.225340
     20          1           0        6.115026   -0.387848   -0.451774
     21          1           0        5.438028    0.853585   -1.530864
     22          1           0        3.176599    1.710016    0.108780
     23          1           0        2.804387    1.194196   -1.543379
     24          1           0        1.123422   -0.417902   -0.682976
     25          1           0        1.890909    0.605311    2.089665
     26          1           0        0.667927   -0.628427    1.714718
     27          1           0        2.907616   -1.610826    2.451181
     28          1           0        2.409807   -2.147323    0.840515
     29          1           0        0.852901    2.370835    0.195749
     30          1           0       -5.349353   -0.149356   -0.877534
     31          1           0       -5.620412   -1.734550   -0.119253
     32          1           0       -5.280492   -0.303342    0.879547
     33          1           0       -2.163956   -2.053468   -1.571849
     34          1           0       -3.790070   -2.775322   -1.553603
     35          1           0       -3.522439   -1.203794   -2.333990
     36          1           0       -2.065285   -2.281384    0.980972
     37          1           0       -3.347793   -1.576410    1.985145
     38          1           0       -3.696082   -2.991700    0.972441
     39          1           0        4.505211   -2.147750   -1.234692
     40          1           0        2.767453   -1.823745   -1.341702
     41          1           0        3.881505   -0.978283   -2.418255
 ---------------------------------------------------------------------

 SCF Done:  E(UB3LYP) =  -1147.22211939     A.U. after   33 cycles
 SCF Done:  E(UB3LYP) =  -1147.22211939     a.u. after    1 cycles

 The electronic state is 2-A.
 Alpha  occ. eigenvalues --  -88.78987 -19.02803 -14.24630 -14.22220 -14.20695
 Alpha  occ. eigenvalues --  -10.17680 -10.13988 -10.13933 -10.12422 -10.11947
 Alpha  occ. eigenvalues --  -10.10606 -10.07514 -10.07446 -10.07420 -10.07304
 Alpha  occ. eigenvalues --  -10.07266 -10.06923 -10.06509  -7.87426  -5.83822
 Alpha  occ. eigenvalues --   -5.83383  -5.82895  -0.94313  -0.91186  -0.85190
 Alpha  occ. eigenvalues --   -0.76507  -0.73978  -0.71464  -0.70052  -0.64656
 Alpha  occ. eigenvalues --   -0.61585  -0.60277  -0.60244  -0.60062  -0.55673
 Alpha  occ. eigenvalues --   -0.53121  -0.52649  -0.49669  -0.45358  -0.43854
 Alpha  occ. eigenvalues --   -0.42022  -0.40101  -0.38932  -0.38022  -0.36593
 Alpha  occ. eigenvalues --   -0.36485  -0.35730  -0.35531  -0.34598  -0.33987
 Alpha  occ. eigenvalues --   -0.33228  -0.32095  -0.31524  -0.30375  -0.30047
 Alpha  occ. eigenvalues --   -0.29819  -0.28908  -0.28148  -0.28044  -0.27346
 Alpha  occ. eigenvalues --   -0.26459  -0.25498  -0.25252  -0.25064  -0.24529
 Alpha  occ. eigenvalues --   -0.24330  -0.22442  -0.21624  -0.20630  -0.18088
 Alpha  occ. eigenvalues --   -0.17906  -0.16738  -0.12968   0.04188
 Alpha virt. eigenvalues --    0.05692   0.06284   0.07137   0.07701   0.07795
 Alpha virt. eigenvalues --    0.08262   0.08614   0.08802   0.09540   0.09688
 Alpha virt. eigenvalues --    0.09959   0.10398   0.11039   0.11328   0.11456

  Beta  occ. eigenvalues --  -88.78970 -19.02798 -14.24567 -14.22164 -14.20690
  Beta  occ. eigenvalues --  -10.17659 -10.13981 -10.13933 -10.12413 -10.11946
  Beta  occ. eigenvalues --  -10.10603 -10.07508 -10.07434 -10.07387 -10.07287
  Beta  occ. eigenvalues --  -10.07264 -10.06895 -10.06486  -7.87409  -5.83780
  Beta  occ. eigenvalues --   -5.83371  -5.82882  -0.94303  -0.91133  -0.85101
  Beta  occ. eigenvalues --   -0.76433  -0.73955  -0.71435  -0.70020  -0.64584
  Beta  occ. eigenvalues --   -0.61535  -0.60264  -0.60228  -0.60020  -0.55610
  Beta  occ. eigenvalues --   -0.53046  -0.52597  -0.49589  -0.45303  -0.43770
  Beta  occ. eigenvalues --   -0.41959  -0.40033  -0.38897  -0.37995  -0.36567
  Beta  occ. eigenvalues --   -0.36431  -0.35697  -0.35509  -0.34576  -0.33950
  Beta  occ. eigenvalues --   -0.33196  -0.32062  -0.31423  -0.30348  -0.30016
  Beta  occ. eigenvalues --   -0.29777  -0.28876  -0.28141  -0.28013  -0.27312
  Beta  occ. eigenvalues --   -0.26418  -0.25468  -0.25226  -0.25044  -0.24489
  Beta  occ. eigenvalues --   -0.24282  -0.22386  -0.21551  -0.20594  -0.18042
  Beta  occ. eigenvalues --   -0.17863  -0.16716  -0.12899
  Beta virt. eigenvalues --    0.05754   0.06582   0.07241   0.07659   0.07895
  Beta virt. eigenvalues --    0.08022   0.08408   0.08808   0.08962   0.09736
  Beta virt. eigenvalues --    0.10175   0.10181   0.10589   0.11146   0.11381

 Mulliken charges and spin densities:
               1          2
     1  C    0.447845  -0.855836
     2  C   -1.163055   1.237832
     3  C    1.475675  -2.157855
     4  C   -0.818129   0.098910
     5  C   -0.347327   0.540368
     6  C   -0.136509  -0.258602
     7  O   -0.030550   0.019153
     8  N   -0.067175   0.392032
     9  C    0.280833  -0.281840
    10  N    0.127317  -0.019385
    11  C   -0.956086  -0.511818
    12  N    0.063017   0.032092
    13  S   -0.002231   0.269817
    14  C    0.522916   0.629842
    15  C   -0.571450  -0.087938
    16  C   -0.321473  -0.251492
    17  C   -0.211083  -0.386526
    18  C    0.575509  -1.147800
    19  H   -0.155856   0.318988
    20  H    0.020512   0.128109
    21  H   -0.058986   0.203092
    22  H    0.001164   0.167639
    23  H   -0.379217   0.587866
    24  H    0.836480  -0.547499
    25  H   -0.144177   0.335618
    26  H    0.162891  -0.006675
    27  H   -0.003688   0.186080
    28  H    0.081093   0.053522
    29  H   -0.639843   0.956679
    30  H    0.142250   0.016330
    31  H    0.110879   0.026854
    32  H    0.153663   0.005320
    33  H   -0.001149   0.125624
    34  H    0.042392   0.107783
    35  H    0.122794   0.026013
    36  H    0.070428   0.070201
    37  H    0.063448   0.083760
    38  H    0.005060   0.144427
    39  H   -0.048020   0.225434
    40  H   -0.170596   0.283490
    41  H   -0.079565   0.240393
 Sum of Mulliken charges =  -1.00000   1.00000

 Dipole moment (field-independent basis, Debye):
    X=             -4.9431    Y=             -4.3287    Z=              0.2666  Tot=              6.5759
 Quadrupole moment (field-independent basis, Debye-Ang):
   XX=           -204.7628   YY=           -171.5854   ZZ=           -151.1483
   XY=             -4.8543   XZ=              3.3791   YZ=             -2.8821

 Summary of Natural Population Analysis:

                                       Natural Population
                Natural  -----------------------------------------------
    Atom  No    Charge         Core      Valence    Rydberg      Total
 -----------------------------------------------------------------------
      C    1   -0.28651      0.99960     2.27976    0.00714     3.28651
      C    2    0.13570      0.99953     1.84843    0.01633     2.86430
      C    3   -0.20584      0.99956     2.19441    0.01188     3.20584
      C    4   -0.01062      0.99956     1.99784    0.01323     3.01062
      C    5   -0.20932      0.99960     2.20134    0.00838     3.20932
      C    6   -0.00710      0.99957     1.99642    0.01111     3.00710
      O    7   -0.31107      0.99987     3.30151    0.00969     4.31107
      N    8   -0.30736      0.99963     2.79378    0.01394     3.80736
      C    9    0.14747      0.99959     1.83075    0.02218     2.85253
      N   10   -0.30282      0.99962     2.79373    0.00948     3.80282
      C   11    0.21089      0.99957     1.76963    0.01991     2.78911
      N   12   -0.32410      0.99968     2.81511    0.00931     3.82410
      S   13    0.25064      4.99947     2.72556    0.02433     7.74936
      C   14   -0.06241      0.99954     2.05195    0.01092     3.06241
      C   15   -0.28213      0.99964     2.27620    0.00628     3.28213
      C   16   -0.27994      0.99963     2.27479    0.00552     3.27994
      C   17   -0.27974      0.99963     2.27448    0.00563     3.27974
      C   18   -0.30145      0.99960     2.29533    0.00652     3.30145
      H   19    0.10547      0.00000     0.39336    0.00117     0.39453
      H   20    0.10116      0.00000     0.39780    0.00104     0.39884
      H   21    0.10135      0.00000     0.39766    0.00099     0.39865
      H   22    0.10569      0.00000     0.39155    0.00276     0.39431
      H   23    0.10852      0.00000     0.38993    0.00154     0.39148
      H   24    0.10368      0.00000     0.39339    0.00293     0.39632
      H   25    0.10047      0.00000     0.39808    0.00145     0.39953
      H   26    0.10861      0.00000     0.39018    0.00121     0.39139
      H   27    0.09144      0.00000     0.40749    0.00107     0.40856
      H   28    0.07738      0.00000     0.42121    0.00141     0.42262
      H   29    0.20354      0.00000     0.28337    0.01310     0.29646
      H   30    0.10458      0.00000     0.39451    0.00091     0.39542
      H   31    0.09380      0.00000     0.40540    0.00079     0.40620
      H   32    0.10479      0.00000     0.39428    0.00092     0.39521
      H   33    0.10852      0.00000     0.39048    0.00101     0.39148
      H   34    0.09536      0.00000     0.40380    0.00084     0.40464
      H   35    0.09974      0.00000     0.39947    0.00080     0.40026
      H   36    0.10803      0.00000     0.39087    0.00110     0.39197
      H   37    0.10007      0.00000     0.39906    0.00087     0.39993
      H   38    0.09565      0.00000     0.40344    0.00091     0.40435
      H   39    0.10332      0.00000     0.39572    0.00096     0.39668
      H   40    0.09964      0.00000     0.39925    0.00111     0.40036
      H   41    0.10490      0.00000     0.39416    0.00094     0.39510
 =======================================================================
   * Total *   -0.00000     21.99289    50.75549    0.25162    73.00000

 Normal termination of Gaussian 16 at Fri Dec 11 23:26:46 2020.
