 Gaussian 16, Revision A.03,

 -----------------------------------------------------------
 # opt freq B3LYP/6-31G(d) empiricaldispersion=gd3bj scf=xqc
 -----------------------------------------------------------

 ------------------------------
 CID_47232778_JID_6680_neutraal
 ------------------------------
 Symbolic Z-matrix:
 Charge =  0 Multiplicity = 1

 SCF Done:  E(RB3LYP) =  -1142.71305389     A.U. after   15 cycles
 SCF Done:  E(RB3LYP) =  -1142.71824537     A.U. after   13 cycles
 SCF Done:  E(RB3LYP) =  -1142.71320013     A.U. after   14 cycles
 SCF Done:  E(RB3LYP) =  -1142.71876189     A.U. after   12 cycles
 SCF Done:  E(RB3LYP) =  -1142.71940743     A.U. after   12 cycles
 SCF Done:  E(RB3LYP) =  -1142.72068664     A.U. after   12 cycles
 SCF Done:  E(RB3LYP) =  -1142.72080698     A.U. after   12 cycles
 SCF Done:  E(RB3LYP) =  -1142.72087151     A.U. after   12 cycles
 SCF Done:  E(RB3LYP) =  -1142.72094005     A.U. after   11 cycles
 SCF Done:  E(RB3LYP) =  -1142.72104369     A.U. after   11 cycles
 SCF Done:  E(RB3LYP) =  -1142.72115271     A.U. after   10 cycles
 SCF Done:  E(RB3LYP) =  -1142.72115493     A.U. after    9 cycles
 SCF Done:  E(RB3LYP) =  -1142.72115624     A.U. after    8 cycles
 SCF Done:  E(RB3LYP) =  -1142.72115658     A.U. after    8 cycles
 SCF Done:  E(RB3LYP) =  -1142.72115670     A.U. after    7 cycles
 Optimization completed.
    -- Stationary point found.
 Normal termination of Gaussian 16 at Fri Dec 11 00:21:42 2020.

 --------------------------------------------------------------------
 #N Geom=AllCheck Guess=TCheck SCRF=Check GenChk RB3LYP/6-31G(d) Freq
 --------------------------------------------------------------------

 Structure from the checkpoint file:  "JID_6680.chk"
 ------------------------------
 CID_47232778_JID_6680_neutraal
 ------------------------------
 Charge =  0 Multiplicity = 1

 SCF Done:  E(RB3LYP) =  -1142.72115670     A.U. after    1 cycles

  Exact polarizability: 159.761   0.266 137.161  -0.321   2.057 101.623
 Approx polarizability: 228.672   3.496 230.277  -3.741   9.204 156.349

                      1                      2                      3
                      A                      A                      A
 Frequencies --     19.5300                40.3629                47.9751
 Red. masses --      4.8753                 6.1559                 5.2700
 Frc consts  --      0.0011                 0.0059                 0.0071
 IR Inten    --      0.0677                 0.6066                 1.6041

                      4                      5                      6
                      A                      A                      A
 Frequencies --     72.2390               102.5744               109.0643
 Red. masses --      7.7717                 3.2188                 1.2252
 Frc consts  --      0.0239                 0.0200                 0.0086
 IR Inten    --      2.3677                 0.9334                 0.0316

                      7                      8                      9
                      A                      A                      A
 Frequencies --    120.4628               161.8460               199.4833
 Red. masses --      5.1081                 3.6596                 4.6111
 Frc consts  --      0.0437                 0.0565                 0.1081
 IR Inten    --      3.1639                 2.8233                 3.1908

                     10                     11                     12
                      A                      A                      A
 Frequencies --    214.8459               229.3678               280.3420
 Red. masses --      1.5165                 1.7915                 3.8357
 Frc consts  --      0.0412                 0.0555                 0.1776
 IR Inten    --      0.9028                 6.3485                 1.1589

                     13                     14                     15
                      A                      A                      A
 Frequencies --    293.3714               321.2986               346.9845
 Red. masses --      4.1633                 3.6816                 3.6651
 Frc consts  --      0.2111                 0.2239                 0.2600
 IR Inten    --      1.8276                 5.1921                 2.9563

                     16                     17                     18
                      A                      A                      A
 Frequencies --    369.5363               384.6024               446.4739
 Red. masses --      5.2306                 4.8117                 4.2774
 Frc consts  --      0.4208                 0.4193                 0.5024
 IR Inten    --      2.2850                 7.9355                 4.9907

                     19                     20                     21
                      A                      A                      A
 Frequencies --    466.8654               486.3027               495.8537
 Red. masses --      3.2603                 6.2058                 6.0559
 Frc consts  --      0.4187                 0.8647                 0.8773
 IR Inten    --      6.2081                34.4540                28.8039

                     22                     23                     24
                      A                      A                      A
 Frequencies --    524.1732               542.4540               573.9685
 Red. masses --      4.6799                 4.4245                 4.5919
 Frc consts  --      0.7576                 0.7671                 0.8913
 IR Inten    --     33.8386                48.9275                 1.3759

                     25                     26                     27
                      A                      A                      A
 Frequencies --    601.3851               612.6294               663.4150
 Red. masses --      3.6087                 1.7351                 4.4419
 Frc consts  --      0.7690                 0.3837                 1.1518
 IR Inten    --      6.9595                56.7103                43.1981

                     28                     29                     30
                      A                      A                      A
 Frequencies --    736.2809               745.7442               762.4576
 Red. masses --      3.2337                 3.0636                 3.4975
 Frc consts  --      1.0328                 1.0038                 1.1980
 IR Inten    --      1.7272                53.8094                10.5152

                     31                     32                     33
                      A                      A                      A
 Frequencies --    788.8829               837.4321               840.0649
 Red. masses --      1.8030                 3.9284                 4.3617
 Frc consts  --      0.6611                 1.6232                 1.8136
 IR Inten    --     19.1066                20.7638                30.1714

                     34                     35                     36
                      A                      A                      A
 Frequencies --    881.8213               906.9322               949.1382
 Red. masses --      1.3390                 3.5937                 1.3612
 Frc consts  --      0.6135                 1.7416                 0.7225
 IR Inten    --      0.6186               150.7605                 2.9984

                     37                     38                     39
                      A                      A                      A
 Frequencies --    983.8586              1008.1120              1011.7306
 Red. masses --      1.2554                 1.3859                 1.3754
 Frc consts  --      0.7160                 0.8299                 0.8295
 IR Inten    --      0.0838                15.7280                44.1753

                     40                     41                     42
                      A                      A                      A
 Frequencies --   1017.8578              1040.5993              1067.1990
 Red. masses --      1.5697                 2.7681                 3.0523
 Frc consts  --      0.9581                 1.7660                 2.0481
 IR Inten    --      2.2692                28.8157                42.8389

                     43                     44                     45
                      A                      A                      A
 Frequencies --   1077.5414              1078.8042              1136.0465
 Red. masses --      1.8668                 1.8486                 8.9815
 Frc consts  --      1.2771                 1.2676                 6.8295
 IR Inten    --      9.9025                 7.4318               260.2929

                     46                     47                     48
                      A                      A                      A
 Frequencies --   1144.2896              1194.5592              1211.8871
 Red. masses --      1.8747                 1.0980                 2.4923
 Frc consts  --      1.4463                 0.9232                 2.1567
 IR Inten    --     21.1889                 0.1248                70.6145

                     49                     50                     51
                      A                      A                      A
 Frequencies --   1249.2200              1288.9833              1315.6660
 Red. masses --      2.4008                 3.1256                 1.5078
 Frc consts  --      2.2074                 3.0597                 1.5377
 IR Inten    --     58.6256                88.1137                 0.5851

                     52                     53                     54
                      A                      A                      A
 Frequencies --   1328.4686              1341.3950              1352.3194
 Red. masses --      1.7520                 2.5747                 6.6766
 Frc consts  --      1.8217                 2.7295                 7.1939
 IR Inten    --     52.2935               156.3826                 0.1862

                     55                     56                     57
                      A                      A                      A
 Frequencies --   1377.2609              1394.2239              1410.3069
 Red. masses --      1.2824                 1.5922                 1.4972
 Frc consts  --      1.4332                 1.8235                 1.7545
 IR Inten    --     49.0854               115.3234                58.8853

                     58                     59                     60
                      A                      A                      A
 Frequencies --   1446.4668              1477.5897              1489.0719
 Red. masses --      1.2442                 1.0650                 1.4476
 Frc consts  --      1.5338                 1.3699                 1.8911
 IR Inten    --      0.8173                 1.5714                11.8563

                     61                     62                     63
                      A                      A                      A
 Frequencies --   1495.7380              1496.5943              1511.5150
 Red. masses --      1.2263                 1.0920                 1.0527
 Frc consts  --      1.6164                 1.4411                 1.4171
 IR Inten    --      6.6152                11.1154                 8.1002

                     64                     65                     66
                      A                      A                      A
 Frequencies --   1526.1079              1545.3025              1644.4095
 Red. masses --      1.3365                 2.1955                 5.7975
 Frc consts  --      1.8340                 3.0889                 9.2366
 IR Inten    --      5.5727                66.4465                10.5194

                     67                     68                     69
                      A                      A                      A
 Frequencies --   1664.1667              1818.6231              3051.3236
 Red. masses --      6.1959                 9.9547                 1.0398
 Frc consts  --     10.1099                19.3984                 5.7041
 IR Inten    --      5.0607               253.7327                21.2150

                     70                     71                     72
                      A                      A                      A
 Frequencies --   3091.2030              3095.4015              3107.4379
 Red. masses --      1.0583                 1.0303                 1.0960
 Frc consts  --      5.9583                 5.8160                 6.2355
 IR Inten    --     12.3398                 2.6694                17.5533

                     73                     74                     75
                      A                      A                      A
 Frequencies --   3138.3528              3156.4983              3183.7442
 Red. masses --      1.1031                 1.1075                 1.0870
 Frc consts  --      6.4015                 6.5013                 6.4916
 IR Inten    --     16.8262                 4.5869                 7.0531

                     76                     77                     78
                      A                      A                      A
 Frequencies --   3190.7828              3196.1047              3210.5371
 Red. masses --      1.1062                 1.0891                 1.0943
 Frc consts  --      6.6358                 6.5549                 6.6456
 IR Inten    --      0.2874                10.9188                26.4578

                     79                     80                     81
                      A                      A                      A
 Frequencies --   3223.4206              3226.9112              3545.4543
 Red. masses --      1.0949                 1.1067                 1.0758
 Frc consts  --      6.7031                 6.7900                 7.9677
 IR Inten    --      5.6416                10.3344                65.5954

 - Thermochemistry -
 -------------------
 Temperature   298.150 Kelvin.  Pressure   1.00000 Atm.
 Atom     1 has atomic number  6 and mass  12.00000

 Molecular mass:   243.05653 amu.
 Principal axes and moments of inertia in atomic units:
                           1         2         3
     Eigenvalues --  2039.402576358.455706428.74338
           X            0.99995   0.01000  -0.00215
           Y           -0.01022   0.98673  -0.16206
           Z            0.00050   0.16208   0.98678
 This molecule is an asymmetric top.
 Rotational symmetry number  1.
 Warning -- assumption of classical behavior for rotation
           may cause significant error
 Rotational temperatures (Kelvin)      0.04247     0.01362     0.01347
 Rotational constants (GHZ):           0.88494     0.28383     0.28073
 Zero-point vibrational energy     596573.2 (Joules/Mol)
                                  142.58441 (Kcal/Mol)
 Warning -- explicit consideration of  26 degrees of freedom as
           vibrations may cause significant error
 Vibrational temperatures:     28.10    58.07    69.03   103.94   147.58
          (Kelvin)            156.92   173.32   232.86   287.01   309.12
                              330.01   403.35   422.10   462.28   499.23
                              531.68   553.36   642.38   671.72   699.68
                              713.42   754.17   780.47   825.81   865.26
                              881.44   954.51  1059.34  1072.96  1097.01
                             1135.03  1204.88  1208.67  1268.74  1304.87
                             1365.60  1415.55  1450.45  1455.65  1464.47
                             1497.19  1535.46  1550.34  1552.16  1634.52
                             1646.38  1718.70  1743.64  1797.35  1854.56
                             1892.95  1911.37  1929.97  1945.69  1981.57
                             2005.98  2029.12  2081.14  2125.92  2142.44
                             2152.03  2153.27  2174.73  2195.73  2223.35
                             2365.94  2394.36  2616.59  4390.17  4447.55
                             4453.59  4470.91  4515.39  4541.50  4580.70
                             4590.82  4598.48  4619.25  4637.78  4642.81
                             5101.12

 Zero-point correction=                           0.227223 (Hartree/Particle)
 Thermal correction to Energy=                    0.243239
 Thermal correction to Enthalpy=                  0.244183
 Thermal correction to Gibbs Free Energy=         0.182095
 Sum of electronic and zero-point Energies=          -1142.493934
 Sum of electronic and thermal Energies=             -1142.477918
 Sum of electronic and thermal Enthalpies=           -1142.476974
 Sum of electronic and thermal Free Energies=        -1142.539061

                     E (Thermal)             CV                S
                      KCal/Mol        Cal/Mol-Kelvin    Cal/Mol-Kelvin
 Total                  152.635             59.341            130.674
 Electronic               0.000              0.000              0.000
 Translational            0.889              2.981             42.365
 Rotational               0.889              2.981             32.788
 Vibrational            150.857             53.380             55.520
 Vibration     1          0.593              1.986              6.681
 Vibration     2          0.594              1.981              5.241
 Vibration     3          0.595              1.978              4.899
 Vibration     4          0.598              1.967              4.091
 Vibration     5          0.605              1.947              3.405
 Vibration     6          0.606              1.942              3.286
 Vibration     7          0.609              1.932              3.093
 Vibration     8          0.622              1.889              2.528
 Vibration     9          0.638              1.841              2.138
 Vibration    10          0.645              1.818              2.002
 Vibration    11          0.652              1.796              1.884
 Vibration    12          0.680              1.710              1.532
 Vibration    13          0.688              1.686              1.454
 Vibration    14          0.707              1.633              1.303
 Vibration    15          0.725              1.581              1.180
 Vibration    16          0.742              1.535              1.082
 Vibration    17          0.754              1.503              1.021
 Vibration    18          0.806              1.369              0.807
 Vibration    19          0.824              1.324              0.746
 Vibration    20          0.842              1.280              0.693
 Vibration    21          0.851              1.259              0.669
 Vibration    22          0.879              1.196              0.600
 Vibration    23          0.898              1.156              0.560
 Vibration    24          0.930              1.088              0.497
 Vibration    25          0.960              1.029              0.447
 Vibration    26          0.972              1.005              0.428

                           ! Non-Optimized Parameters !
 Normal termination of Gaussian 16 at Fri Dec 11 00:30:50 2020.

 ----------------------------------------------------------------------
 # B3LYP/6-311++G(d,p) empiricaldispersion=gd3bj scf=xqc pop=npa geom=c
 heck
 ----------------------------------------------------------------------

 --------------------------------------
 CID_47232778_JID_6680_Energie_neutraal
 --------------------------------------
 Structure from the checkpoint file:  "JID_6680.chk"
 Charge =  0 Multiplicity = 1

 SCF Done:  E(RB3LYP) =  -1142.96389884     A.U. after   15 cycles
 Normal termination of Gaussian 16 at Fri Dec 11 00:34:24 2020.

 ----------------------------------------------------------------------
 # B3LYP/6-311++G(d,p) empiricaldispersion=gd3bj scf=xqc pop=npa geom=c
 heck
 ----------------------------------------------------------------------

 ------------------------------------
 CID_47232778_JID_6680_Energie_kation
 ------------------------------------
 Structure from the checkpoint file:  "JID_6680.chk"
 Charge =  1 Multiplicity = 2

 SCF Done:  E(UB3LYP) =  -1142.63628753     A.U. after   27 cycles
 Normal termination of Gaussian 16 at Fri Dec 11 00:43:09 2020.
 Gaussian 16:  ES64L-G16RevA.03 25-Dec-2016

 ----------------------------------------------------------------------
 # B3LYP/6-311++G(d,p) empiricaldispersion=gd3bj scf=xqc pop=npa geom=c
 heck
 ----------------------------------------------------------------------

 -----------------------------------
 CID_47232778_JID_6680_Energie_anion
 -----------------------------------
 Structure from the checkpoint file:  "JID_6680.chk"
 Charge = -1 Multiplicity = 2

                         Standard orientation:
 ---------------------------------------------------------------------
 Center     Atomic      Atomic             Coordinates (Angstroms)
 Number     Number       Type             X           Y           Z
 ---------------------------------------------------------------------
      1          6           0       -2.854469   -2.250505   -0.473105
      2          6           0       -2.800115   -0.751376   -0.330031
      3          6           0       -3.955455    0.036843   -0.338981
      4          6           0       -3.890663    1.424693   -0.206957
      5          6           0       -2.654339    2.053819   -0.069158
      6          6           0       -1.485988    1.290966   -0.063493
      7          6           0       -1.569562   -0.094317   -0.189104
      8          8           0       -0.409111   -0.865222   -0.231570
      9          6           0        0.131437   -1.198045    1.045448
     10          6           0        0.944993   -0.066218    1.664415
     11          8           0        0.827174    0.264758    2.826023
     12          7           0        1.832259    0.631318    0.828215
     13         16           0        2.703352    0.038588   -0.531511
     14          8           0        3.962279    0.779904   -0.478425
     15          8           0        2.668567   -1.421787   -0.514767
     16          6           0        1.748964    0.621298   -1.934023
     17          1           0       -2.527620   -2.755448    0.444367
     18          1           0       -3.873080   -2.583206   -0.691692
     19          1           0       -2.193725   -2.596187   -1.274612
     20          1           0       -4.920685   -0.450260   -0.451675
     21          1           0       -4.804278    2.011696   -0.215602
     22          1           0       -2.594534    3.133460    0.031372
     23          1           0       -0.513006    1.759437    0.037474
     24          1           0       -0.657423   -1.446314    1.761013
     25          1           0        0.781979   -2.061065    0.887427
     26          1           0        2.391595    1.313773    1.336450
     27          1           0        0.767111    0.153874   -1.889705
     28          1           0        1.686341    1.708923   -1.882343
     29          1           0        2.297795    0.310504   -2.825960
 ---------------------------------------------------------------------

 SCF Done:  E(UB3LYP) =  -1142.95680671     A.U. after   33 cycles
 SCF Done:  E(UB3LYP) =  -1142.95680671     a.u. after    1 cycles

 The electronic state is 2-A.
 Alpha  occ. eigenvalues --  -88.97757 -19.04785 -19.03060 -19.03035 -18.99820
 Alpha  occ. eigenvalues --  -14.25864 -10.17013 -10.13072 -10.13069 -10.11592
 Alpha  occ. eigenvalues --  -10.08835 -10.08070 -10.07874 -10.07737 -10.07725
 Alpha  occ. eigenvalues --  -10.07177  -8.03945  -6.00271  -6.00170  -5.99982
 Alpha  occ. eigenvalues --   -1.03473  -0.96712  -0.94749  -0.92602  -0.82330
 Alpha  occ. eigenvalues --   -0.76292  -0.68735  -0.68140  -0.66175  -0.62180
 Alpha  occ. eigenvalues --   -0.58994  -0.56001  -0.51418  -0.50375  -0.48410
 Alpha  occ. eigenvalues --   -0.44597  -0.43706  -0.40365  -0.39585  -0.38968
 Alpha  occ. eigenvalues --   -0.38280  -0.38020  -0.36334  -0.35199  -0.34243
 Alpha  occ. eigenvalues --   -0.34067  -0.33509  -0.32263  -0.31959  -0.30210
 Alpha  occ. eigenvalues --   -0.29739  -0.28166  -0.26957  -0.26323  -0.25963
 Alpha  occ. eigenvalues --   -0.24633  -0.24009  -0.23032  -0.22379  -0.20679
 Alpha  occ. eigenvalues --   -0.19670  -0.15895  -0.15862  -0.14802   0.04300
 Alpha virt. eigenvalues --    0.06060   0.06387   0.07020   0.07974   0.08373
 Alpha virt. eigenvalues --    0.08555   0.09126   0.09575   0.10629   0.10770
 Alpha virt. eigenvalues --    0.11236   0.11662   0.12438   0.12956   0.13765

  Beta  occ. eigenvalues --  -88.97732 -19.04754 -19.03026 -19.02999 -18.99583
  Beta  occ. eigenvalues --  -14.25827 -10.16753 -10.13074 -10.13067 -10.11562
  Beta  occ. eigenvalues --  -10.08829 -10.08056 -10.07868 -10.07694 -10.07683
  Beta  occ. eigenvalues --  -10.07148  -8.03912  -6.00242  -6.00150  -5.99953
  Beta  occ. eigenvalues --   -1.03356  -0.96599  -0.94368  -0.92497  -0.82171
  Beta  occ. eigenvalues --   -0.76238  -0.68667  -0.68090  -0.66076  -0.62003
  Beta  occ. eigenvalues --   -0.58901  -0.55825  -0.51305  -0.50235  -0.48309
  Beta  occ. eigenvalues --   -0.44529  -0.43615  -0.40250  -0.39475  -0.38816
  Beta  occ. eigenvalues --   -0.38220  -0.37902  -0.36155  -0.35131  -0.34098
  Beta  occ. eigenvalues --   -0.33951  -0.33339  -0.32171  -0.31884  -0.29768
  Beta  occ. eigenvalues --   -0.29619  -0.27891  -0.26830  -0.26250  -0.25866
  Beta  occ. eigenvalues --   -0.24542  -0.23970  -0.22933  -0.22328  -0.20561
  Beta  occ. eigenvalues --   -0.19152  -0.15718  -0.15667  -0.14724
  Beta virt. eigenvalues --    0.06378   0.07120   0.07391   0.07802   0.08148
  Beta virt. eigenvalues --    0.08786   0.09285   0.09496   0.09983   0.10891
  Beta virt. eigenvalues --    0.11137   0.11512   0.11845   0.12527   0.13052

 Mulliken charges and spin densities:
               1          2
     1  C    1.639909  -2.126350
     2  C   -1.710471   2.452476
     3  C    0.810938  -1.533877
     4  C    0.422701  -0.823738
     5  C    0.259773  -0.399083
     6  C    0.616112  -0.591594
     7  C   -1.506994   1.543930
     8  O   -0.063796   0.005474
     9  C   -0.028014  -0.323118
    10  C   -0.062269   0.157949
    11  O   -0.296938   0.073937
    12  N   -0.555248   0.043852
    13  S    0.491464   0.012913
    14  O   -0.187885   0.020146
    15  O   -0.198662   0.018322
    16  C   -0.123424  -0.614520
    17  H    0.021241   0.130883
    18  H   -0.434012   0.592808
    19  H   -0.020784   0.202030
    20  H   -0.343687   0.480504
    21  H   -0.384187   0.540607
    22  H   -0.163429   0.325767
    23  H    0.354815  -0.206102
    24  H    0.192399  -0.021085
    25  H    0.089879   0.156164
    26  H    0.302601   0.072051
    27  H    0.109867   0.158252
    28  H   -0.140249   0.365341
    29  H   -0.091647   0.286059
 Sum of Mulliken charges =  -1.00000   1.00000

 Dipole moment (field-independent basis, Debye):
    X=              2.0890    Y=              1.1072    Z=             -0.1693  Tot=              2.3704
 Quadrupole moment (field-independent basis, Debye-Ang):
   XX=           -183.1246   YY=           -134.2277   ZZ=           -136.9206
   XY=              0.0790   XZ=             -1.6672   YZ=             -1.3947

 Summary of Natural Population Analysis:

                                       Natural Population
                Natural  -----------------------------------------------
    Atom  No    Charge         Core      Valence    Rydberg      Total
 -----------------------------------------------------------------------
      C    1   -0.29370      0.99963     2.28794    0.00612     3.29370
      C    2   -0.03001      0.99946     2.02083    0.00971     3.03001
      C    3   -0.09161      0.99952     2.08243    0.00966     3.09161
      C    4   -0.10561      0.99956     2.09601    0.01004     3.10561
      C    5   -0.09891      0.99957     2.08941    0.00993     3.09891
      C    6   -0.11409      0.99950     2.10525    0.00934     3.11409
      C    7    0.15143      0.99930     1.83488    0.01440     2.84857
      O    8   -0.29957      0.99987     3.28771    0.01199     4.29957
      C    9   -0.05357      0.99951     2.04189    0.01217     3.05357
      C   10    0.36472      0.99970     1.61234    0.02324     2.63528
      O   11   -0.27674      0.99987     3.27117    0.00570     4.27674
      N   12   -0.44737      0.99968     2.93587    0.01182     3.94737
      S   13    1.10158      4.99935     1.80078    0.09829     6.89842
      O   14   -0.46419      0.99991     3.45872    0.00556     4.46419
      O   15   -0.45516      0.99990     3.44941    0.00585     4.45516
      C   16   -0.39096      0.99960     2.38041    0.01095     3.39096
      H   17    0.10463      0.00000     0.39421    0.00116     0.39537
      H   18    0.10193      0.00000     0.39697    0.00110     0.39807
      H   19    0.11001      0.00000     0.38879    0.00121     0.38999
      H   20    0.10010      0.00000     0.39868    0.00122     0.39990
      H   21    0.10059      0.00000     0.39834    0.00107     0.39941
      H   22    0.09990      0.00000     0.39929    0.00081     0.40010
      H   23    0.10677      0.00000     0.39113    0.00211     0.39323
      H   24    0.09639      0.00000     0.40252    0.00109     0.40361
      H   25    0.11353      0.00000     0.38500    0.00146     0.38647
      H   26    0.20701      0.00000     0.29067    0.00232     0.29299
      H   27    0.13101      0.00000     0.36731    0.00168     0.36899
      H   28    0.11546      0.00000     0.38333    0.00121     0.38454
      H   29    0.11641      0.00000     0.38257    0.00102     0.38359
 =======================================================================
   * Total *   -0.00000     19.99393    43.73385    0.27222    64.00000

 Normal termination of Gaussian 16 at Fri Dec 11 00:54:02 2020.
