 Gaussian 16, Revision A.03,

 -----------------------------------------------------------
 # opt freq B3LYP/6-31G(d) empiricaldispersion=gd3bj scf=xqc
 -----------------------------------------------------------

 ------------------------------
 CID_71375885_JID_1766_neutraal
 ------------------------------
 Symbolic Z-matrix:
 Charge =  0 Multiplicity = 1

 SCF Done:  E(RB3LYP) =  -822.395548997     A.U. after   15 cycles
 SCF Done:  E(RB3LYP) =  -822.398211403     A.U. after   13 cycles
 SCF Done:  E(RB3LYP) =  -822.398133770     A.U. after   12 cycles
 SCF Done:  E(RB3LYP) =  -822.399304201     A.U. after   12 cycles
 SCF Done:  E(RB3LYP) =  -822.399640857     A.U. after   12 cycles
 SCF Done:  E(RB3LYP) =  -822.399759594     A.U. after   12 cycles
 SCF Done:  E(RB3LYP) =  -822.399813396     A.U. after   11 cycles
 SCF Done:  E(RB3LYP) =  -822.399831946     A.U. after   10 cycles
 SCF Done:  E(RB3LYP) =  -822.399837687     A.U. after   10 cycles
 SCF Done:  E(RB3LYP) =  -822.399840287     A.U. after   10 cycles
 SCF Done:  E(RB3LYP) =  -822.399840953     A.U. after    9 cycles
 SCF Done:  E(RB3LYP) =  -822.399841033     A.U. after    8 cycles
 Optimization completed.
    -- Stationary point found.
 Normal termination of Gaussian 16 at Tue Dec  8 21:02:51 2020.

 --------------------------------------------------------------------
 #N Geom=AllCheck Guess=TCheck SCRF=Check GenChk RB3LYP/6-31G(d) Freq
 --------------------------------------------------------------------

 Structure from the checkpoint file:  "JID_1766.chk"
 ------------------------------
 CID_71375885_JID_1766_neutraal
 ------------------------------
 Charge =  0 Multiplicity = 1

 SCF Done:  E(RB3LYP) =  -822.399841033     A.U. after    1 cycles

  Exact polarizability: 114.374 -10.271 121.017  -4.592 -11.634  83.826
 Approx polarizability: 158.487 -34.208 217.733 -10.668 -36.322 140.634

                      1                      2                      3
                      A                      A                      A
 Frequencies --     26.1568                51.6836                93.2935
 Red. masses --      4.4652                 5.0655                 3.8916
 Frc consts  --      0.0018                 0.0080                 0.0200
 IR Inten    --      1.9097                 0.8029                 3.0626

                      4                      5                      6
                      A                      A                      A
 Frequencies --    109.3118               166.9106               179.8055
 Red. masses --      1.8417                 4.1190                 2.9189
 Frc consts  --      0.0130                 0.0676                 0.0556
 IR Inten    --      0.6180                 0.5748                 0.3345

                      7                      8                      9
                      A                      A                      A
 Frequencies --    214.3125               267.0339               292.7655
 Red. masses --      1.3387                 4.0757                 5.1563
 Frc consts  --      0.0362                 0.1712                 0.2604
 IR Inten    --      0.8557                 5.6861                 0.5161

                     10                     11                     12
                      A                      A                      A
 Frequencies --    379.5220               458.6317               508.0653
 Red. masses --      2.5460                 4.6686                 4.6395
 Frc consts  --      0.2161                 0.5786                 0.7056
 IR Inten    --      0.3584                 0.7090                 3.0185

                     13                     14                     15
                      A                      A                      A
 Frequencies --    515.1463               562.5883               620.2842
 Red. masses --      4.1877                 3.8362                 3.3539
 Frc consts  --      0.6548                 0.7154                 0.7603
 IR Inten    --      4.2919                16.2602                11.8242

                     16                     17                     18
                      A                      A                      A
 Frequencies --    653.1790               685.6912               723.0677
 Red. masses --      5.6940                 1.2360                 2.3757
 Frc consts  --      1.4313                 0.3424                 0.7318
 IR Inten    --      4.1901                 1.6693                17.0245

                     19                     20                     21
                      A                      A                      A
 Frequencies --    780.2706               804.6341               836.9859
 Red. masses --      1.5079                 2.0177                 4.5670
 Frc consts  --      0.5409                 0.7697                 1.8850
 IR Inten    --     51.2695                 5.4216                 7.3450

                     22                     23                     24
                      A                      A                      A
 Frequencies --    866.7824               886.4571               908.2578
 Red. masses --      3.9008                 2.3388                 1.4669
 Frc consts  --      1.7267                 1.0828                 0.7130
 IR Inten    --     15.7890                 3.9466                 0.8071

                     25                     26                     27
                      A                      A                      A
 Frequencies --    952.1953               968.9060               978.1131
 Red. masses --      2.4994                 1.7696                 2.2938
 Frc consts  --      1.3352                 0.9788                 1.2929
 IR Inten    --      3.1538                19.2400                 6.9514

                     28                     29                     30
                      A                      A                      A
 Frequencies --   1018.1980              1079.1889              1121.3530
 Red. masses --      1.0892                 1.5777                 1.1699
 Frc consts  --      0.6653                 1.0826                 0.8667
 IR Inten    --     29.5147                 0.5830                 7.9122

                     31                     32                     33
                      A                      A                      A
 Frequencies --   1126.2629              1170.2775              1189.5809
 Red. masses --      1.9986                 1.3826                 1.5826
 Frc consts  --      1.4937                 1.1157                 1.3195
 IR Inten    --      6.1340                24.9732                 2.2553

                     34                     35                     36
                      A                      A                      A
 Frequencies --   1264.1593              1295.1025              1321.3498
 Red. masses --      1.6666                 1.3911                 1.5132
 Frc consts  --      1.5693                 1.3747                 1.5566
 IR Inten    --     28.4644                36.5488                 5.7849

                     37                     38                     39
                      A                      A                      A
 Frequencies --   1324.8176              1353.2665              1431.2815
 Red. masses --      2.2097                 1.2882                 2.8126
 Frc consts  --      2.2850                 1.3899                 3.3947
 IR Inten    --     85.4840                 0.3204                 2.5973

                     40                     41                     42
                      A                      A                      A
 Frequencies --   1438.2802              1478.1192              1505.6548
 Red. masses --      1.2556                 6.2588                 1.0861
 Frc consts  --      1.5304                 8.0568                 1.4507
 IR Inten    --      2.6189                 7.9822                10.6958

                     43                     44                     45
                      A                      A                      A
 Frequencies --   1506.2501              1512.9121              1604.1340
 Red. masses --      1.0546                 1.0642                 5.8767
 Frc consts  --      1.4097                 1.4352                 8.9097
 IR Inten    --      5.3289                14.0189                 4.7198

                     46                     47                     48
                      A                      A                      A
 Frequencies --   1724.2192              1764.8607              3037.2702
 Red. masses --      5.5563                10.3830                 1.0379
 Frc consts  --      9.7325                19.0544                 5.6411
 IR Inten    --     33.2760               216.9464                17.4648

                     49                     50                     51
                      A                      A                      A
 Frequencies --   3069.3193              3084.8648              3116.1899
 Red. masses --      1.0584                 1.0993                 1.1055
 Frc consts  --      5.8746                 6.1637                 6.3250
 IR Inten    --     15.3718                15.0771                 9.8610

                     52                     53                     54
                      A                      A                      A
 Frequencies --   3131.8158              3176.8025              3187.1353
 Red. masses --      1.1003                 1.0929                 1.0861
 Frc consts  --      6.3584                 6.4986                 6.5000
 IR Inten    --     11.5987                 3.8035                21.1223

                     55                     56                     57
                      A                      A                      A
 Frequencies --   3228.0302              3259.8678              3273.3719
 Red. masses --      1.0911                 1.0936                 1.0973
 Frc consts  --      6.6984                 6.8471                 6.9270
 IR Inten    --      0.4564                 1.3932                 0.5341

 - Thermochemistry -
 -------------------
 Temperature   298.150 Kelvin.  Pressure   1.00000 Atm.
 Atom     1 has atomic number  6 and mass  12.00000

 Molecular mass:   166.04524 amu.
 Principal axes and moments of inertia in atomic units:
                           1         2         3
     Eigenvalues --  1306.088362953.493673725.20504
           X            0.99834   0.05752   0.00022
           Y           -0.05752   0.99833   0.00471
           Z            0.00005  -0.00471   0.99999
 This molecule is an asymmetric top.
 Rotational symmetry number  1.
 Warning -- assumption of classical behavior for rotation
           may cause significant error
 Rotational temperatures (Kelvin)      0.06632     0.02933     0.02325
 Rotational constants (GHZ):           1.38179     0.61105     0.48447
 Zero-point vibrational energy     438335.6 (Joules/Mol)
                                  104.76472 (Kcal/Mol)
 Warning -- explicit consideration of  15 degrees of freedom as
           vibrations may cause significant error
 Vibrational temperatures:     37.63    74.36   134.23   157.28   240.15
          (Kelvin)            258.70   308.35   384.20   421.22   546.05
                              659.87   730.99   741.18   809.44   892.45
                              939.78   986.56  1040.33  1122.64  1157.69
                             1204.24  1247.11  1275.41  1306.78  1370.00
                             1394.04  1407.29  1464.96  1552.71  1613.38
                             1620.44  1683.77  1711.54  1818.84  1863.36
                             1901.13  1906.12  1947.05  2059.29  2069.36
                             2126.68  2166.30  2167.16  2176.74  2307.99
                             2480.77  2539.24  4369.95  4416.07  4438.43
                             4483.50  4505.98  4570.71  4585.58  4644.42
                             4690.22  4709.65

 Zero-point correction=                           0.166953 (Hartree/Particle)
 Thermal correction to Energy=                    0.178072
 Thermal correction to Enthalpy=                  0.179016
 Thermal correction to Gibbs Free Energy=         0.128270
 Sum of electronic and zero-point Energies=           -822.232888
 Sum of electronic and thermal Energies=              -822.221769
 Sum of electronic and thermal Enthalpies=            -822.220825
 Sum of electronic and thermal Free Energies=         -822.271571

                     E (Thermal)             CV                S
                      KCal/Mol        Cal/Mol-Kelvin    Cal/Mol-Kelvin
 Total                  111.742             40.430            106.804
 Electronic               0.000              0.000              0.000
 Translational            0.889              2.981             41.230
 Rotational               0.889              2.981             31.042
 Vibrational            109.964             34.468             34.533
 Vibration     1          0.593              1.985              6.101
 Vibration     2          0.596              1.977              4.752
 Vibration     3          0.602              1.954              3.590
 Vibration     4          0.606              1.942              3.281
 Vibration     5          0.624              1.883              2.470
 Vibration     6          0.629              1.867              2.330
 Vibration     7          0.644              1.819              2.007
 Vibration     8          0.672              1.734              1.615
 Vibration     9          0.688              1.687              1.458
 Vibration    10          0.750              1.514              1.041
 Vibration    11          0.817              1.342              0.770
 Vibration    12          0.863              1.232              0.638
 Vibration    13          0.870              1.216              0.621
 Vibration    14          0.918              1.112              0.519
 Vibration    15          0.980              0.989              0.416

 Optimization completed.
    -- Stationary point found.
 Normal termination of Gaussian 16 at Tue Dec  8 21:08:07 2020.

 ----------------------------------------------------------------------
 # B3LYP/6-311++G(d,p) empiricaldispersion=gd3bj scf=xqc pop=npa geom=c
 heck
 ----------------------------------------------------------------------

 --------------------------------------
 CID_71375885_JID_1766_Energie_neutraal
 --------------------------------------
 Structure from the checkpoint file:  "JID_1766.chk"
 Charge =  0 Multiplicity = 1

 SCF Done:  E(RB3LYP) =  -822.545764345     A.U. after   15 cycles
 Normal termination of Gaussian 16 at Tue Dec  8 21:13:20 2020.

 ----------------------------------------------------------------------
 # B3LYP/6-311++G(d,p) empiricaldispersion=gd3bj scf=xqc pop=npa geom=c
 heck
 ----------------------------------------------------------------------

 ------------------------------------
 CID_71375885_JID_1766_Energie_kation
 ------------------------------------
 Structure from the checkpoint file:  "JID_1766.chk"
 Charge =  1 Multiplicity = 2

 SCF Done:  E(UB3LYP) =  -822.237594361     A.U. after   26 cycles
 Normal termination of Gaussian 16 at Tue Dec  8 21:18:21 2020.
 Gaussian 16:  ES64L-G16RevA.03 25-Dec-2016

 ----------------------------------------------------------------------
 # B3LYP/6-311++G(d,p) empiricaldispersion=gd3bj scf=xqc pop=npa geom=c
 heck
 ----------------------------------------------------------------------

 -----------------------------------
 CID_71375885_JID_1766_Energie_anion
 -----------------------------------
 Structure from the checkpoint file:  "JID_1766.chk"
 Charge = -1 Multiplicity = 2

                         Standard orientation:
 ---------------------------------------------------------------------
 Center     Atomic      Atomic             Coordinates (Angstroms)
 Number     Number       Type             X           Y           Z
 ---------------------------------------------------------------------
      1          6           0        2.936409    2.357677    0.402798
      2          6           0        2.153680    1.175729   -0.074641
      3          6           0        2.375207   -0.091141    0.305244
      4          6           0        1.595805   -1.266810   -0.134494
      5          8           0        1.824418   -2.370118    0.342552
      6          6           0        0.469107   -1.096197   -1.160191
      7          6           0       -0.768389   -0.515192   -0.519451
      8          6           0       -1.456302    0.573163   -0.986219
      9         16           0       -2.823880    0.959990    0.011551
     10          6           0       -2.464173   -0.361706    1.079869
     11          6           0       -1.355929   -1.049110    0.676048
     12          1           0        3.732321    2.065296    1.094092
     13          1           0        2.279856    3.075854    0.911659
     14          1           0        3.388758    2.893333   -0.442448
     15          1           0        1.338677    1.390761   -0.762860
     16          1           0        3.167265   -0.326916    1.013803
     17          1           0        0.792125   -0.465169   -1.994439
     18          1           0        0.262171   -2.097504   -1.551480
     19          1           0       -1.243318    1.164000   -1.867253
     20          1           0       -3.092304   -0.549071    1.939931
     21          1           0       -0.951308   -1.907956    1.199984
 ---------------------------------------------------------------------

 SCF Done:  E(UB3LYP) =  -822.549234335     A.U. after   33 cycles
 SCF Done:  E(UB3LYP) =  -822.549234335     a.u. after    1 cycles

 The electronic state is 2-A.
 Alpha  occ. eigenvalues --  -88.74689 -18.90868 -10.07002 -10.06022 -10.05561
 Alpha  occ. eigenvalues --  -10.05054 -10.04569 -10.03711 -10.02911 -10.00536
 Alpha  occ. eigenvalues --   -9.99860  -7.83334  -5.79620  -5.79267  -5.78943
 Alpha  occ. eigenvalues --   -0.85050  -0.75212  -0.65023  -0.63297  -0.60022
 Alpha  occ. eigenvalues --   -0.56551  -0.53664  -0.44420  -0.43136  -0.41389
 Alpha  occ. eigenvalues --   -0.37775  -0.36088  -0.31792  -0.29503  -0.28608
 Alpha  occ. eigenvalues --   -0.28332  -0.27206  -0.26283  -0.25357  -0.24887
 Alpha  occ. eigenvalues --   -0.23597  -0.22942  -0.21457  -0.20319  -0.19753
 Alpha  occ. eigenvalues --   -0.12547  -0.11618  -0.10562  -0.07100   0.05589
 Alpha virt. eigenvalues --    0.08630   0.08991   0.09589   0.10454   0.11227
 Alpha virt. eigenvalues --    0.11871   0.12458   0.12749   0.13376   0.13633
 Alpha virt. eigenvalues --    0.14765   0.15311   0.15408   0.15940   0.16379

  Beta  occ. eigenvalues --  -88.74669 -18.90307 -10.06912 -10.05927 -10.05238
  Beta  occ. eigenvalues --  -10.05016 -10.04584 -10.03748 -10.02939 -10.00069
  Beta  occ. eigenvalues --   -9.99878  -7.83316  -5.79611  -5.79259  -5.78874
  Beta  occ. eigenvalues --   -0.84045  -0.75101  -0.64547  -0.63011  -0.59897
  Beta  occ. eigenvalues --   -0.56222  -0.53553  -0.44217  -0.42231  -0.41265
  Beta  occ. eigenvalues --   -0.37463  -0.35858  -0.31559  -0.29316  -0.28312
  Beta  occ. eigenvalues --   -0.28054  -0.26877  -0.26051  -0.25102  -0.24656
  Beta  occ. eigenvalues --   -0.23286  -0.22512  -0.21095  -0.20095  -0.17836
  Beta  occ. eigenvalues --   -0.12187  -0.10797  -0.08843  -0.06624
  Beta virt. eigenvalues --    0.08566   0.08982   0.09641   0.10535   0.11231
  Beta virt. eigenvalues --    0.11820   0.12343   0.12620   0.12903   0.13542
  Beta virt. eigenvalues --    0.14003   0.14787   0.15318   0.15365   0.15920

 Mulliken charges and spin densities:
               1          2
     1  C   -0.588191  -0.153768
     2  C   -0.130579   0.399951
     3  C    0.088083  -0.041967
     4  C   -0.373974   0.288426
     5  O   -0.403812   0.184565
     6  C    0.077819  -0.311847
     7  C   -0.063835   0.071016
     8  C    0.483038  -0.043517
     9  S   -0.379448  -0.042691
    10  C   -0.294404   0.038798
    11  C   -0.415891   0.131808
    12  H    0.118447   0.001244
    13  H    0.070716   0.058385
    14  H    0.108532   0.011741
    15  H    0.078310  -0.040772
    16  H    0.118764  -0.000315
    17  H   -0.025079   0.145820
    18  H    0.108706   0.080418
    19  H    0.036556   0.212208
    20  H    0.200405   0.020170
    21  H    0.185838  -0.009674
 Sum of Mulliken charges =  -1.00000   1.00000

 Dipole moment (field-independent basis, Debye):
    X=             -3.7581    Y=              3.2026    Z=              0.1753  Tot=              4.9408
 Quadrupole moment (field-independent basis, Debye-Ang):
   XX=           -105.0555   YY=            -99.7082   ZZ=            -83.7724
   XY=              8.2232   XZ=             -3.4073   YZ=             -0.3155

 Summary of Natural Population Analysis:

                                       Natural Population
                Natural  -----------------------------------------------
    Atom  No    Charge         Core      Valence    Rydberg      Total
 -----------------------------------------------------------------------
      C    1   -0.30252      0.99967     2.29836    0.00449     3.30252
      C    2    0.01653      0.99956     1.97627    0.00764     2.98347
      C    3   -0.16064      0.99948     2.15086    0.01029     3.16064
      C    4    0.29787      0.99964     1.68052    0.02197     2.70213
      O    5   -0.25782      0.99988     3.25123    0.00671     4.25782
      C    6   -0.23800      0.99956     2.22781    0.01063     3.23800
      C    7   -0.02751      0.99948     2.01592    0.01212     3.02751
      C    8   -0.18685      0.99945     2.17438    0.01302     3.18685
      S    9    0.17856      4.99946     2.79821    0.02377     7.82144
      C   10   -0.18558      0.99955     2.17557    0.01046     3.18558
      C   11   -0.12353      0.99949     2.11561    0.00843     3.12353
      H   12    0.09278      0.00000     0.40613    0.00109     0.40722
      H   13    0.09833      0.00000     0.40012    0.00155     0.40167
      H   14    0.09584      0.00000     0.40276    0.00140     0.40416
      H   15    0.08170      0.00000     0.41629    0.00201     0.41830
      H   16    0.08817      0.00000     0.41010    0.00173     0.41183
      H   17    0.10358      0.00000     0.39466    0.00175     0.39642
      H   18    0.10921      0.00000     0.38906    0.00173     0.39079
      H   19    0.10543      0.00000     0.39325    0.00132     0.39457
      H   20    0.10120      0.00000     0.39795    0.00086     0.39880
      H   21    0.11325      0.00000     0.38554    0.00121     0.38675
 =======================================================================
   * Total *    0.00000     14.99521    28.86060    0.14419    44.00000

 Normal termination of Gaussian 16 at Tue Dec  8 21:27:30 2020.
