 Gaussian 16, Revision A.03,

 -----------------------------------------------------------
 # opt freq B3LYP/6-31G(d) empiricaldispersion=gd3bj scf=xqc
 -----------------------------------------------------------

 -------------------------------
 CID_130458092_JID_5757_neutraal
 -------------------------------
 Symbolic Z-matrix:
 Charge =  0 Multiplicity = 1

 SCF Done:  E(RB3LYP) =  -692.329428779     A.U. after   17 cycles
 SCF Done:  E(RB3LYP) =  -692.335757169     A.U. after   14 cycles
 SCF Done:  E(RB3LYP) =  -692.333621985     A.U. after   14 cycles
 SCF Done:  E(RB3LYP) =  -692.335765730     A.U. after   14 cycles
 SCF Done:  E(RB3LYP) =  -692.337662574     A.U. after   13 cycles
 SCF Done:  E(RB3LYP) =  -692.337979110     A.U. after   13 cycles
 SCF Done:  E(RB3LYP) =  -692.338080600     A.U. after   13 cycles
 SCF Done:  E(RB3LYP) =  -692.338152000     A.U. after   12 cycles
 SCF Done:  E(RB3LYP) =  -692.338187749     A.U. after   11 cycles
 SCF Done:  E(RB3LYP) =  -692.338202912     A.U. after   10 cycles
 SCF Done:  E(RB3LYP) =  -692.338219498     A.U. after    9 cycles
 SCF Done:  E(RB3LYP) =  -692.338222608     A.U. after    9 cycles
 SCF Done:  E(RB3LYP) =  -692.338224707     A.U. after    8 cycles
 SCF Done:  E(RB3LYP) =  -692.338225047     A.U. after    8 cycles
 SCF Done:  E(RB3LYP) =  -692.338225169     A.U. after    7 cycles
 Optimization completed.
    -- Stationary point found.
 Normal termination of Gaussian 16 at Thu Dec 10 16:42:15 2020.

 --------------------------------------------------------------------
 #N Geom=AllCheck Guess=TCheck SCRF=Check GenChk RB3LYP/6-31G(d) Freq
 --------------------------------------------------------------------

 Structure from the checkpoint file:  "JID_5757.chk"
 -------------------------------
 CID_130458092_JID_5757_neutraal
 -------------------------------
 Charge =  0 Multiplicity = 1

 SCF Done:  E(RB3LYP) =  -692.338225169     A.U. after    1 cycles

  Exact polarizability: 148.666   0.582 135.974   3.704  -0.065 114.888
 Approx polarizability: 215.042   5.460 178.762   1.341   1.756 184.408

                      1                      2                      3
                      A                      A                      A
 Frequencies --     41.7011                51.1362                68.1805
 Red. masses --      5.8202                 4.3975                 4.1245
 Frc consts  --      0.0060                 0.0068                 0.0113
 IR Inten    --      1.3359                 0.6073                 0.4348

                      4                      5                      6
                      A                      A                      A
 Frequencies --    121.7672               160.5972               181.3722
 Red. masses --      2.4513                 3.1443                 3.1174
 Frc consts  --      0.0214                 0.0478                 0.0604
 IR Inten    --      0.5507                 1.2219                 2.1575

                      7                      8                      9
                      A                      A                      A
 Frequencies --    213.3712               230.8796               235.1068
 Red. masses --      2.9600                 1.2482                 2.7060
 Frc consts  --      0.0794                 0.0392                 0.0881
 IR Inten    --      2.8579                 0.6952                 0.3370

                     10                     11                     12
                      A                      A                      A
 Frequencies --    251.4882               265.4271               272.9715
 Red. masses --      2.3166                 2.3682                 2.4787
 Frc consts  --      0.0863                 0.0983                 0.1088
 IR Inten    --      2.1509                 0.2035                 1.5381

                     13                     14                     15
                      A                      A                      A
 Frequencies --    279.4022               300.1634               337.4578
 Red. masses --      2.2115                 2.0922                 3.3263
 Frc consts  --      0.1017                 0.1111                 0.2232
 IR Inten    --      3.7430                 0.7027                 0.7782

                     16                     17                     18
                      A                      A                      A
 Frequencies --    342.5607               359.6225               380.5871
 Red. masses --      2.0859                 2.5805                 2.7345
 Frc consts  --      0.1442                 0.1966                 0.2334
 IR Inten    --      0.3205                 2.0699                 2.1353

                     19                     20                     21
                      A                      A                      A
 Frequencies --    420.5903               468.3051               484.1661
 Red. masses --      2.8855                 2.1316                 2.6117
 Frc consts  --      0.3007                 0.2754                 0.3607
 IR Inten    --      1.2734                 0.2117                 0.0267

                     22                     23                     24
                      A                      A                      A
 Frequencies --    520.7209               563.1143               580.0028
 Red. masses --      3.0863                 3.0957                 3.1119
 Frc consts  --      0.4931                 0.5784                 0.6168
 IR Inten    --      1.9816                 4.2380                 5.7077

                     25                     26                     27
                      A                      A                      A
 Frequencies --    669.1704               714.5992               763.0573
 Red. masses --      1.2964                 2.5996                 1.6162
 Frc consts  --      0.3420                 0.7821                 0.5545
 IR Inten    --     66.6120                 3.9190                 1.0951

                     28                     29                     30
                      A                      A                      A
 Frequencies --    770.8534               792.3618               804.4854
 Red. masses --      1.4737                 2.2496                 2.1439
 Frc consts  --      0.5160                 0.8321                 0.8175
 IR Inten    --      3.3060                 2.0855                 3.8996

                     31                     32                     33
                      A                      A                      A
 Frequencies --    836.0883               867.7729               879.5124
 Red. masses --      3.4446                 5.2511                 1.9712
 Frc consts  --      1.4187                 2.3298                 0.8984
 IR Inten    --      3.3681                18.3986                 6.3489

                     34                     35                     36
                      A                      A                      A
 Frequencies --    900.8916               922.0580               932.8683
 Red. masses --      2.0833                 2.0507                 1.6888
 Frc consts  --      0.9962                 1.0272                 0.8659
 IR Inten    --      0.2942                 4.7355                 2.7283

                     37                     38                     39
                      A                      A                      A
 Frequencies --    961.5813               974.1194              1004.2016
 Red. masses --      2.1067                 1.8633                 1.7715
 Frc consts  --      1.1477                 1.0417                 1.0525
 IR Inten    --      4.5219                 5.4596                 0.4441

                     40                     41                     42
                      A                      A                      A
 Frequencies --   1024.6862              1040.2196              1066.8976
 Red. masses --      2.0152                 1.7605                 2.3006
 Frc consts  --      1.2467                 1.1224                 1.5429
 IR Inten    --      7.9773                 1.3062                 0.6470

                     43                     44                     45
                      A                      A                      A
 Frequencies --   1072.1987              1095.3965              1102.0475
 Red. masses --      2.4151                 2.1259                 2.4930
 Frc consts  --      1.6358                 1.5029                 1.7839
 IR Inten    --      4.4331                 0.5176                 0.0512

                     46                     47                     48
                      A                      A                      A
 Frequencies --   1122.4584              1145.7252              1154.8361
 Red. masses --      1.8401                 1.6498                 2.6031
 Frc consts  --      1.3660                 1.2760                 2.0454
 IR Inten    --      8.7102                14.8421                38.3014

                     49                     50                     51
                      A                      A                      A
 Frequencies --   1184.4439              1201.6496              1214.7809
 Red. masses --      2.0741                 1.5162                 1.5287
 Frc consts  --      1.7144                 1.2899                 1.3291
 IR Inten    --      4.2099                 7.6541                 9.0205

                     52                     53                     54
                      A                      A                      A
 Frequencies --   1233.7167              1265.3044              1279.6615
 Red. masses --      1.4337                 1.3023                 1.5764
 Frc consts  --      1.2857                 1.2284                 1.5209
 IR Inten    --      5.0079                 5.9203                 1.6316

                     55                     56                     57
                      A                      A                      A
 Frequencies --   1289.7763              1331.1865              1336.2502
 Red. masses --      1.3329                 1.2957                 1.2635
 Frc consts  --      1.3064                 1.3528                 1.3292
 IR Inten    --      5.4296                 3.1375                 4.7993

                     58                     59                     60
                      A                      A                      A
 Frequencies --   1354.3894              1356.9351              1365.1963
 Red. masses --      1.1495                 1.2739                 1.2784
 Frc consts  --      1.2423                 1.3820                 1.4038
 IR Inten    --      0.2632                 3.2396                 1.2465

                     61                     62                     63
                      A                      A                      A
 Frequencies --   1378.1895              1389.8343              1394.5830
 Red. masses --      1.3634                 1.4094                 1.4294
 Frc consts  --      1.5258                 1.6041                 1.6380
 IR Inten    --     10.5598                 7.2796                24.2562

                     64                     65                     66
                      A                      A                      A
 Frequencies --   1399.5393              1408.5663              1420.5377
 Red. masses --      1.3772                 1.3732                 2.4680
 Frc consts  --      1.5894                 1.6052                 2.9343
 IR Inten    --     14.1549                 6.2836                20.2460

                     67                     68                     69
                      A                      A                      A
 Frequencies --   1424.2905              1438.6631              1442.0198
 Red. masses --      1.3917                 1.3494                 1.4265
 Frc consts  --      1.6634                 1.6456                 1.7477
 IR Inten    --      2.9432                12.4338                27.1641

                     70                     71                     72
                      A                      A                      A
 Frequencies --   1460.8670              1491.0460              1506.3223
 Red. masses --      1.3462                 1.1948                 1.0926
 Frc consts  --      1.6927                 1.5650                 1.4606
 IR Inten    --      6.6345                15.4884                 5.7467

                     73                     74                     75
                      A                      A                      A
 Frequencies --   1509.4015              1513.6253              1516.5613
 Red. masses --      1.0920                 1.0984                 1.0911
 Frc consts  --      1.4659                 1.4827                 1.4786
 IR Inten    --      0.8255                 1.1087                 9.1133

                     76                     77                     78
                      A                      A                      A
 Frequencies --   1521.2435              1523.5005              1529.0368
 Red. masses --      1.0623                 1.1057                 1.1042
 Frc consts  --      1.4484                 1.5120                 1.5210
 IR Inten    --      6.6472                 6.3678                 5.0515

                     79                     80                     81
                      A                      A                      A
 Frequencies --   1530.2041              1531.0465              1547.2934
 Red. masses --      1.0621                 1.0853                 1.0874
 Frc consts  --      1.4652                 1.4990                 1.5339
 IR Inten    --     11.0474                 6.9619                 5.5501

                     82                     83                     84
                      A                      A                      A
 Frequencies --   1561.7799              1639.7324              2951.0907
 Red. masses --      1.0840                10.1710                 1.0747
 Frc consts  --      1.5578                16.1124                 5.5143
 IR Inten    --      7.3023               268.7087               103.0656

                     85                     86                     87
                      A                      A                      A
 Frequencies --   2993.0873              3024.1203              3031.2199
 Red. masses --      1.0718                 1.0623                 1.0618
 Frc consts  --      5.6572                 5.7241                 5.7482
 IR Inten    --     81.7036                48.5257                43.4569

                     88                     89                     90
                      A                      A                      A
 Frequencies --   3042.3506              3045.7720              3047.7634
 Red. masses --      1.0732                 1.0673                 1.0721
 Frc consts  --      5.8527                 5.8338                 5.8674
 IR Inten    --     27.9649                22.2277                28.9919

                     91                     92                     93
                      A                      A                      A
 Frequencies --   3049.9970              3057.9052              3062.8458
 Red. masses --      1.0651                 1.0996                 1.0694
 Frc consts  --      5.8375                 6.0579                 5.9105
 IR Inten    --     21.3516                37.4834                43.4249

                     94                     95                     96
                      A                      A                      A
 Frequencies --   3068.1891              3071.8085              3088.8082
 Red. masses --      1.0986                 1.0408                 1.0932
 Frc consts  --      6.0933                 5.7866                 6.1452
 IR Inten    --     42.6494                19.4761                 4.4727

                     97                     98                     99
                      A                      A                      A
 Frequencies --   3092.8535              3099.6232              3103.7814
 Red. masses --      1.1017                 1.0962                 1.0891
 Frc consts  --      6.2090                 6.2052                 6.1818
 IR Inten    --     18.8006                37.6130                18.4747

                    100                    101                    102
                      A                      A                      A
 Frequencies --   3113.8703              3123.7137              3135.7587
 Red. masses --      1.0897                 1.0922                 1.1025
 Frc consts  --      6.2255                 6.2789                 6.3870
 IR Inten    --     28.5043                33.0135                19.3826

                    103                    104                    105
                      A                      A                      A
 Frequencies --   3167.9096              3271.8809              3520.7824
 Red. masses --      1.1013                 1.0828                 1.0746
 Frc consts  --      6.5116                 6.8294                 7.8486
 IR Inten    --     11.3734                24.7971                 0.0934

 - Thermochemistry -
 -------------------
 Temperature   298.150 Kelvin.  Pressure   1.00000 Atm.
 Atom     1 has atomic number  6 and mass  12.00000

 Molecular mass:   214.16813 amu.
 Principal axes and moments of inertia in atomic units:
                           1         2         3
     Eigenvalues --  2401.974373486.125134534.69648
           X            0.99947  -0.00543   0.03213
           Y            0.00555   0.99998  -0.00372
           Z           -0.03211   0.00390   0.99948
 This molecule is an asymmetric top.
 Rotational symmetry number  1.
 Warning -- assumption of classical behavior for rotation
           may cause significant error
 Rotational temperatures (Kelvin)      0.03606     0.02485     0.01910
 Rotational constants (GHZ):           0.75136     0.51769     0.39799
 Zero-point vibrational energy     881678.2 (Joules/Mol)
                                  210.72615 (Kcal/Mol)
 Warning -- explicit consideration of  24 degrees of freedom as
           vibrations may cause significant error
 Vibrational temperatures:     60.00    73.57    98.10   175.20   231.06
          (Kelvin)            260.95   306.99   332.18   338.27   361.84
                              381.89   392.75   402.00   431.87   485.53
                              492.87   517.42   547.58   605.14   673.79
                              696.61   749.20   810.20   834.49   962.79
                             1028.15  1097.87  1109.09  1140.03  1157.48
                             1202.94  1248.53  1265.42  1296.18  1326.64
                             1342.19  1383.50  1401.54  1444.82  1474.29
                             1496.64  1535.03  1542.65  1576.03  1585.60
                             1614.97  1648.44  1661.55  1704.15  1728.91
                             1747.80  1775.04  1820.49  1841.15  1855.70
                             1915.28  1922.57  1948.66  1952.33  1964.21
                             1982.91  1999.66  2006.49  2013.62  2026.61
                             2043.84  2049.24  2069.92  2074.74  2101.86
                             2145.28  2167.26  2171.69  2177.77  2181.99
                             2188.73  2191.98  2199.94  2201.62  2202.83
                             2226.21  2247.05  2359.21  4245.96  4306.39
                             4351.03  4361.25  4377.26  4382.19  4385.05
                             4388.27  4399.64  4406.75  4414.44  4419.65
                             4444.11  4449.93  4459.67  4465.65  4480.16
                             4494.33  4511.66  4557.92  4707.51  5065.62

 Zero-point correction=                           0.335813 (Hartree/Particle)
 Thermal correction to Energy=                    0.351167
 Thermal correction to Enthalpy=                  0.352111
 Thermal correction to Gibbs Free Energy=         0.294063
 Sum of electronic and zero-point Energies=           -692.002412
 Sum of electronic and thermal Energies=              -691.987059
 Sum of electronic and thermal Enthalpies=            -691.986114
 Sum of electronic and thermal Free Energies=         -692.044162

                     E (Thermal)             CV                S
                      KCal/Mol        Cal/Mol-Kelvin    Cal/Mol-Kelvin
 Total                  220.360             60.359            122.172
 Electronic               0.000              0.000              0.000
 Translational            0.889              2.981             41.988
 Rotational               0.889              2.981             32.007
 Vibrational            218.583             54.397             48.176
 Vibration     1          0.594              1.981              5.177
 Vibration     2          0.595              1.977              4.773
 Vibration     3          0.598              1.969              4.205
 Vibration     4          0.609              1.931              3.072
 Vibration     5          0.622              1.891              2.543
 Vibration     6          0.630              1.865              2.314
 Vibration     7          0.644              1.821              2.015
 Vibration     8          0.653              1.794              1.872
 Vibration     9          0.655              1.787              1.840
 Vibration    10          0.663              1.760              1.720
 Vibration    11          0.671              1.736              1.626
 Vibration    12          0.676              1.723              1.577
 Vibration    13          0.680              1.712              1.537
 Vibration    14          0.693              1.673              1.416
 Vibration    15          0.718              1.601              1.224
 Vibration    16          0.722              1.590              1.200
 Vibration    17          0.734              1.555              1.124
 Vibration    18          0.750              1.512              1.037
 Vibration    19          0.783              1.425              0.890
 Vibration    20          0.825              1.320              0.742
 Vibration    21          0.840              1.285              0.699
 Vibration    22          0.876              1.204              0.608
 Vibration    23          0.919              1.111              0.518
 Vibration    24          0.937              1.075              0.485

                           ! Non-Optimized Parameters !
 Normal termination of Gaussian 16 at Thu Dec 10 16:58:27 2020.

 ----------------------------------------------------------------------
 # B3LYP/6-311++G(d,p) empiricaldispersion=gd3bj scf=xqc pop=npa geom=c
 heck
 ----------------------------------------------------------------------

 ---------------------------------------
 CID_130458092_JID_5757_Energie_neutraal
 ---------------------------------------
 Structure from the checkpoint file:  "JID_5757.chk"
 Charge =  0 Multiplicity = 1

 SCF Done:  E(RB3LYP) =  -692.539284236     A.U. after   17 cycles
 Normal termination of Gaussian 16 at Thu Dec 10 17:07:28 2020.

 ----------------------------------------------------------------------
 # B3LYP/6-311++G(d,p) empiricaldispersion=gd3bj scf=xqc pop=npa geom=c
 heck
 ----------------------------------------------------------------------

 -------------------------------------
 CID_130458092_JID_5757_Energie_kation
 -------------------------------------
 Structure from the checkpoint file:  "JID_5757.chk"
 Charge =  1 Multiplicity = 2

 SCF Done:  E(UB3LYP) =  -692.243469217     A.U. after   23 cycles
 Normal termination of Gaussian 16 at Thu Dec 10 17:29:44 2020.
 Gaussian 16:  ES64L-G16RevA.03 25-Dec-2016

 ----------------------------------------------------------------------
 # B3LYP/6-311++G(d,p) empiricaldispersion=gd3bj scf=xqc pop=npa geom=c
 heck
 ----------------------------------------------------------------------

 ------------------------------------
 CID_130458092_JID_5757_Energie_anion
 ------------------------------------
 Structure from the checkpoint file:  "JID_5757.chk"
 Charge = -1 Multiplicity = 2

                         Standard orientation:
 ---------------------------------------------------------------------
 Center     Atomic      Atomic             Coordinates (Angstroms)
 Number     Number       Type             X           Y           Z
 ---------------------------------------------------------------------
      1          6           0       -2.892826    0.469433   -1.171781
      2          6           0       -1.623079   -0.034739   -0.488524
      3          6           0       -1.419941   -1.558384   -0.740621
      4          6           0       -0.195541   -2.220787   -0.067226
      5          6           0        1.141546   -2.153284   -0.848273
      6          6           0        2.388402   -1.998410    0.043304
      7          6           0        2.495372   -0.659308    0.794320
      8          7           0        2.521512    0.478133   -0.123265
      9          6           0        2.184125    1.799145    0.428730
     10          6           0        1.273095    2.627267   -0.505906
     11          6           0       -0.213142    2.213799   -0.471402
     12          6           0       -0.375259    0.747363   -0.894967
     13          7           0       -1.835945    0.076398    1.035275
     14          8           0       -2.973156   -0.087168    1.465457
     15          8           0       -0.851255    0.260857    1.752464
     16          1           0       -2.756849    0.392305   -2.255072
     17          1           0       -3.079769    1.519194   -0.925574
     18          1           0       -3.767995   -0.113820   -0.882155
     19          1           0       -2.337044   -2.060630   -0.411920
     20          1           0       -1.365597   -1.687182   -1.829158
     21          1           0       -0.443356   -3.274739    0.104820
     22          1           0       -0.067514   -1.789841    0.930006
     23          1           0        1.133908   -1.330345   -1.566965
     24          1           0        1.250870   -3.068587   -1.443827
     25          1           0        3.284235   -2.127824   -0.580840
     26          1           0        2.418128   -2.807331    0.786795
     27          1           0        3.370701   -0.699456    1.468369
     28          1           0        1.619131   -0.530463    1.437361
     29          1           0        3.399105    0.510869   -0.633775
     30          1           0        3.088517    2.383798    0.660105
     31          1           0        1.664231    1.648169    1.381404
     32          1           0        1.661614    2.552829   -1.531146
     33          1           0        1.349483    3.684282   -0.218398
     34          1           0       -0.799700    2.882859   -1.114424
     35          1           0       -0.580978    2.355782    0.550379
     36          1           0        0.492952    0.220415   -0.530105
     37          1           0       -0.314258    0.675916   -1.989247
 ---------------------------------------------------------------------

 SCF Done:  E(UB3LYP) =  -692.542347995     A.U. after   33 cycles
 SCF Done:  E(UB3LYP) =  -692.542347995     a.u. after    1 cycles

 The electronic state is 2-A.
 Alpha  occ. eigenvalues --  -18.95380 -18.95373 -14.31117 -14.18169 -10.09227
 Alpha  occ. eigenvalues --  -10.07881 -10.07752 -10.05898 -10.05440 -10.05397
 Alpha  occ. eigenvalues --  -10.05218 -10.04847 -10.04581 -10.04567 -10.03429
 Alpha  occ. eigenvalues --   -1.02984  -0.85908  -0.79048  -0.71726  -0.68707
 Alpha  occ. eigenvalues --   -0.65570  -0.62781  -0.58463  -0.55698  -0.54571
 Alpha  occ. eigenvalues --   -0.51424  -0.49658  -0.46398  -0.45585  -0.40081
 Alpha  occ. eigenvalues --   -0.39208  -0.36724  -0.36506  -0.36012  -0.34654
 Alpha  occ. eigenvalues --   -0.33514  -0.33051  -0.31914  -0.31066  -0.30433
 Alpha  occ. eigenvalues --   -0.29489  -0.28150  -0.27602  -0.27477  -0.25671
 Alpha  occ. eigenvalues --   -0.25121  -0.24935  -0.24396  -0.23633  -0.22513
 Alpha  occ. eigenvalues --   -0.21841  -0.21071  -0.20986  -0.19232  -0.19102
 Alpha  occ. eigenvalues --   -0.14068  -0.12260  -0.10950  -0.10555   0.04824
 Alpha virt. eigenvalues --    0.06366   0.07687   0.08076   0.09098   0.09481
 Alpha virt. eigenvalues --    0.09647   0.10643   0.10875   0.12001   0.12142
 Alpha virt. eigenvalues --    0.12728   0.12937   0.13357   0.14468   0.14645

  Beta  occ. eigenvalues --  -18.94996 -18.94943 -14.30216 -14.18152 -10.09272
  Beta  occ. eigenvalues --  -10.07869 -10.07748 -10.05890 -10.05402 -10.05390
  Beta  occ. eigenvalues --  -10.05214 -10.04848 -10.04582 -10.04556 -10.03418
  Beta  occ. eigenvalues --   -1.01801  -0.85112  -0.79022  -0.71616  -0.68691
  Beta  occ. eigenvalues --   -0.65516  -0.62747  -0.58434  -0.55636  -0.54188
  Beta  occ. eigenvalues --   -0.50939  -0.49555  -0.46366  -0.45559  -0.39498
  Beta  occ. eigenvalues --   -0.38896  -0.36504  -0.35934  -0.35268  -0.34243
  Beta  occ. eigenvalues --   -0.33204  -0.32755  -0.31694  -0.30918  -0.29955
  Beta  occ. eigenvalues --   -0.28806  -0.28091  -0.27451  -0.27275  -0.25445
  Beta  occ. eigenvalues --   -0.25060  -0.24882  -0.24333  -0.23562  -0.22489
  Beta  occ. eigenvalues --   -0.21804  -0.21034  -0.20958  -0.19196  -0.19015
  Beta  occ. eigenvalues --   -0.11920  -0.11360  -0.10601  -0.10447
  Beta virt. eigenvalues --    0.07014   0.07915   0.08125   0.09233   0.09483
  Beta virt. eigenvalues --    0.09750   0.10575   0.10904   0.12019   0.12126
  Beta virt. eigenvalues --    0.12586   0.12877   0.12935   0.13710   0.14447

 Mulliken charges and spin densities:
               1          2
     1  C   -0.282608  -0.005451
     2  C    0.561478   0.069177
     3  C   -0.425137  -0.079937
     4  C   -0.493393  -0.012851
     5  C   -0.174533   0.197948
     6  C    0.028948  -0.706842
     7  C   -0.238031   0.044354
     8  N   -0.213872  -0.040881
     9  C   -0.164573  -0.201258
    10  C    0.027432  -0.282436
    11  C   -0.543734   0.117660
    12  C   -0.386202   0.201318
    13  N   -0.362137   0.295702
    14  O   -0.085997   0.166145
    15  O   -0.216907   0.151525
    16  H    0.106302  -0.000747
    17  H    0.160273   0.003675
    18  H    0.187416   0.002735
    19  H    0.175780  -0.010314
    20  H    0.025240   0.107983
    21  H    0.144660   0.006165
    22  H    0.171558   0.003110
    23  H    0.010488   0.196660
    24  H   -0.012737   0.170786
    25  H   -0.168645   0.304322
    26  H    0.155275  -0.033282
    27  H   -0.030289   0.167158
    28  H    0.170901   0.024569
    29  H    0.026604   0.238196
    30  H   -0.485029   0.632046
    31  H    0.230317  -0.073186
    32  H   -0.065702   0.178823
    33  H    0.097731   0.040599
    34  H    0.114634   0.007478
    35  H    0.099967   0.073233
    36  H    0.742338  -1.000110
    37  H    0.112185   0.045930
 Sum of Mulliken charges =  -1.00000   1.00000

 Dipole moment (field-independent basis, Debye):
    X=              0.0581    Y=             -0.9369    Z=             -3.4819  Tot=              3.6062
 Quadrupole moment (field-independent basis, Debye-Ang):
   XX=           -150.2314   YY=           -117.3479   ZZ=           -122.0650
   XY=             -3.8780   XZ=             14.6868   YZ=             -2.7834

 Summary of Natural Population Analysis:

                                       Natural Population
                Natural  -----------------------------------------------
    Atom  No    Charge         Core      Valence    Rydberg      Total
 -----------------------------------------------------------------------
      C    1   -0.28929      0.99961     2.28315    0.00652     3.28929
      C    2    0.04869      0.99952     1.93818    0.01361     2.95131
      C    3   -0.18431      0.99958     2.17452    0.01021     3.18431
      C    4   -0.20336      0.99962     2.19503    0.00871     3.20336
      C    5   -0.19536      0.99962     2.18672    0.00901     3.19536
      C    6   -0.18860      0.99963     2.18006    0.00891     3.18860
      C    7   -0.09228      0.99962     2.08221    0.01045     3.09228
      N    8   -0.35422      0.99973     2.84159    0.01289     3.85422
      C    9   -0.08981      0.99962     2.07874    0.01145     3.08981
      C   10   -0.18791      0.99963     2.17977    0.00851     3.18791
      C   11   -0.18923      0.99963     2.18140    0.00820     3.18923
      C   12   -0.22043      0.99954     2.20890    0.01198     3.22043
      N   13    0.33709      0.99972     2.13413    0.02906     3.16291
      O   14   -0.20084      0.99990     3.19320    0.00775     4.20084
      O   15   -0.21697      0.99989     3.20888    0.00819     4.21697
      H   16    0.09108      0.00000     0.40795    0.00097     0.40892
      H   17    0.10243      0.00000     0.39659    0.00097     0.39757
      H   18    0.10994      0.00000     0.38905    0.00100     0.39006
      H   19    0.10359      0.00000     0.39538    0.00103     0.39641
      H   20    0.09269      0.00000     0.40602    0.00128     0.40731
      H   21    0.09294      0.00000     0.40619    0.00088     0.40706
      H   22    0.11288      0.00000     0.38582    0.00130     0.38712
      H   23    0.10252      0.00000     0.39602    0.00146     0.39748
      H   24    0.09192      0.00000     0.40719    0.00090     0.40808
      H   25    0.09262      0.00000     0.40630    0.00108     0.40738
      H   26    0.09249      0.00000     0.40667    0.00084     0.40751
      H   27    0.07755      0.00000     0.42137    0.00108     0.42245
      H   28    0.10761      0.00000     0.39097    0.00142     0.39239
      H   29    0.17464      0.00000     0.32173    0.00363     0.32536
      H   30    0.08306      0.00000     0.41562    0.00132     0.41694
      H   31    0.10082      0.00000     0.39782    0.00136     0.39918
      H   32    0.09154      0.00000     0.40739    0.00107     0.40846
      H   33    0.09257      0.00000     0.40660    0.00083     0.40743
      H   34    0.08826      0.00000     0.41074    0.00100     0.41174
      H   35    0.10715      0.00000     0.39145    0.00139     0.39285
      H   36    0.12686      0.00000     0.36893    0.00421     0.37314
      H   37    0.09167      0.00000     0.40729    0.00104     0.40833
 =======================================================================
   * Total *    0.00000     14.99485    43.80960    0.19555    59.00000

 Normal termination of Gaussian 16 at Thu Dec 10 17:53:40 2020.
