 Gaussian 16, Revision A.03,

 -----------------------------------------------------------
 # opt freq B3LYP/6-31G(d) empiricaldispersion=gd3bj scf=xqc
 -----------------------------------------------------------

 ------------------------------
 CID_80447811_JID_7896_neutraal
 ------------------------------
 Symbolic Z-matrix:
 Charge =  0 Multiplicity = 1

 SCF Done:  E(RB3LYP) =  -1143.57172177     A.U. after   15 cycles
 SCF Done:  E(RB3LYP) =  -1143.58189584     A.U. after   13 cycles
 SCF Done:  E(RB3LYP) =  -1143.58206743     A.U. after   12 cycles
 SCF Done:  E(RB3LYP) =  -1143.57933281     A.U. after   14 cycles
 SCF Done:  E(RB3LYP) =  -1143.57860463     A.U. after   14 cycles
 SCF Done:  E(RB3LYP) =  -1143.58056961     A.U. after   13 cycles
 SCF Done:  E(RB3LYP) =  -1143.58214283     A.U. after   10 cycles
 SCF Done:  E(RB3LYP) =  -1143.58255773     A.U. after   12 cycles
 SCF Done:  E(RB3LYP) =  -1143.58309341     A.U. after   13 cycles
 SCF Done:  E(RB3LYP) =  -1143.58342248     A.U. after   12 cycles
 SCF Done:  E(RB3LYP) =  -1143.58395627     A.U. after   10 cycles
 SCF Done:  E(RB3LYP) =  -1143.58395660     A.U. after    8 cycles
 SCF Done:  E(RB3LYP) =  -1143.58395684     A.U. after    7 cycles
 SCF Done:  E(RB3LYP) =  -1143.58395690     A.U. after    8 cycles
 SCF Done:  E(RB3LYP) =  -1143.58395694     A.U. after    7 cycles
 Optimization completed.
    -- Stationary point found.
 Normal termination of Gaussian 16 at Fri Dec 11 13:16:41 2020.

 --------------------------------------------------------------------
 #N Geom=AllCheck Guess=TCheck SCRF=Check GenChk RB3LYP/6-31G(d) Freq
 --------------------------------------------------------------------

 Structure from the checkpoint file:  "JID_7896.chk"
 ------------------------------
 CID_80447811_JID_7896_neutraal
 ------------------------------
 Charge =  0 Multiplicity = 1

 SCF Done:  E(RB3LYP) =  -1143.58395694     A.U. after    1 cycles

  Exact polarizability: 183.540  -2.737 148.538 -11.413   2.399 125.434
 Approx polarizability: 238.377 -11.251 239.309 -29.184   4.975 208.971

                      1                      2                      3
                      A                      A                      A
 Frequencies --     25.4102                45.7924                51.2960
 Red. masses --      3.8355                 5.0250                 6.5457
 Frc consts  --      0.0015                 0.0062                 0.0101
 IR Inten    --      0.1255                 0.3128                 0.3976

                      4                      5                      6
                      A                      A                      A
 Frequencies --     66.8970                86.1072                87.6716
 Red. masses --      3.3718                 2.9341                 4.9739
 Frc consts  --      0.0089                 0.0128                 0.0225
 IR Inten    --      2.5022                 0.0911                 0.5392

                      7                      8                      9
                      A                      A                      A
 Frequencies --    101.7542               118.7970               149.1160
 Red. masses --      2.8214                 3.4162                 4.5320
 Frc consts  --      0.0172                 0.0284                 0.0594
 IR Inten    --      2.5498                 0.1028                 0.9222

                     10                     11                     12
                      A                      A                      A
 Frequencies --    178.6629               199.1426               220.1619
 Red. masses --      4.9911                 4.4761                 1.8206
 Frc consts  --      0.0939                 0.1046                 0.0520
 IR Inten    --      0.6734                 2.2201                 1.8397

                     13                     14                     15
                      A                      A                      A
 Frequencies --    227.1291               243.2010               243.6403
 Red. masses --      1.2215                 1.7387                 1.2209
 Frc consts  --      0.0371                 0.0606                 0.0427
 IR Inten    --      0.2146                 0.4820                 0.4107

                     16                     17                     18
                      A                      A                      A
 Frequencies --    253.8829               285.7653               311.1473
 Red. masses --      3.2936                 1.1353                 1.9078
 Frc consts  --      0.1251                 0.0546                 0.1088
 IR Inten    --      6.5202                 0.5427                 2.5840

                     19                     20                     21
                      A                      A                      A
 Frequencies --    331.7101               350.6019               362.6026
 Red. masses --      3.6073                 3.1534                 2.9760
 Frc consts  --      0.2339                 0.2284                 0.2305
 IR Inten    --      8.6071                 2.1566                 1.1218

                     22                     23                     24
                      A                      A                      A
 Frequencies --    378.4364               430.5028               456.2504
 Red. masses --      2.4062                 2.9128                 3.4966
 Frc consts  --      0.2030                 0.3181                 0.4288
 IR Inten    --      4.8515                34.2808                 2.5043

                     25                     26                     27
                      A                      A                      A
 Frequencies --    462.1764               477.1335               490.0887
 Red. masses --      4.2834                 2.7805                 2.1385
 Frc consts  --      0.5391                 0.3730                 0.3026
 IR Inten    --      4.2570                10.2438                58.3676

                     28                     29                     30
                      A                      A                      A
 Frequencies --    539.4360               549.3610               600.0895
 Red. masses --      3.6414                 5.2985                 5.7698
 Frc consts  --      0.6243                 0.9421                 1.2242
 IR Inten    --     14.7748                12.1199                 1.3346

                     31                     32                     33
                      A                      A                      A
 Frequencies --    675.8556               688.0426               736.2393
 Red. masses --      6.2910                 3.2324                 3.5288
 Frc consts  --      1.6931                 0.9016                 1.1270
 IR Inten    --     11.4595                 6.1741                 0.6742

                     34                     35                     36
                      A                      A                      A
 Frequencies --    748.1985               781.9280               797.0832
 Red. masses --      9.1882                 2.0922                 9.0906
 Frc consts  --      3.0305                 0.7537                 3.4029
 IR Inten    --      8.3990                 4.4105                 6.1318

                     37                     38                     39
                      A                      A                      A
 Frequencies --    818.0979               884.8401               903.6633
 Red. masses --      1.4768                 2.0267                 2.5999
 Frc consts  --      0.5823                 0.9349                 1.2509
 IR Inten    --      4.0705                 0.2623                 5.2174

                     40                     41                     42
                      A                      A                      A
 Frequencies --    936.6777               960.0957               969.7256
 Red. masses --      2.1638                 1.1557                 1.5249
 Frc consts  --      1.1185                 0.6277                 0.8449
 IR Inten    --      4.4873                 2.6466                 0.1061

                     43                     44                     45
                      A                      A                      A
 Frequencies --    979.8581               991.5579              1002.4899
 Red. masses --      1.4888                 1.3302                 3.9350
 Frc consts  --      0.8422                 0.7705                 2.3300
 IR Inten    --      2.5804                 1.5820                10.6598

                     46                     47                     48
                      A                      A                      A
 Frequencies --   1051.4658              1072.9885              1081.9926
 Red. masses --      2.2262                 2.0337                 2.6580
 Frc consts  --      1.4501                 1.3795                 1.8334
 IR Inten    --     12.9731                30.3885                80.1054

                     49                     50                     51
                      A                      A                      A
 Frequencies --   1119.5703              1131.4903              1166.1925
 Red. masses --      2.5364                 1.4734                 1.9347
 Frc consts  --      1.8731                 1.1114                 1.5503
 IR Inten    --     12.2738                 1.1679                 8.0239

                     52                     53                     54
                      A                      A                      A
 Frequencies --   1169.7767              1202.7168              1214.2706
 Red. masses --      2.1488                 1.8559                 3.3611
 Frc consts  --      1.7324                 1.5817                 2.9199
 IR Inten    --      3.8660                 5.4646                 0.9202

                     55                     56                     57
                      A                      A                      A
 Frequencies --   1224.9399              1262.8254              1271.3302
 Red. masses --      2.3509                 1.3548                 2.1216
 Frc consts  --      2.0783                 1.2730                 2.0204
 IR Inten    --      0.9182                34.4388                56.6548

                     58                     59                     60
                      A                      A                      A
 Frequencies --   1304.1406              1311.3244              1324.0733
 Red. masses --      5.1632                 1.3388                 1.3082
 Frc consts  --      5.1739                 1.3563                 1.3513
 IR Inten    --     69.1018                 5.1624                 0.5269

                     61                     62                     63
                      A                      A                      A
 Frequencies --   1361.0129              1374.1816              1378.0159
 Red. masses --      1.2017                 1.3766                 2.4856
 Frc consts  --      1.3115                 1.5316                 2.7809
 IR Inten    --      8.0155                 5.6036                35.4700

                     64                     65                     66
                      A                      A                      A
 Frequencies --   1406.2881              1406.7190              1427.7329
 Red. masses --      1.6316                 1.7526                 1.4391
 Frc consts  --      1.9011                 2.0434                 1.7284
 IR Inten    --     20.1797                26.4763                21.9654

                     67                     68                     69
                      A                      A                      A
 Frequencies --   1430.3348              1434.6684              1444.5166
 Red. masses --      1.4593                 1.2408                 1.2191
 Frc consts  --      1.7590                 1.5047                 1.4988
 IR Inten    --     28.1976                 3.3225                 1.7799

                     70                     71                     72
                      A                      A                      A
 Frequencies --   1451.1211              1488.2677              1514.2536
 Red. masses --      1.2666                 1.1075                 1.0420
 Frc consts  --      1.5715                 1.4453                 1.4077
 IR Inten    --     48.3721                11.7065                 2.3334

                     73                     74                     75
                      A                      A                      A
 Frequencies --   1520.0394              1526.8093              1527.9001
 Red. masses --      1.0632                 1.0435                 1.0523
 Frc consts  --      1.4473                 1.4332                 1.4473
 IR Inten    --      7.8650                 8.8068                10.4676

                     76                     77                     78
                      A                      A                      A
 Frequencies --   1530.1002              1534.7019              1538.1035
 Red. masses --      1.0531                 1.0503                 1.0738
 Frc consts  --      1.4526                 1.4574                 1.4968
 IR Inten    --     15.4300                 2.5415                 7.4483

                     79                     80                     81
                      A                      A                      A
 Frequencies --   1544.1037              1555.6210              1563.0879
 Red. masses --      1.0501                 1.0700                 6.4205
 Frc consts  --      1.4752                 1.5256                 9.2425
 IR Inten    --      4.0057                 0.5512                40.1835

                     82                     83                     84
                      A                      A                      A
 Frequencies --   1784.9755              1836.9804              3026.3349
 Red. masses --     11.2242                10.0605                 1.0827
 Frc consts  --     21.0702                20.0023                 5.8427
 IR Inten    --    104.5823               552.6922                 9.7209

                     85                     86                     87
                      A                      A                      A
 Frequencies --   3031.0496              3050.5724              3061.4593
 Red. masses --      1.0626                 1.0386                 1.0361
 Frc consts  --      5.7520                 5.6943                 5.7214
 IR Inten    --     29.1921                25.6899                14.8233

                     88                     89                     90
                      A                      A                      A
 Frequencies --   3065.4954              3072.0475              3076.3003
 Red. masses --      1.0367                 1.0348                 1.0981
 Frc consts  --      5.7400                 5.7540                 6.1229
 IR Inten    --     28.8934                15.0643                17.3257

                     91                     92                     93
                      A                      A                      A
 Frequencies --   3090.9491              3108.5502              3115.6389
 Red. masses --      1.0846                 1.0569                 1.1010
 Frc consts  --      6.1054                 6.0172                 6.2968
 IR Inten    --      8.9193                 7.1866                34.8248

                     94                     95                     96
                      A                      A                      A
 Frequencies --   3129.1503              3129.4158              3137.6040
 Red. masses --      1.1019                 1.1029                 1.1017
 Frc consts  --      6.3570                 6.3635                 6.3903
 IR Inten    --     34.6865                24.4869                17.1759

                     97                     98                     99
                      A                      A                      A
 Frequencies --   3146.0607              3154.1559              3154.6742
 Red. masses --      1.1027                 1.1033                 1.1038
 Frc consts  --      6.4303                 6.4670                 6.4720
 IR Inten    --     25.1647                 9.6960                 2.5619

                    100                    101                    102
                      A                      A                      A
 Frequencies --   3162.6027              3171.4931              3682.9054
 Red. masses --      1.1014                 1.1087                 1.0816
 Frc consts  --      6.4908                 6.5706                 8.6435
 IR Inten    --      8.6028                 2.8963                90.2942

 - Thermochemistry -
 -------------------
 Temperature   298.150 Kelvin.  Pressure   1.00000 Atm.
 Atom     1 has atomic number  6 and mass  12.00000

 Molecular mass:   257.11980 amu.
 Principal axes and moments of inertia in atomic units:
                           1         2         3
     Eigenvalues --  2252.459026932.028007400.58771
           X            0.99969   0.02469  -0.00209
           Y           -0.02470   0.99968  -0.00618
           Z            0.00194   0.00623   0.99998
 This molecule is an asymmetric top.
 Rotational symmetry number  1.
 Warning -- assumption of classical behavior for rotation
           may cause significant error
 Rotational temperatures (Kelvin)      0.03845     0.01249     0.01170
 Rotational constants (GHZ):           0.80123     0.26035     0.24386
 Zero-point vibrational energy     797032.4 (Joules/Mol)
                                  190.49531 (Kcal/Mol)
 Warning -- explicit consideration of  30 degrees of freedom as
           vibrations may cause significant error
 Vibrational temperatures:     36.56    65.88    73.80    96.25   123.89
          (Kelvin)            126.14   146.40   170.92   214.54   257.06
                              286.52   316.76   326.79   349.91   350.54
                              365.28   411.15   447.67   477.26   504.44
                              521.70   544.49   619.40   656.44   664.97
                              686.49   705.13   776.13   790.41   863.40
                              972.41   989.94  1059.28  1076.49  1125.02
                             1146.82  1177.06  1273.09  1300.17  1347.67
                             1381.36  1395.22  1409.80  1426.63  1442.36
                             1512.82  1543.79  1556.75  1610.81  1627.96
                             1677.89  1683.05  1730.44  1747.06  1762.42
                             1816.92  1829.16  1876.37  1886.70  1905.05
                             1958.19  1977.14  1982.66  2023.33  2023.95
                             2054.19  2057.93  2064.17  2078.34  2087.84
                             2141.29  2178.67  2187.00  2196.74  2198.31
                             2201.47  2208.09  2212.99  2221.62  2238.19
                             2248.93  2568.18  2643.01  4354.22  4361.00
                             4389.09  4404.76  4410.56  4419.99  4426.11
                             4447.19  4472.51  4482.71  4502.15  4502.53
                             4514.31  4526.48  4538.13  4538.87  4550.28
                             4563.07  5298.88

 Zero-point correction=                           0.303574 (Hartree/Particle)
 Thermal correction to Energy=                    0.322543
 Thermal correction to Enthalpy=                  0.323487
 Thermal correction to Gibbs Free Energy=         0.255754
 Sum of electronic and zero-point Energies=          -1143.280383
 Sum of electronic and thermal Energies=             -1143.261414
 Sum of electronic and thermal Enthalpies=           -1143.260470
 Sum of electronic and thermal Free Energies=        -1143.328203

                     E (Thermal)             CV                S
                      KCal/Mol        Cal/Mol-Kelvin    Cal/Mol-Kelvin
 Total                  202.399             69.498            142.556
 Electronic               0.000              0.000              0.000
 Translational            0.889              2.981             42.533
 Rotational               0.889              2.981             33.113
 Vibrational            200.621             63.537             66.910
 Vibration     1          0.593              1.985              6.159
 Vibration     2          0.595              1.979              4.991
 Vibration     3          0.596              1.977              4.767
 Vibration     4          0.598              1.970              4.243
 Vibration     5          0.601              1.959              3.747
 Vibration     6          0.601              1.958              3.711
 Vibration     7          0.604              1.948              3.420
 Vibration     8          0.609              1.934              3.120
 Vibration     9          0.618              1.904              2.683
 Vibration    10          0.629              1.869              2.342
 Vibration    11          0.637              1.841              2.141
 Vibration    12          0.647              1.810              1.958
 Vibration    13          0.651              1.800              1.902
 Vibration    14          0.659              1.774              1.779
 Vibration    15          0.659              1.773              1.776
 Vibration    16          0.665              1.756              1.703
 Vibration    17          0.684              1.700              1.499
 Vibration    18          0.700              1.652              1.356
 Vibration    19          0.714              1.612              1.252
 Vibration    20          0.728              1.574              1.163
 Vibration    21          0.736              1.549              1.111
 Vibration    22          0.749              1.516              1.045
 Vibration    23          0.792              1.404              0.857
 Vibration    24          0.814              1.347              0.777
 Vibration    25          0.820              1.334              0.760
 Vibration    26          0.834              1.301              0.718
 Vibration    27          0.846              1.272              0.683
 Vibration    28          0.894              1.163              0.566
 Vibration    29          0.905              1.141              0.545
 Vibration    30          0.958              1.032              0.450

 Optimization completed.
    -- Stationary point found.
 Normal termination of Gaussian 16 at Fri Dec 11 13:30:03 2020.

 ----------------------------------------------------------------------
 # B3LYP/6-311++G(d,p) empiricaldispersion=gd3bj scf=xqc pop=npa geom=c
 heck
 ----------------------------------------------------------------------

 --------------------------------------
 CID_80447811_JID_7896_Energie_neutraal
 --------------------------------------
 Structure from the checkpoint file:  "JID_7896.chk"
 Charge =  0 Multiplicity = 1

 SCF Done:  E(RB3LYP) =  -1143.82358086     A.U. after   16 cycles
 Normal termination of Gaussian 16 at Fri Dec 11 13:36:26 2020.

 ----------------------------------------------------------------------
 # B3LYP/6-311++G(d,p) empiricaldispersion=gd3bj scf=xqc pop=npa geom=c
 heck
 ----------------------------------------------------------------------

 ------------------------------------
 CID_80447811_JID_7896_Energie_kation
 ------------------------------------
 Structure from the checkpoint file:  "JID_7896.chk"
 Charge =  1 Multiplicity = 2

 SCF Done:  E(UB3LYP) =  -1143.52124025     A.U. after   26 cycles
 Normal termination of Gaussian 16 at Fri Dec 11 13:50:28 2020.
 Gaussian 16:  ES64L-G16RevA.03 25-Dec-2016

 ----------------------------------------------------------------------
 # B3LYP/6-311++G(d,p) empiricaldispersion=gd3bj scf=xqc pop=npa geom=c
 heck
 ----------------------------------------------------------------------

 -----------------------------------
 CID_80447811_JID_7896_Energie_anion
 -----------------------------------
 Structure from the checkpoint file:  "JID_7896.chk"
 Charge = -1 Multiplicity = 2

                         Standard orientation:
 ---------------------------------------------------------------------
 Center     Atomic      Atomic             Coordinates (Angstroms)
 Number     Number       Type             X           Y           Z
 ---------------------------------------------------------------------
      1          6           0        5.223787    0.093241   -0.261738
      2          6           0        3.825700   -0.531866   -0.252081
      3          6           0        2.887589    0.087758    0.796997
      4          6           0        2.625068    1.590140    0.564735
      5          6           0        1.541188   -0.622768    0.957376
      6          8           0        0.822369   -0.374341    1.909746
      7          6           0        1.044811   -1.612298   -0.088933
      8         16           0        0.397589   -0.733527   -1.586513
      9          6           0       -0.706079    0.427376   -0.858080
     10          7           0       -0.473682    1.712503   -0.892619
     11          7           0       -1.579812    2.264029   -0.301011
     12          6           0       -2.507197    1.338589    0.138730
     13          8           0       -3.564836    1.521451    0.720787
     14          7           0       -1.919928    0.130863   -0.267076
     15          6           0       -2.508942   -1.191645   -0.003643
     16          6           0       -2.541326   -1.457481    1.504255
     17          6           0       -3.884284   -1.302647   -0.666038
     18          1           0        5.197243    1.142436   -0.571532
     19          1           0        5.881112   -0.439586   -0.956943
     20          1           0        5.682825    0.048985    0.733480
     21          1           0        3.376405   -0.434322   -1.248446
     22          1           0        3.929107   -1.607438   -0.053988
     23          1           0        3.359543   -0.011157    1.785310
     24          1           0        2.182290    1.766851   -0.419567
     25          1           0        1.930047    1.966473    1.319479
     26          1           0        3.556970    2.157453    0.640902
     27          1           0        1.838872   -2.249465   -0.484638
     28          1           0        0.262772   -2.230712    0.353187
     29          1           0       -1.642873    3.261772   -0.171454
     30          1           0       -1.831731   -1.900815   -0.488231
     31          1           0       -3.218718   -0.752299    1.993163
     32          1           0       -2.897966   -2.475375    1.695342
     33          1           0       -1.542957   -1.338480    1.935340
     34          1           0       -3.808687   -1.138129   -1.745850
     35          1           0       -4.293617   -2.303939   -0.496318
     36          1           0       -4.570250   -0.564864   -0.243819
 ---------------------------------------------------------------------

 SCF Done:  E(UB3LYP) =  -1143.82640399     A.U. after   33 cycles
 SCF Done:  E(UB3LYP) =  -1143.82640399     a.u. after    1 cycles

 The electronic state is 2-A.
 Alpha  occ. eigenvalues --  -88.72551 -18.98087 -18.93637 -14.26520 -14.25212
 Alpha  occ. eigenvalues --  -14.22070 -10.18899 -10.13982 -10.11853 -10.07724
 Alpha  occ. eigenvalues --  -10.06606 -10.06570 -10.05486 -10.05336 -10.05238
 Alpha  occ. eigenvalues --  -10.04617 -10.02650  -7.81191  -5.77591  -5.77218
 Alpha  occ. eigenvalues --   -5.76561  -0.97625  -0.91016  -0.87938  -0.82811
 Alpha  occ. eigenvalues --   -0.72491  -0.68755  -0.68448  -0.65922  -0.60925
 Alpha  occ. eigenvalues --   -0.59143  -0.56981  -0.55377  -0.52746  -0.49284
 Alpha  occ. eigenvalues --   -0.47202  -0.46862  -0.43155  -0.39296  -0.37698
 Alpha  occ. eigenvalues --   -0.37172  -0.35476  -0.35033  -0.34748  -0.32657
 Alpha  occ. eigenvalues --   -0.31968  -0.31490  -0.30484  -0.29591  -0.29240
 Alpha  occ. eigenvalues --   -0.28760  -0.28254  -0.27052  -0.26242  -0.25637
 Alpha  occ. eigenvalues --   -0.25245  -0.24937  -0.24722  -0.23666  -0.22702
 Alpha  occ. eigenvalues --   -0.21891  -0.21101  -0.20547  -0.19274  -0.18669
 Alpha  occ. eigenvalues --   -0.15958  -0.13127  -0.11348  -0.09232   0.04875
 Alpha virt. eigenvalues --    0.07157   0.07390   0.08852   0.09311   0.09387
 Alpha virt. eigenvalues --    0.09853   0.10271   0.11270   0.11488   0.11952
 Alpha virt. eigenvalues --    0.12309   0.12842   0.13107   0.13204   0.13956

  Beta  occ. eigenvalues --  -88.72466 -18.98094 -18.93124 -14.26499 -14.25177
  Beta  occ. eigenvalues --  -14.21907 -10.18907 -10.13963 -10.11853 -10.07300
  Beta  occ. eigenvalues --  -10.06602 -10.06453 -10.05471 -10.05330 -10.05235
  Beta  occ. eigenvalues --  -10.04654 -10.02598  -7.81099  -5.77449  -5.77098
  Beta  occ. eigenvalues --   -5.76501  -0.97556  -0.90976  -0.86975  -0.82726
  Beta  occ. eigenvalues --   -0.72318  -0.68619  -0.68400  -0.65530  -0.60797
  Beta  occ. eigenvalues --   -0.59133  -0.56602  -0.55285  -0.52659  -0.49078
  Beta  occ. eigenvalues --   -0.47137  -0.46653  -0.43009  -0.38774  -0.37521
  Beta  occ. eigenvalues --   -0.37157  -0.35341  -0.34990  -0.34545  -0.32637
  Beta  occ. eigenvalues --   -0.31874  -0.31414  -0.29892  -0.29257  -0.29148
  Beta  occ. eigenvalues --   -0.28713  -0.27965  -0.26804  -0.26109  -0.25574
  Beta  occ. eigenvalues --   -0.25102  -0.24804  -0.24581  -0.23024  -0.22381
  Beta  occ. eigenvalues --   -0.21653  -0.20860  -0.20417  -0.18858  -0.17113
  Beta  occ. eigenvalues --   -0.15899  -0.12882  -0.10976  -0.08787
  Beta virt. eigenvalues --    0.07130   0.07388   0.08689   0.09197   0.09402
  Beta virt. eigenvalues --    0.09925   0.10155   0.10660   0.11228   0.11666
  Beta virt. eigenvalues --    0.12203   0.12613   0.12822   0.13169   0.13866

 Mulliken charges and spin densities:
               1          2
     1  C    0.064403  -0.784584
     2  C   -0.684345   0.442032
     3  C    0.266104   0.180042
     4  C   -0.368654  -0.454901
     5  C   -0.413725   0.238494
     6  O   -0.299518   0.169889
     7  C   -0.331030   0.350462
     8  S    0.426854  -0.159476
     9  C   -0.769083   0.052772
    10  N    0.171082   0.026826
    11  N   -0.233210   0.012679
    12  C    0.277894  -0.033431
    13  O   -0.407459  -0.002116
    14  N    0.265070  -0.011414
    15  C   -0.143440   0.189321
    16  C   -0.550002  -0.010925
    17  C   -0.353436  -0.246561
    18  H    0.024242   0.123143
    19  H   -0.010844   0.130459
    20  H   -0.018285   0.146485
    21  H    0.049762   0.062879
    22  H    0.123717  -0.015844
    23  H    0.059321   0.119494
    24  H    0.170896   0.048910
    25  H    0.197934  -0.032130
    26  H   -0.144978   0.250572
    27  H    0.223116   0.006846
    28  H    0.231042   0.023245
    29  H    0.328541   0.007508
    30  H    0.035093   0.032166
    31  H    0.164222   0.003760
    32  H    0.096305   0.017515
    33  H    0.215082  -0.003991
    34  H    0.048441   0.099022
    35  H    0.101798   0.024696
    36  H    0.187091  -0.003841
 Sum of Mulliken charges =  -1.00000   1.00000

 Dipole moment (field-independent basis, Debye):
    X=             -2.3821    Y=             -2.3254    Z=             -1.6775  Tot=              3.7278
 Quadrupole moment (field-independent basis, Debye-Ang):
   XX=           -170.9676   YY=           -122.4716   ZZ=           -141.4007
   XY=             -1.3233   XZ=              0.3658   YZ=             -1.3998

 Summary of Natural Population Analysis:

                                       Natural Population
                Natural  -----------------------------------------------
    Atom  No    Charge         Core      Valence    Rydberg      Total
 -----------------------------------------------------------------------
      C    1   -0.28583      0.99967     2.28099    0.00517     3.28583
      C    2   -0.19319      0.99963     2.18447    0.00908     3.19319
      C    3   -0.15170      0.99956     2.14060    0.01153     3.15170
      C    4   -0.28308      0.99965     2.27649    0.00694     3.28308
      C    5    0.33487      0.99963     1.64287    0.02263     2.66513
      O    6   -0.25929      0.99987     3.25256    0.00685     4.25929
      C    7   -0.26595      0.99954     2.25719    0.00921     3.26595
      S    8    0.13461      4.99954     2.84628    0.01958     7.86539
      C    9    0.11972      0.99958     1.85762    0.02308     2.88028
      N   10   -0.13846      0.99966     2.62540    0.01341     3.63846
      N   11   -0.21626      0.99968     2.70492    0.01166     3.71626
      C   12    0.38400      0.99969     1.59252    0.02380     2.61600
      O   13   -0.34599      0.99987     3.34087    0.00525     4.34599
      N   14   -0.24627      0.99957     2.73425    0.01245     3.74627
      C   15   -0.00990      0.99962     1.99796    0.01233     3.00990
      C   16   -0.29857      0.99964     2.29399    0.00494     3.29857
      C   17   -0.29028      0.99964     2.28597    0.00466     3.29028
      H   18    0.09809      0.00000     0.40099    0.00092     0.40191
      H   19    0.09334      0.00000     0.40591    0.00075     0.40666
      H   20    0.09410      0.00000     0.40496    0.00095     0.40590
      H   21    0.09900      0.00000     0.39977    0.00123     0.40100
      H   22    0.09070      0.00000     0.40817    0.00113     0.40930
      H   23    0.10049      0.00000     0.39760    0.00191     0.39951
      H   24    0.10480      0.00000     0.39366    0.00154     0.39520
      H   25    0.10596      0.00000     0.39307    0.00097     0.39404
      H   26    0.09005      0.00000     0.40896    0.00099     0.40995
      H   27    0.10398      0.00000     0.39494    0.00108     0.39602
      H   28    0.10073      0.00000     0.39744    0.00183     0.39927
      H   29    0.19789      0.00000     0.30073    0.00138     0.30211
      H   30    0.10496      0.00000     0.39294    0.00210     0.39504
      H   31    0.10657      0.00000     0.39255    0.00088     0.39343
      H   32    0.09188      0.00000     0.40721    0.00091     0.40812
      H   33    0.12231      0.00000     0.37643    0.00126     0.37769
      H   34    0.10072      0.00000     0.39821    0.00107     0.39928
      H   35    0.09524      0.00000     0.40396    0.00081     0.40476
      H   36    0.11077      0.00000     0.38813    0.00111     0.38923
 =======================================================================
   * Total *   -0.00000     20.99405    47.78059    0.22537    69.00000

 Normal termination of Gaussian 16 at Fri Dec 11 14:07:55 2020.
