 Gaussian 16, Revision A.03,

 ----------------------------------------------------------------------
 # opt=(cartesian,calcfc) freq B3LYP/6-31G(d) empiricaldispersion=gd3bj
  scf=xqc
 ----------------------------------------------------------------------

 ------------------------------
 CID_132115292_JID_467_neutraal
 ------------------------------
 Symbolic Z-matrix:
 Charge =  0 Multiplicity = 1

 SCF Done:  E(RB3LYP) =  -1308.79208473     A.U. after   15 cycles
 SCF Done:  E(RB3LYP) =  -1308.79278980     A.U. after   12 cycles
 SCF Done:  E(RB3LYP) =  -1308.79291684     A.U. after   12 cycles
 SCF Done:  E(RB3LYP) =  -1308.79301829     A.U. after   11 cycles
 SCF Done:  E(RB3LYP) =  -1308.79275899     A.U. after   13 cycles
 SCF Done:  E(RB3LYP) =  -1308.79299903     A.U. after   12 cycles
 SCF Done:  E(RB3LYP) =  -1308.78667956     A.U. after   12 cycles
 SCF Done:  E(RB3LYP) =  -1308.79302070     A.U. after    7 cycles
 SCF Done:  E(RB3LYP) =  -1308.79285336     A.U. after   12 cycles
 SCF Done:  E(RB3LYP) =  -1308.79309732     A.U. after   12 cycles
 SCF Done:  E(RB3LYP) =  -1308.79363591     A.U. after    9 cycles
 SCF Done:  E(RB3LYP) =  -1308.79363611     A.U. after    7 cycles
 SCF Done:  E(RB3LYP) =  -1308.79363616     A.U. after    8 cycles
 SCF Done:  E(RB3LYP) =  -1308.79363609     A.U. after    8 cycles
 SCF Done:  E(RB3LYP) =  -1308.79363619     A.U. after    7 cycles
 SCF Done:  E(RB3LYP) =  -1308.79363618     A.U. after    8 cycles
 Optimization completed.
    -- Stationary point found.
 Normal termination of Gaussian 16 at Mon Jan  4 09:02:57 2021.

 --------------------------------------------------------------------
 #N Geom=AllCheck Guess=TCheck SCRF=Check GenChk RB3LYP/6-31G(d) Freq
 --------------------------------------------------------------------

 Structure from the checkpoint file:  "JID_467.chk"
 ------------------------------
 CID_132115292_JID_467_neutraal
 ------------------------------
 Charge =  0 Multiplicity = 1

 SCF Done:  E(RB3LYP) =  -1308.79363618     A.U. after    1 cycles

  Exact polarizability: 106.137  -4.355  77.131  -3.928   2.337  67.239
 Approx polarizability: 138.944  -7.818 123.733 -12.628  10.619 116.149

                      1                      2                      3
                      A                      A                      A
 Frequencies --     25.1410                43.7462                67.0357
 Red. masses --      7.2332                 6.2558                 6.9567
 Frc consts  --      0.0027                 0.0071                 0.0184
 IR Inten    --      0.8694                 3.7565                 0.8329

                      4                      5                      6
                      A                      A                      A
 Frequencies --     87.1982               102.6042               117.4524
 Red. masses --      7.7134                 3.3407                 7.9920
 Frc consts  --      0.0346                 0.0207                 0.0650
 IR Inten    --     11.5747                 5.8897                 4.9247

                      7                      8                      9
                      A                      A                      A
 Frequencies --    126.7753               184.7485               268.2691
 Red. masses --      4.0257                 4.4436                 4.1211
 Frc consts  --      0.0381                 0.0894                 0.1747
 IR Inten    --      1.6909                45.5151                 5.9989

                     10                     11                     12
                      A                      A                      A
 Frequencies --    280.5476               316.6149               342.3476
 Red. masses --      2.4380                 3.0677                 3.3338
 Frc consts  --      0.1131                 0.1812                 0.2302
 IR Inten    --      1.3907                12.7381                 2.3921

                     13                     14                     15
                      A                      A                      A
 Frequencies --    357.7662               376.9711               429.4574
 Red. masses --      1.9869                 5.3420                 6.6371
 Frc consts  --      0.1498                 0.4473                 0.7212
 IR Inten    --      9.1055                14.0455                27.1873

                     16                     17                     18
                      A                      A                      A
 Frequencies --    521.9915               549.5452               563.8208
 Red. masses --      1.4696                 4.1015                 6.1720
 Frc consts  --      0.2359                 0.7298                 1.1560
 IR Inten    --    166.7791                98.1426                 3.7617

                     19                     20                     21
                      A                      A                      A
 Frequencies --    608.2464               613.2506               745.9637
 Red. masses --      3.7751                 4.7221                10.9144
 Frc consts  --      0.8229                 1.0463                 3.5784
 IR Inten    --     52.4659                 1.9467                81.0057

                     22                     23                     24
                      A                      A                      A
 Frequencies --    783.1014               801.1725               859.7339
 Red. masses --      6.7417                 1.1730                 1.2084
 Frc consts  --      2.4359                 0.4436                 0.5263
 IR Inten    --    204.5820               109.9393                79.8029

                     25                     26                     27
                      A                      A                      A
 Frequencies --    886.4428               934.3566               939.7770
 Red. masses --      1.2398                 1.5399                 1.4707
 Frc consts  --      0.5740                 0.7921                 0.7653
 IR Inten    --    139.4604                 8.0599                 6.6543

                     28                     29                     30
                      A                      A                      A
 Frequencies --   1047.0037              1087.9059              1110.7413
 Red. masses --      6.0967                 3.0495                10.3898
 Frc consts  --      3.9377                 2.1265                 7.5524
 IR Inten    --    118.7715                37.3910               185.0820

                     31                     32                     33
                      A                      A                      A
 Frequencies --   1132.5702              1139.5523              1207.6438
 Red. masses --      1.2328                 4.1821                 1.1280
 Frc consts  --      0.9317                 3.1998                 0.9693
 IR Inten    --     17.8333               161.6878                11.1906

                     34                     35                     36
                      A                      A                      A
 Frequencies --   1292.7321              1327.5921              1358.9523
 Red. masses --      1.2340                 1.1646                 1.1287
 Frc consts  --      1.2151                 1.2093                 1.2282
 IR Inten    --     20.3784                34.9331                62.4348

                     37                     38                     39
                      A                      A                      A
 Frequencies --   1362.7832              1376.7892              1448.2684
 Red. masses --      1.1939                 1.1758                 1.2194
 Frc consts  --      1.3064                 1.3131                 1.5069
 IR Inten    --     81.0354                66.8783               107.2491

                     40                     41                     42
                      A                      A                      A
 Frequencies --   1508.3850              1513.8095              1676.0768
 Red. masses --      1.0992                 1.1008                 1.0930
 Frc consts  --      1.4735                 1.4863                 1.8091
 IR Inten    --      4.5447                 3.6373                37.8871

                     43                     44                     45
                      A                      A                      A
 Frequencies --   3005.8395              3101.7814              3138.9820
 Red. masses --      1.0673                 1.0559                 1.0974
 Frc consts  --      5.6818                 5.9853                 6.3705
 IR Inten    --     53.2697                 7.4966                16.1839

                     46                     47                     48
                      A                      A                      A
 Frequencies --   3172.1227              3179.5063              3215.5859
 Red. masses --      1.1124                 1.0700                 1.0639
 Frc consts  --      6.5951                 6.3734                 6.4812
 IR Inten    --     20.0626              1442.3912               177.0838

                     49                     50                     51
                      A                      A                      A
 Frequencies --   3526.9056              3618.0974              3655.2282
 Red. masses --      1.0491                 1.0963                 1.0644
 Frc consts  --      7.6884                 8.4552                 8.3791
 IR Inten    --      9.1986                17.8137                40.9908

 - Thermochemistry -
 -------------------
 Temperature   298.150 Kelvin.  Pressure   1.00000 Atm.
 Atom     1 has atomic number  6 and mass  12.00000

 Molecular mass:   190.99222 amu.
 Principal axes and moments of inertia in atomic units:
                           1         2         3
     Eigenvalues --   858.407073988.876334261.30798
           X            0.99986  -0.01659  -0.00002
           Y            0.01659   0.99969   0.01860
           Z           -0.00029  -0.01860   0.99983
 This molecule is an asymmetric top.
 Rotational symmetry number  1.
 Warning -- assumption of classical behavior for rotation
           may cause significant error
 Rotational temperatures (Kelvin)      0.10090     0.02171     0.02033
 Rotational constants (GHZ):           2.10243     0.45244     0.42352
 Zero-point vibrational energy     365692.0 (Joules/Mol)
                                   87.40249 (Kcal/Mol)
 Warning -- explicit consideration of  20 degrees of freedom as
           vibrations may cause significant error
 Vibrational temperatures:     36.17    62.94    96.45   125.46   147.62
          (Kelvin)            168.99   182.40   265.81   385.98   403.65
                              455.54   492.56   514.75   542.38   617.89
                              751.03   790.67   811.21   875.13   882.33
                             1073.28  1126.71  1152.71  1236.97  1275.39
                             1344.33  1352.13  1506.40  1565.25  1598.11
                             1629.52  1639.56  1737.53  1859.95  1910.11
                             1955.23  1960.74  1980.89  2083.74  2170.23
                             2178.03  2411.50  4324.73  4462.77  4516.30
                             4563.98  4574.60  4626.51  5074.43  5205.64
                             5259.06

 Zero-point correction=                           0.139285 (Hartree/Particle)
 Thermal correction to Energy=                    0.152320
 Thermal correction to Enthalpy=                  0.153264
 Thermal correction to Gibbs Free Energy=         0.097802
 Sum of electronic and zero-point Energies=          -1308.654351
 Sum of electronic and thermal Energies=             -1308.641316
 Sum of electronic and thermal Enthalpies=           -1308.640372
 Sum of electronic and thermal Free Energies=        -1308.695834

                     E (Thermal)             CV                S
                      KCal/Mol        Cal/Mol-Kelvin    Cal/Mol-Kelvin
 Total                   95.582             44.710            116.730
 Electronic               0.000              0.000              0.000
 Translational            0.889              2.981             41.647
 Rotational               0.889              2.981             31.057
 Vibrational             93.805             38.749             44.026
 Vibration     1          0.593              1.985              6.180
 Vibration     2          0.595              1.980              5.082
 Vibration     3          0.598              1.970              4.239
 Vibration     4          0.601              1.958              3.722
 Vibration     5          0.605              1.947              3.404
 Vibration     6          0.608              1.935              3.142
 Vibration     7          0.611              1.926              2.994
 Vibration     8          0.631              1.861              2.280
 Vibration     9          0.673              1.731              1.607
 Vibration    10          0.680              1.710              1.530
 Vibration    11          0.703              1.642              1.328
 Vibration    12          0.721              1.591              1.201
 Vibration    13          0.733              1.559              1.132
 Vibration    14          0.748              1.519              1.051
 Vibration    15          0.791              1.406              0.860
 Vibration    16          0.877              1.201              0.605
 Vibration    17          0.905              1.141              0.545
 Vibration    18          0.920              1.110              0.516
 Vibration    19          0.967              1.014              0.436
 Vibration    20          0.973              1.004              0.427

 Normal termination of Gaussian 16 at Mon Jan  4 09:05:31 2021.

 ----------------------------------------------------------------------
 # B3LYP/6-311++G(d,p) empiricaldispersion=gd3bj scf=xqc pop=npa geom=c
 heck
 ----------------------------------------------------------------------

 --------------------------------------
 CID_132115292_JID_467_Energie_neutraal
 --------------------------------------
 Structure from the checkpoint file:  "JID_467.chk"
 Charge =  0 Multiplicity = 1

 SCF Done:  E(RB3LYP) =  -1309.04290668     A.U. after   14 cycles
 Normal termination of Gaussian 16 at Mon Jan  4 09:06:23 2021.

 ----------------------------------------------------------------------
 # B3LYP/6-311++G(d,p) empiricaldispersion=gd3bj scf=xqc pop=npa geom=c
 heck
 ----------------------------------------------------------------------

 ------------------------------------
 CID_132115292_JID_467_Energie_kation
 ------------------------------------
 Structure from the checkpoint file:  "JID_467.chk"
 Charge =  1 Multiplicity = 2

 SCF Done:  E(UB3LYP) =  -1308.71354899     A.U. after   25 cycles
 Normal termination of Gaussian 16 at Mon Jan  4 09:08:35 2021.
 Gaussian 16:  ES64L-G16RevA.03 25-Dec-2016

 ----------------------------------------------------------------------
 # B3LYP/6-311++G(d,p) empiricaldispersion=gd3bj scf=xqc pop=npa geom=c
 heck
 ----------------------------------------------------------------------

 -----------------------------------
 CID_132115292_JID_467_Energie_anion
 -----------------------------------
 Structure from the checkpoint file:  "JID_467.chk"
 Charge = -1 Multiplicity = 2

                         Standard orientation:
 ---------------------------------------------------------------------
 Center     Atomic      Atomic             Coordinates (Angstroms)
 Number     Number       Type             X           Y           Z
 ---------------------------------------------------------------------
      1          6           0        2.145854   -1.088462   -0.527390
      2          7           0        3.292680   -1.209782    0.351682
      3         16           0        1.566196    0.682008   -0.375680
      4          8           0        1.077800    0.733939    1.063545
      5          8           0        3.085141    1.305142   -0.427069
      6          6           0       -3.492306   -0.283066   -0.107298
      7          8           0       -3.457565    0.774917   -1.002063
      8         16           0       -1.779989   -0.697500    0.523421
      9          8           0       -0.947923   -1.068023   -0.672578
     10          8           0       -1.556297    0.925145    0.881144
     11          1           0        1.267481   -1.691733   -0.287883
     12          1           0        2.442705   -1.243688   -1.567415
     13          1           0        3.002533   -1.369129    1.312255
     14          1           0        3.928227   -1.946541    0.064390
     15          1           0        3.646308    0.609049    0.026767
     16          1           0       -3.857488   -1.175747   -0.621453
     17          1           0       -4.090960   -0.093749    0.798334
     18          1           0       -2.917363    1.468510   -0.577457
     19          1           0       -0.580054    1.019573    1.091136
 ---------------------------------------------------------------------

 SCF Done:  E(UB3LYP) =  -1309.04020384     A.U. after   26 cycles

 The electronic state is 2-A.
 Alpha  occ. eigenvalues --  -88.87001 -88.86455 -19.04269 -19.03665 -19.03456
 Alpha  occ. eigenvalues --  -18.99582 -18.99112 -14.20456 -10.15144 -10.11042
 Alpha  occ. eigenvalues --   -7.94351  -7.93806  -5.90754  -5.90456  -5.90229
 Alpha  occ. eigenvalues --   -5.89905  -5.89890  -5.89339  -0.97373  -0.96448
 Alpha  occ. eigenvalues --   -0.94216  -0.89074  -0.88173  -0.79223  -0.64254
 Alpha  occ. eigenvalues --   -0.61442  -0.54081  -0.51842  -0.43219  -0.42510
 Alpha  occ. eigenvalues --   -0.40930  -0.39318  -0.38446  -0.37654  -0.35360
 Alpha  occ. eigenvalues --   -0.34120  -0.32869  -0.31459  -0.30027  -0.29713
 Alpha  occ. eigenvalues --   -0.26995  -0.25691  -0.22398  -0.22016  -0.21548
 Alpha  occ. eigenvalues --   -0.19324  -0.18740  -0.17227  -0.14321  -0.14079
 Alpha  occ. eigenvalues --    0.04506
 Alpha virt. eigenvalues --    0.06994   0.07518   0.09611   0.10315   0.10524
 Alpha virt. eigenvalues --    0.11257   0.11523   0.12618   0.13126   0.13686
 Alpha virt. eigenvalues --    0.14452   0.14665   0.15121   0.16464   0.16746

  Beta  occ. eigenvalues --  -88.86955 -88.86430 -19.04233 -19.03556 -19.03386
  Beta  occ. eigenvalues --  -18.99554 -18.99083 -14.20319 -10.15118 -10.11014
  Beta  occ. eigenvalues --   -7.94308  -7.93781  -5.90672  -5.90369  -5.90193
  Beta  occ. eigenvalues --   -5.89881  -5.89837  -5.89320  -0.97204  -0.96297
  Beta  occ. eigenvalues --   -0.94083  -0.88938  -0.88043  -0.79017  -0.64119
  Beta  occ. eigenvalues --   -0.61265  -0.53971  -0.51701  -0.43120  -0.42367
  Beta  occ. eigenvalues --   -0.40730  -0.39197  -0.38265  -0.37491  -0.35262
  Beta  occ. eigenvalues --   -0.34026  -0.32696  -0.31344  -0.29902  -0.29596
  Beta  occ. eigenvalues --   -0.26899  -0.25609  -0.22297  -0.21919  -0.21416
  Beta  occ. eigenvalues --   -0.19182  -0.18595  -0.17097  -0.14219  -0.13937
  Beta virt. eigenvalues --    0.07395   0.07537   0.08602   0.09959   0.10486
  Beta virt. eigenvalues --    0.10967   0.11705   0.12019   0.13034   0.13381
  Beta virt. eigenvalues --    0.14140   0.14595   0.14847   0.15314   0.16599

 Mulliken charges and spin densities:
               1          2
     1  C    0.402743  -0.953563
     2  N   -0.320178  -0.151777
     3  S    0.861031  -0.302406
     4  O   -0.597396   0.054588
     5  O   -0.322229   0.016787
     6  C   -0.456247   0.057521
     7  O   -0.246596  -0.018892
     8  S    0.425780   0.100449
     9  O   -0.460617   0.005348
    10  O   -0.475814  -0.019130
    11  H    0.132322   0.127642
    12  H   -0.158929   0.347710
    13  H   -0.080073   0.349094
    14  H   -0.811134   1.107135
    15  H    0.235729   0.110551
    16  H    0.203289  -0.003580
    17  H    0.152379   0.002892
    18  H    0.232251   0.050439
    19  H    0.283689   0.119191
 Sum of Mulliken charges =  -1.00000   1.00000

 Dipole moment (field-independent basis, Debye):
    X=             -9.1926    Y=              2.0330    Z=              0.1049  Tot=              9.4154
 Quadrupole moment (field-independent basis, Debye-Ang):
   XX=           -141.8906   YY=           -104.6346   ZZ=            -95.6742
   XY=             19.3809   XZ=             -7.4132   YZ=              0.2093

 Summary of Natural Population Analysis:

                                       Natural Population
                Natural  -----------------------------------------------
    Atom  No    Charge         Core      Valence    Rydberg      Total
 -----------------------------------------------------------------------
      C    1   -0.17156      0.99963     2.15540    0.01653     3.17156
      N    2   -0.43729      0.99975     2.92390    0.01364     3.93729
      S    3    0.71345      4.99954     2.23041    0.05660     7.28655
      O    4   -0.49528      0.99992     3.48715    0.00822     4.49528
      O    5   -0.44208      0.99992     3.43518    0.00698     4.44208
      C    6   -0.09345      0.99966     2.07554    0.01826     3.09345
      O    7   -0.35825      0.99989     3.34975    0.00860     4.35825
      S    8    0.68932      4.99959     2.24364    0.06745     7.31068
      O    9   -0.46995      0.99993     3.46245    0.00757     4.46995
      O   10   -0.46395      0.99991     3.45652    0.00753     4.46395
      H   11    0.11204      0.00000     0.38523    0.00273     0.38796
      H   12    0.10011      0.00000     0.39808    0.00180     0.39989
      H   13    0.19241      0.00000     0.30332    0.00427     0.30759
      H   14    0.20355      0.00000     0.25811    0.03834     0.29645
      H   15    0.24827      0.00000     0.24651    0.00522     0.25173
      H   16    0.09123      0.00000     0.40759    0.00119     0.40877
      H   17    0.07860      0.00000     0.41984    0.00156     0.42140
      H   18    0.24252      0.00000     0.25410    0.00338     0.25748
      H   19    0.26033      0.00000     0.23382    0.00585     0.23967
 =======================================================================
   * Total *    0.00000     17.99773    31.72654    0.27573    50.00000

 Normal termination of Gaussian 16 at Mon Jan  4 09:10:49 2021.
