 Gaussian 16, Revision A.03,

 -----------------------------------------------------------
 # opt freq B3LYP/6-31G(d) empiricaldispersion=gd3bj scf=xqc
 -----------------------------------------------------------

 ------------------------------
 CID_64453185_JID_7614_neutraal
 ------------------------------
 Symbolic Z-matrix:
 Charge =  0 Multiplicity = 1

 SCF Done:  E(RB3LYP) =  -759.998239417     A.U. after   15 cycles
 SCF Done:  E(RB3LYP) =  -760.004497313     A.U. after   13 cycles
 SCF Done:  E(RB3LYP) =  -760.005786214     A.U. after   13 cycles
 SCF Done:  E(RB3LYP) =  -760.006988049     A.U. after   13 cycles
 SCF Done:  E(RB3LYP) =  -760.007819373     A.U. after   13 cycles
 SCF Done:  E(RB3LYP) =  -760.007266241     A.U. after   15 cycles
 SCF Done:  E(RB3LYP) =  -760.009319860     A.U. after   13 cycles
 SCF Done:  E(RB3LYP) =  -760.009614626     A.U. after   13 cycles
 SCF Done:  E(RB3LYP) =  -760.010350797     A.U. after   12 cycles
 SCF Done:  E(RB3LYP) =  -760.010917343     A.U. after   12 cycles
 SCF Done:  E(RB3LYP) =  -760.015610396     A.U. after   10 cycles
 SCF Done:  E(RB3LYP) =  -760.015610825     A.U. after    7 cycles
 SCF Done:  E(RB3LYP) =  -760.015610997     A.U. after    8 cycles
 SCF Done:  E(RB3LYP) =  -760.015611028     A.U. after    6 cycles
 SCF Done:  E(RB3LYP) =  -760.015611033     A.U. after    6 cycles
 Optimization completed.
    -- Stationary point found.
 Normal termination of Gaussian 16 at Fri Dec 11 13:33:46 2020.

 --------------------------------------------------------------------
 #N Geom=AllCheck Guess=TCheck SCRF=Check GenChk RB3LYP/6-31G(d) Freq
 --------------------------------------------------------------------

 Structure from the checkpoint file:  "JID_7614.chk"
 ------------------------------
 CID_64453185_JID_7614_neutraal
 ------------------------------
 Charge =  0 Multiplicity = 1

 SCF Done:  E(RB3LYP) =  -760.015611033     A.U. after    1 cycles

  Exact polarizability: 209.405   3.605 164.114   0.287  -8.477  90.679
 Approx polarizability: 293.157  -0.964 254.854  -2.952 -15.456 154.056

                      1                      2                      3
                      A                      A                      A
 Frequencies --     34.7510                44.3957                55.8466
 Red. masses --      4.0795                 1.2075                 2.6621
 Frc consts  --      0.0029                 0.0014                 0.0049
 IR Inten    --      0.4315                 0.1616                 2.7428

                      4                      5                      6
                      A                      A                      A
 Frequencies --     65.7542                82.5034                95.7403
 Red. masses --      4.5864                 1.4592                 2.1727
 Frc consts  --      0.0117                 0.0059                 0.0117
 IR Inten    --      4.4396                 1.9891                 2.2650

                      7                      8                      9
                      A                      A                      A
 Frequencies --    129.1892               151.6777               195.4638
 Red. masses --      3.8755                 1.1614                 2.9877
 Frc consts  --      0.0381                 0.0157                 0.0673
 IR Inten    --      2.2949                 0.5746                 0.8099

                     10                     11                     12
                      A                      A                      A
 Frequencies --    217.2152               233.3330               245.3850
 Red. masses --      3.6393                 4.5592                 4.5223
 Frc consts  --      0.1012                 0.1462                 0.1604
 IR Inten    --      2.3696                 2.1345                 2.2675

                     13                     14                     15
                      A                      A                      A
 Frequencies --    275.0354               292.3736               304.3853
 Red. masses --      3.6018                 3.8332                 3.7819
 Frc consts  --      0.1605                 0.1931                 0.2064
 IR Inten    --      9.0509                 5.0426                 6.4853

                     16                     17                     18
                      A                      A                      A
 Frequencies --    330.4495               383.1139               416.1198
 Red. masses --      4.3841                 3.7955                 4.1372
 Frc consts  --      0.2821                 0.3282                 0.4221
 IR Inten    --      2.3266                 2.3956                 7.8769

                     19                     20                     21
                      A                      A                      A
 Frequencies --    465.1823               515.5878               544.4602
 Red. masses --      3.7901                 3.0774                 3.9141
 Frc consts  --      0.4832                 0.4820                 0.6836
 IR Inten    --      4.4082                 5.5223                 8.9521

                     22                     23                     24
                      A                      A                      A
 Frequencies --    581.8427               602.5131               625.7671
 Red. masses --      3.1783                 4.4617                 1.8537
 Frc consts  --      0.6339                 0.9543                 0.4277
 IR Inten    --      1.8318                 4.6290                33.6954

                     25                     26                     27
                      A                      A                      A
 Frequencies --    637.9460               647.1635               677.5357
 Red. masses --      3.2594                 3.7857                 4.4714
 Frc consts  --      0.7816                 0.9342                 1.2094
 IR Inten    --      2.2226                 9.9005                 6.3158

                     28                     29                     30
                      A                      A                      A
 Frequencies --    683.7226               711.7605               727.4244
 Red. masses --      3.7447                 1.3093                 4.1338
 Frc consts  --      1.0314                 0.3908                 1.2888
 IR Inten    --      4.7388               212.6942                11.1686

                     31                     32                     33
                      A                      A                      A
 Frequencies --    763.8251               772.1367               814.0764
 Red. masses --      5.2277                 1.2584                 6.3707
 Frc consts  --      1.7970                 0.4420                 2.4875
 IR Inten    --     38.1154                39.9730                48.1314

                     34                     35                     36
                      A                      A                      A
 Frequencies --    859.2176               867.5619               885.6906
 Red. masses --      1.5569                 3.5407                 1.2659
 Frc consts  --      0.6772                 1.5701                 0.5851
 IR Inten    --      1.8460                27.6596                 5.6994

                     37                     38                     39
                      A                      A                      A
 Frequencies --    990.3858               994.3021              1009.8740
 Red. masses --      4.5832                 1.7803                 2.6882
 Frc consts  --      2.6487                 1.0370                 1.6153
 IR Inten    --      7.6399                 0.5342                22.3171

                     40                     41                     42
                      A                      A                      A
 Frequencies --   1040.3143              1056.6460              1059.4172
 Red. masses --      2.3640                 2.2859                 1.5203
 Frc consts  --      1.5074                 1.5037                 1.0054
 IR Inten    --     17.9954                 5.6233                 1.6976

                     43                     44                     45
                      A                      A                      A
 Frequencies --   1071.6971              1076.1725              1076.4503
 Red. masses --      1.5822                 1.4898                 1.5547
 Frc consts  --      1.0707                 1.0166                 1.0614
 IR Inten    --      7.7172                 3.2970                 0.1651

                     46                     47                     48
                      A                      A                      A
 Frequencies --   1089.1550              1114.3714              1191.5316
 Red. masses --      1.3648                 5.7429                 1.7734
 Frc consts  --      0.9539                 4.2019                 1.4834
 IR Inten    --     56.8117                 6.0607                 8.6893

                     49                     50                     51
                      A                      A                      A
 Frequencies --   1202.9507              1235.4461              1277.1602
 Red. masses --      2.4594                 1.5558                 2.9382
 Frc consts  --      2.0969                 1.3991                 2.8237
 IR Inten    --     19.0013                 9.2914                 1.5879

                     52                     53                     54
                      A                      A                      A
 Frequencies --   1314.0193              1338.2206              1383.9206
 Red. masses --      7.4772                 4.9743                 3.3357
 Frc consts  --      7.6066                 5.2485                 3.7641
 IR Inten    --      0.1120                17.6014                83.5751

                     55                     56                     57
                      A                      A                      A
 Frequencies --   1400.9285              1425.7101              1437.3875
 Red. masses --      4.4543                 2.3186                 1.4317
 Frc consts  --      5.1506                 2.7768                 1.7428
 IR Inten    --     10.2433               161.2823                 3.2946

                     58                     59                     60
                      A                      A                      A
 Frequencies --   1439.0521              1441.2422              1461.0728
 Red. masses --      1.6421                 1.5150                 3.5630
 Frc consts  --      2.0036                 1.8541                 4.4813
 IR Inten    --      9.4295                17.0809                92.1439

                     61                     62                     63
                      A                      A                      A
 Frequencies --   1497.5439              1505.3077              1506.3249
 Red. masses --      1.9354                 1.6367                 1.0505
 Frc consts  --      2.5573                 2.1851                 1.4044
 IR Inten    --      3.4628                10.4308                12.2353

                     64                     65                     66
                      A                      A                      A
 Frequencies --   1511.2141              1512.1701              1518.6200
 Red. masses --      1.6522                 1.0811                 1.1900
 Frc consts  --      2.2232                 1.4565                 1.6170
 IR Inten    --    100.3675                 9.9708                24.7523

                     67                     68                     69
                      A                      A                      A
 Frequencies --   1522.4603              1526.3055              1598.6824
 Red. masses --      1.2955                 1.4285                 4.6034
 Frc consts  --      1.7692                 1.9607                 6.9319
 IR Inten    --     21.9964                26.9313               101.0223

                     70                     71                     72
                      A                      A                      A
 Frequencies --   1602.9352              1652.1735              1680.8056
 Red. masses --      6.0139                 6.6826                 1.2231
 Frc consts  --      9.1042                10.7474                 2.0358
 IR Inten    --     65.9546               106.7129                82.4834

                     73                     74                     75
                      A                      A                      A
 Frequencies --   1783.7635              3052.6240              3057.8782
 Red. masses --      8.0763                 1.0377                 1.0367
 Frc consts  --     15.1404                 5.6975                 5.7117
 IR Inten    --    301.0799                30.5077                16.8624

                     76                     77                     78
                      A                      A                      A
 Frequencies --   3066.7934              3106.3254              3117.6325
 Red. masses --      1.0362                 1.1008                 1.1000
 Frc consts  --      5.7421                 6.2580                 6.2994
 IR Inten    --     15.0037                15.8461                11.7007

                     79                     80                     81
                      A                      A                      A
 Frequencies --   3132.2944              3142.9313              3143.2051
 Red. masses --      1.1009                 1.1010                 1.1032
 Frc consts  --      6.3640                 6.4080                 6.4214
 IR Inten    --     11.1481                10.6994                15.3768

                     82                     83                     84
                      A                      A                      A
 Frequencies --   3148.4978              3200.2197              3275.5647
 Red. masses --      1.1026                 1.0912                 1.0944
 Frc consts  --      6.4398                 6.5845                 6.9182
 IR Inten    --     11.1715                15.1234                 2.3532

                     85                     86                     87
                      A                      A                      A
 Frequencies --   3311.4650              3438.3140              3621.0188
 Red. masses --      1.1017                 1.0570                 1.0919
 Frc consts  --      7.1182                 7.3620                 8.4354
 IR Inten    --      0.3739               269.2832                68.4508

 - Thermochemistry -
 -------------------
 Temperature   298.150 Kelvin.  Pressure   1.00000 Atm.
 Atom     1 has atomic number  6 and mass  12.00000

 Molecular mass:   230.11676 amu.
 Principal axes and moments of inertia in atomic units:
                           1         2         3
     Eigenvalues --  2631.814154726.958546809.47551
           X            0.99982   0.01914  -0.00118
           Y           -0.01915   0.99971  -0.01441
           Z            0.00090   0.01443   0.99990
 This molecule is an asymmetric top.
 Rotational symmetry number  1.
 Warning -- assumption of classical behavior for rotation
           may cause significant error
 Rotational temperatures (Kelvin)      0.03291     0.01832     0.01272
 Rotational constants (GHZ):           0.68574     0.38180     0.26503
 Zero-point vibrational energy     659720.4 (Joules/Mol)
                                  157.67697 (Kcal/Mol)
 Warning -- explicit consideration of  23 degrees of freedom as
           vibrations may cause significant error
 Vibrational temperatures:     50.00    63.88    80.35    94.61   118.70
          (Kelvin)            137.75   185.87   218.23   281.23   312.52
                              335.71   353.05   395.71   420.66   437.94
                              475.44   551.22   598.70   669.29   741.82
                              783.36   837.14   866.88   900.34   917.86
                              931.12   974.82   983.72  1024.06  1046.60
                             1098.97  1110.93  1171.27  1236.22  1248.23
                             1274.31  1424.94  1430.58  1452.98  1496.78
                             1520.28  1524.27  1541.93  1548.37  1548.77
                             1567.05  1603.33  1714.35  1730.78  1777.53
                             1837.55  1890.58  1925.40  1991.15  2015.62
                             2051.28  2068.08  2070.47  2073.63  2102.16
                             2154.63  2165.80  2167.27  2174.30  2175.68
                             2184.96  2190.48  2196.01  2300.15  2306.27
                             2377.11  2418.30  2566.44  4392.05  4399.60
                             4412.43  4469.31  4485.58  4506.67  4521.98
                             4522.37  4529.99  4604.40  4712.81  4764.46
                             4946.97  5209.84

 Zero-point correction=                           0.251274 (Hartree/Particle)
 Thermal correction to Energy=                    0.267487
 Thermal correction to Enthalpy=                  0.268431
 Thermal correction to Gibbs Free Energy=         0.206428
 Sum of electronic and zero-point Energies=           -759.764337
 Sum of electronic and thermal Energies=              -759.748124
 Sum of electronic and thermal Enthalpies=            -759.747180
 Sum of electronic and thermal Free Energies=         -759.809183

                     E (Thermal)             CV                S
                      KCal/Mol        Cal/Mol-Kelvin    Cal/Mol-Kelvin
 Total                  167.851             60.161            130.496
 Electronic               0.000              0.000              0.000
 Translational            0.889              2.981             42.202
 Rotational               0.889              2.981             32.804
 Vibrational            166.073             54.199             55.489
 Vibration     1          0.594              1.983              5.538
 Vibration     2          0.595              1.980              5.053
 Vibration     3          0.596              1.975              4.599
 Vibration     4          0.597              1.971              4.277
 Vibration     5          0.600              1.961              3.830
 Vibration     6          0.603              1.952              3.539
 Vibration     7          0.612              1.924              2.958
 Vibration     8          0.619              1.901              2.651
 Vibration     9          0.636              1.846              2.175
 Vibration    10          0.646              1.815              1.982
 Vibration    11          0.654              1.790              1.853
 Vibration    12          0.660              1.770              1.763
 Vibration    13          0.677              1.719              1.564
 Vibration    14          0.688              1.688              1.460
 Vibration    15          0.695              1.665              1.393
 Vibration    16          0.713              1.615              1.258
 Vibration    17          0.752              1.506              1.027
 Vibration    18          0.779              1.435              0.905
 Vibration    19          0.823              1.327              0.751
 Vibration    20          0.871              1.215              0.620
 Vibration    21          0.900              1.152              0.556
 Vibration    22          0.939              1.071              0.482
 Vibration    23          0.961              1.026              0.445

 Optimization completed.
    -- Stationary point found.
 Normal termination of Gaussian 16 at Fri Dec 11 13:44:48 2020.

 ----------------------------------------------------------------------
 # B3LYP/6-311++G(d,p) empiricaldispersion=gd3bj scf=xqc pop=npa geom=c
 heck
 ----------------------------------------------------------------------

 --------------------------------------
 CID_64453185_JID_7614_Energie_neutraal
 --------------------------------------
 Structure from the checkpoint file:  "JID_7614.chk"
 Charge =  0 Multiplicity = 1

 SCF Done:  E(RB3LYP) =  -760.223546785     A.U. after   16 cycles
 Normal termination of Gaussian 16 at Fri Dec 11 13:50:13 2020.

 ----------------------------------------------------------------------
 # B3LYP/6-311++G(d,p) empiricaldispersion=gd3bj scf=xqc pop=npa geom=c
 heck
 ----------------------------------------------------------------------

 ------------------------------------
 CID_64453185_JID_7614_Energie_kation
 ------------------------------------
 Structure from the checkpoint file:  "JID_7614.chk"
 Charge =  1 Multiplicity = 2

 SCF Done:  E(UB3LYP) =  -759.921571967     A.U. after   25 cycles
 Normal termination of Gaussian 16 at Fri Dec 11 14:01:33 2020.
 Gaussian 16:  ES64L-G16RevA.03 25-Dec-2016

 ----------------------------------------------------------------------
 # B3LYP/6-311++G(d,p) empiricaldispersion=gd3bj scf=xqc pop=npa geom=c
 heck
 ----------------------------------------------------------------------

 -----------------------------------
 CID_64453185_JID_7614_Energie_anion
 -----------------------------------
 Structure from the checkpoint file:  "JID_7614.chk"
 Charge = -1 Multiplicity = 2

                         Standard orientation:
 ---------------------------------------------------------------------
 Center     Atomic      Atomic             Coordinates (Angstroms)
 Number     Number       Type             X           Y           Z
 ---------------------------------------------------------------------
      1          6           0       -4.473554   -0.244697    0.828079
      2          6           0       -3.245763    0.349174    0.212073
      3          7           0       -2.039589   -0.129436    0.508480
      4          7           0       -1.160413    0.610742   -0.228593
      5          6           0       -1.802980    1.572543   -0.952400
      6          6           0       -3.148283    1.425226   -0.709105
      7          6           0        0.250896    0.511209   -0.061035
      8          6           0        0.928008   -0.718923   -0.009017
      9          6           0        2.320065   -0.662482    0.215560
     10          6           0        2.925545    0.588387    0.329202
     11          6           0        2.171134    1.751863    0.176167
     12          7           0        0.845520    1.703260   -0.000325
     13          6           0        2.793698    3.121994    0.214882
     14          6           0        3.155635   -1.912602    0.313810
     15          6           0        0.341083   -2.079030   -0.345038
     16          8           0        0.823696   -2.729271   -1.265750
     17          7           0       -0.631169   -2.553168    0.481112
     18          1           0       -5.074072    0.521658    1.330960
     19          1           0       -4.197879   -1.003915    1.564806
     20          1           0       -5.111269   -0.715137    0.070099
     21          1           0       -1.242487    2.267210   -1.557291
     22          1           0       -3.956067    2.004625   -1.131915
     23          1           0        3.993632    0.655168    0.512848
     24          1           0        3.862412    3.072269    0.440799
     25          1           0        2.665870    3.624744   -0.750743
     26          1           0        2.300240    3.743834    0.969093
     27          1           0        4.155951   -1.678179    0.688108
     28          1           0        2.694574   -2.647053    0.982217
     29          1           0        3.240418   -2.389605   -0.666218
     30          1           0       -1.235664   -1.856103    0.917669
     31          1           0       -1.078574   -3.401114    0.151777
 ---------------------------------------------------------------------

 SCF Done:  E(UB3LYP) =  -760.217168962     A.U. after   33 cycles
 SCF Done:  E(UB3LYP) =  -760.217168963     a.u. after    2 cycles

 The electronic state is 2-A.
 Alpha  occ. eigenvalues --  -18.97088 -14.27802 -14.22090 -14.20528 -14.16415
 Alpha  occ. eigenvalues --  -10.15561 -10.12483 -10.09516 -10.09364 -10.08192
 Alpha  occ. eigenvalues --  -10.06831 -10.06190 -10.05857 -10.05701 -10.05188
 Alpha  occ. eigenvalues --  -10.04867 -10.04525  -0.94233  -0.92019  -0.82579
 Alpha  occ. eigenvalues --   -0.78524  -0.73637  -0.69596  -0.67728  -0.65830
 Alpha  occ. eigenvalues --   -0.61501  -0.59815  -0.57842  -0.52566  -0.49875
 Alpha  occ. eigenvalues --   -0.47922  -0.45497  -0.44306  -0.42525  -0.41087
 Alpha  occ. eigenvalues --   -0.39018  -0.36826  -0.34906  -0.34266  -0.33050
 Alpha  occ. eigenvalues --   -0.32122  -0.32028  -0.30604  -0.30429  -0.30181
 Alpha  occ. eigenvalues --   -0.29792  -0.28885  -0.27847  -0.27438  -0.27302
 Alpha  occ. eigenvalues --   -0.25560  -0.25132  -0.24240  -0.20013  -0.16674
 Alpha  occ. eigenvalues --   -0.16435  -0.15711  -0.14689  -0.14209  -0.13208
 Alpha  occ. eigenvalues --   -0.11675   0.04848
 Alpha virt. eigenvalues --    0.06382   0.07620   0.08144   0.08458   0.08979
 Alpha virt. eigenvalues --    0.09204   0.09944   0.10587   0.11097   0.11400
 Alpha virt. eigenvalues --    0.12087   0.12351   0.13092   0.13208   0.13273

  Beta  occ. eigenvalues --  -18.97045 -14.27811 -14.22046 -14.20509 -14.16063
  Beta  occ. eigenvalues --  -10.15516 -10.12434 -10.09476 -10.09351 -10.08041
  Beta  occ. eigenvalues --  -10.06800 -10.06223 -10.05874 -10.05691 -10.04903
  Beta  occ. eigenvalues --  -10.04750 -10.04568  -0.94184  -0.91939  -0.82134
  Beta  occ. eigenvalues --   -0.78481  -0.73505  -0.69093  -0.67602  -0.65666
  Beta  occ. eigenvalues --   -0.61374  -0.59694  -0.57764  -0.52457  -0.49719
  Beta  occ. eigenvalues --   -0.47785  -0.45261  -0.44168  -0.42382  -0.40994
  Beta  occ. eigenvalues --   -0.38849  -0.36706  -0.34775  -0.34180  -0.32938
  Beta  occ. eigenvalues --   -0.31986  -0.31692  -0.30483  -0.30250  -0.29909
  Beta  occ. eigenvalues --   -0.29689  -0.28797  -0.27714  -0.27381  -0.27221
  Beta  occ. eigenvalues --   -0.25337  -0.24546  -0.23968  -0.19932  -0.16331
  Beta  occ. eigenvalues --   -0.16022  -0.15358  -0.14382  -0.13177  -0.12809
  Beta  occ. eigenvalues --   -0.11305
  Beta virt. eigenvalues --    0.07039   0.07584   0.08422   0.08745   0.09044
  Beta virt. eigenvalues --    0.09250   0.09719   0.10306   0.10838   0.11178
  Beta virt. eigenvalues --    0.11562   0.12226   0.12550   0.13140   0.13283

 Mulliken charges and spin densities:
               1          2
     1  C    1.737149  -2.486333
     2  C   -0.920756   0.725103
     3  N   -0.024676   0.064208
     4  N    0.359057  -0.019710
     5  C   -0.078807   0.031881
     6  C   -0.218495   0.389275
     7  C   -1.205022   0.134961
     8  C    0.603637  -0.112677
     9  C    0.741588   0.252605
    10  C   -0.579254   0.000293
    11  C   -0.006603   0.132360
    12  N   -0.137942   0.182805
    13  C   -0.452199  -0.085809
    14  C   -0.521081  -0.017544
    15  C   -0.373647   0.097514
    16  O   -0.329656   0.014046
    17  N   -0.286262  -0.001568
    18  H   -0.164908   0.313000
    19  H   -0.090989   0.232450
    20  H   -0.223292   0.380441
    21  H    0.104301   0.067499
    22  H   -0.350730   0.528026
    23  H    0.091282   0.002072
    24  H    0.129240   0.002368
    25  H    0.095436   0.050598
    26  H    0.149666   0.001949
    27  H    0.097974   0.005823
    28  H    0.139308   0.028991
    29  H    0.185559   0.022347
    30  H    0.367244  -0.043840
    31  H    0.162879   0.106865
 Sum of Mulliken charges =  -1.00000   1.00000

 Dipole moment (field-independent basis, Debye):
    X=              3.9081    Y=              1.1646    Z=              0.9985  Tot=              4.1984
 Quadrupole moment (field-independent basis, Debye-Ang):
   XX=           -158.7214   YY=           -133.6743   ZZ=           -119.6267
   XY=              4.9040   XZ=              3.6446   YZ=             -5.9445

 Summary of Natural Population Analysis:

                                       Natural Population
                Natural  -----------------------------------------------
    Atom  No    Charge         Core      Valence    Rydberg      Total
 -----------------------------------------------------------------------
      C    1   -0.29854      0.99963     2.29336    0.00555     3.29854
      C    2    0.08168      0.99961     1.90479    0.01392     2.91832
      N    3   -0.17281      0.99967     2.66094    0.01220     3.67281
      N    4   -0.10989      0.99962     2.59837    0.01190     3.60989
      C    5    0.01845      0.99957     1.97137    0.01061     2.98155
      C    6   -0.16775      0.99951     2.15943    0.00880     3.16775
      C    7    0.20795      0.99946     1.77758    0.01501     2.79205
      C    8   -0.09396      0.99936     2.08460    0.00999     3.09396
      C    9    0.09547      0.99951     1.89757    0.00745     2.90453
      C   10   -0.13929      0.99947     2.13266    0.00716     3.13929
      C   11    0.13760      0.99956     1.85099    0.01185     2.86240
      N   12   -0.21349      0.99963     2.70395    0.00991     3.71349
      C   13   -0.29573      0.99964     2.29129    0.00480     3.29573
      C   14   -0.30111      0.99964     2.29699    0.00448     3.30111
      C   15    0.34182      0.99967     1.63366    0.02485     2.65818
      O   16   -0.32056      0.99988     3.31514    0.00555     4.32056
      N   17   -0.40639      0.99969     2.89870    0.00801     3.90639
      H   18    0.10384      0.00000     0.39509    0.00107     0.39616
      H   19    0.10584      0.00000     0.39295    0.00121     0.39416
      H   20    0.10536      0.00000     0.39296    0.00168     0.39464
      H   21    0.11089      0.00000     0.38778    0.00133     0.38911
      H   22    0.10653      0.00000     0.39253    0.00094     0.39347
      H   23    0.09290      0.00000     0.40611    0.00100     0.40710
      H   24    0.09325      0.00000     0.40597    0.00078     0.40675
      H   25    0.10332      0.00000     0.39520    0.00148     0.39668
      H   26    0.10450      0.00000     0.39449    0.00101     0.39550
      H   27    0.09277      0.00000     0.40637    0.00086     0.40723
      H   28    0.10468      0.00000     0.39446    0.00085     0.39532
      H   29    0.11759      0.00000     0.38144    0.00097     0.38241
      H   30    0.21062      0.00000     0.28664    0.00273     0.28938
      H   31    0.18447      0.00000     0.31312    0.00241     0.31553
 =======================================================================
   * Total *    0.00000     16.99313    43.81651    0.19037    61.00000

 Normal termination of Gaussian 16 at Fri Dec 11 14:39:32 2020.
