 Gaussian 16, Revision A.03,

 -----------------------------------------------------------
 # opt freq B3LYP/6-31G(d) empiricaldispersion=gd3bj scf=xqc
 -----------------------------------------------------------

 -------------------------------
 CID_62327992_JID_10020_neutraal
 -------------------------------
 Symbolic Z-matrix:
 Charge =  0 Multiplicity = 1

 SCF Done:  E(RB3LYP) =  -1219.57042087     A.U. after   15 cycles
 SCF Done:  E(RB3LYP) =  -1219.57735565     A.U. after   14 cycles
 SCF Done:  E(RB3LYP) =  -1219.57698865     A.U. after   15 cycles
 SCF Done:  E(RB3LYP) =  -1219.57945899     A.U. after   11 cycles
 SCF Done:  E(RB3LYP) =  -1219.58017126     A.U. after   12 cycles
 SCF Done:  E(RB3LYP) =  -1219.58041261     A.U. after   12 cycles
 SCF Done:  E(RB3LYP) =  -1219.58046183     A.U. after   12 cycles
 SCF Done:  E(RB3LYP) =  -1219.58048786     A.U. after   11 cycles
 SCF Done:  E(RB3LYP) =  -1219.58050302     A.U. after   10 cycles
 SCF Done:  E(RB3LYP) =  -1219.58051372     A.U. after   11 cycles
 SCF Done:  E(RB3LYP) =  -1219.58051790     A.U. after   10 cycles
 SCF Done:  E(RB3LYP) =  -1219.58051920     A.U. after    9 cycles
 SCF Done:  E(RB3LYP) =  -1219.58051956     A.U. after    8 cycles
 SCF Done:  E(RB3LYP) =  -1219.58051971     A.U. after    8 cycles
 SCF Done:  E(RB3LYP) =  -1219.58051979     A.U. after    7 cycles
 Optimization completed.
    -- Stationary point found.
 Normal termination of Gaussian 16 at Sat Dec 12 14:57:30 2020.

 --------------------------------------------------------------------
 #N Geom=AllCheck Guess=TCheck SCRF=Check GenChk RB3LYP/6-31G(d) Freq
 --------------------------------------------------------------------

 Structure from the checkpoint file:  "JID_10020.chk"
 -------------------------------
 CID_62327992_JID_10020_neutraal
 -------------------------------
 Charge =  0 Multiplicity = 1

 SCF Done:  E(RB3LYP) =  -1219.58051979     A.U. after    1 cycles

  Exact polarizability: 258.976 -20.924 168.851  -8.556  17.430 161.298
 Approx polarizability: 347.664 -36.719 283.901  -6.867  46.295 299.703

                      1                      2                      3
                      A                      A                      A
 Frequencies --     24.1920                31.3531                40.1824
 Red. masses --      4.4631                 5.4397                 3.3072
 Frc consts  --      0.0015                 0.0032                 0.0031
 IR Inten    --      0.1340                 0.4280                 1.6274

                      4                      5                      6
                      A                      A                      A
 Frequencies --     56.6769                62.3037                88.6580
 Red. masses --      5.2496                 4.5610                 3.8563
 Frc consts  --      0.0099                 0.0104                 0.0179
 IR Inten    --      1.4401                 1.6998                 3.8971

                      7                      8                      9
                      A                      A                      A
 Frequencies --     98.1404               122.1936               146.0454
 Red. masses --      5.7354                 3.7097                 3.6966
 Frc consts  --      0.0325                 0.0326                 0.0465
 IR Inten    --      3.8229                 1.5784                 2.2808

                     10                     11                     12
                      A                      A                      A
 Frequencies --    161.7818               176.4269               196.1318
 Red. masses --      2.6321                 5.0622                 2.7192
 Frc consts  --      0.0406                 0.0928                 0.0616
 IR Inten    --      0.3153                 2.9064                 2.4550

                     13                     14                     15
                      A                      A                      A
 Frequencies --    233.2238               257.5582               304.6963
 Red. masses --      2.1186                 3.9098                 2.2825
 Frc consts  --      0.0679                 0.1528                 0.1249
 IR Inten    --      2.6340                 1.2163                 0.1982

                     16                     17                     18
                      A                      A                      A
 Frequencies --    324.4504               353.5376               362.7167
 Red. masses --      4.3020                 5.4624                 4.0960
 Frc consts  --      0.2668                 0.4023                 0.3175
 IR Inten    --      0.5157                 1.1339                 9.2943

                     19                     20                     21
                      A                      A                      A
 Frequencies --    400.3515               431.1938               438.9637
 Red. masses --      2.8260                 3.1643                 2.8297
 Frc consts  --      0.2669                 0.3466                 0.3213
 IR Inten    --      8.1216                 0.6845                 1.8696

                     22                     23                     24
                      A                      A                      A
 Frequencies --    463.0960               466.7511               495.7156
 Red. masses --      1.5494                 3.0934                 2.1683
 Frc consts  --      0.1958                 0.3971                 0.3139
 IR Inten    --    110.1250                 4.1436               118.0811

                     25                     26                     27
                      A                      A                      A
 Frequencies --    526.0548               533.5397               569.1109
 Red. masses --      3.1043                 4.5067                 3.5385
 Frc consts  --      0.5061                 0.7559                 0.6753
 IR Inten    --      8.4522                 3.1758                12.4039

                     28                     29                     30
                      A                      A                      A
 Frequencies --    584.9944               597.3350               607.0769
 Red. masses --      2.3309                 1.5769                 5.2887
 Frc consts  --      0.4700                 0.3315                 1.1484
 IR Inten    --     21.8094                70.3542                 3.6855

                     31                     32                     33
                      A                      A                      A
 Frequencies --    649.6473               657.5541               683.3065
 Red. masses --      3.4644                 6.0504                 3.5821
 Frc consts  --      0.8615                 1.5413                 0.9854
 IR Inten    --      5.2397                 4.6248                50.1205

                     34                     35                     36
                      A                      A                      A
 Frequencies --    708.7552               737.3564               769.2727
 Red. masses --      5.2605                 3.9042                 1.8233
 Frc consts  --      1.5569                 1.2507                 0.6357
 IR Inten    --      0.6705                14.5982                14.9789

                     37                     38                     39
                      A                      A                      A
 Frequencies --    782.5530               805.3922               814.3711
 Red. masses --      2.1682                 1.7856                 1.5932
 Frc consts  --      0.7823                 0.6824                 0.6225
 IR Inten    --     23.5135                 9.9808                18.0186

                     40                     41                     42
                      A                      A                      A
 Frequencies --    832.6940               855.7154               888.2550
 Red. masses --      1.5995                 2.4282                 2.6354
 Frc consts  --      0.6535                 1.0476                 1.2251
 IR Inten    --     14.5475                 9.8431                14.3217

                     43                     44                     45
                      A                      A                      A
 Frequencies --    901.7955               910.8720               935.8853
 Red. masses --      2.6506                 4.2129                 2.7229
 Frc consts  --      1.2700                 2.0594                 1.4051
 IR Inten    --      1.5916                 6.6681                27.2851

                     46                     47                     48
                      A                      A                      A
 Frequencies --    939.0357               950.2992               960.2475
 Red. masses --      1.4917                 1.2419                 1.3569
 Frc consts  --      0.7750                 0.6608                 0.7372
 IR Inten    --      4.6860                 2.2049                 0.7087

                     49                     50                     51
                      A                      A                      A
 Frequencies --    971.0258               972.9059              1010.4940
 Red. masses --      1.3328                 1.3355                 2.2248
 Frc consts  --      0.7404                 0.7448                 1.3384
 IR Inten    --      0.3052                 0.1562                58.4252

                     52                     53                     54
                      A                      A                      A
 Frequencies --   1035.9081              1093.4649              1094.6983
 Red. masses --      2.4720                 2.5580                 2.7519
 Frc consts  --      1.5630                 1.8020                 1.9430
 IR Inten    --      4.9060                 0.3502                43.3333

                     55                     56                     57
                      A                      A                      A
 Frequencies --   1125.7101              1135.8911              1146.8378
 Red. masses --      1.9751                 1.4245                 1.7891
 Frc consts  --      1.4747                 1.0829                 1.3864
 IR Inten    --      8.2604                 6.3972                12.3694

                     58                     59                     60
                      A                      A                      A
 Frequencies --   1172.1194              1187.4809              1202.2290
 Red. masses --      1.6183                 1.7341                 1.1473
 Frc consts  --      1.3100                 1.4407                 0.9770
 IR Inten    --     10.2677                 4.3957                26.6102

                     61                     62                     63
                      A                      A                      A
 Frequencies --   1264.9685              1273.5730              1286.6180
 Red. masses --      2.5314                 1.6895                 1.1987
 Frc consts  --      2.3866                 1.6146                 1.1691
 IR Inten    --     90.7230                 7.7007                12.5847

                     64                     65                     66
                      A                      A                      A
 Frequencies --   1295.6628              1301.9253              1323.0692
 Red. masses --      3.6393                 5.1094                 1.2171
 Frc consts  --      3.5996                 5.1026                 1.2552
 IR Inten    --     12.6293               304.7004                29.0077

                     67                     68                     69
                      A                      A                      A
 Frequencies --   1335.1270              1346.4395              1350.7178
 Red. masses --      1.4389                 3.1354                 4.8305
 Frc consts  --      1.5112                 3.3490                 5.1924
 IR Inten    --     12.6770                33.6872                66.6560

                     70                     71                     72
                      A                      A                      A
 Frequencies --   1360.6627              1399.1455              1400.2080
 Red. masses --      2.9443                 3.8399                 1.4048
 Frc consts  --      3.2117                 4.4289                 1.6227
 IR Inten    --    101.5451               103.6013                12.2148

                     73                     74                     75
                      A                      A                      A
 Frequencies --   1433.6540              1447.2812              1449.5236
 Red. masses --      1.4068                 1.3045                 1.5060
 Frc consts  --      1.7037                 1.6098                 1.8643
 IR Inten    --     13.6256                38.9559                 2.5846

                     76                     77                     78
                      A                      A                      A
 Frequencies --   1466.6071              1493.0159              1509.6932
 Red. masses --      3.2358                 4.1362                 1.0789
 Frc consts  --      4.1007                 5.4323                 1.4488
 IR Inten    --      3.8656               325.1268                 1.9640

                     79                     80                     81
                      A                      A                      A
 Frequencies --   1520.8446              1526.1010              1539.7301
 Red. masses --      2.3383                 1.0505                 1.0639
 Frc consts  --      3.1866                 1.4415                 1.4860
 IR Inten    --     50.5927                11.3001                28.8715

                     82                     83                     84
                      A                      A                      A
 Frequencies --   1543.2091              1567.5033              1623.5673
 Red. masses --      1.1848                 2.2051                 5.5979
 Frc consts  --      1.6625                 3.1922                 8.6940
 IR Inten    --     69.4370               161.2551                31.0525

                     85                     86                     87
                      A                      A                      A
 Frequencies --   1631.1304              1644.3422              1661.1891
 Red. masses --      6.2310                 5.3537                 1.2605
 Frc consts  --      9.7676                 8.5288                 2.0495
 IR Inten    --     15.8054               112.9453                99.6281

                     88                     89                     90
                      A                      A                      A
 Frequencies --   1672.5446              3007.5874              3045.1866
 Red. masses --      5.8073                 1.0573                 1.0827
 Frc consts  --      9.5715                 5.6347                 5.9153
 IR Inten    --     64.4518                26.3932                 8.5604

                     91                     92                     93
                      A                      A                      A
 Frequencies --   3051.7331              3058.2611              3089.0449
 Red. masses --      1.0398                 1.0839                 1.1009
 Frc consts  --      5.7054                 5.9730                 6.1896
 IR Inten    --     19.9054                66.1500                18.5173

                     94                     95                     96
                      A                      A                      A
 Frequencies --   3118.0436              3140.0036              3174.5638
 Red. masses --      1.1003                 1.1022                 1.0894
 Frc consts  --      6.3029                 6.4026                 6.4685
 IR Inten    --     45.7736                32.8860                32.9419

                     97                     98                     99
                      A                      A                      A
 Frequencies --   3191.3266              3199.4316              3215.9993
 Red. masses --      1.0897                 1.0896                 1.0892
 Frc consts  --      6.5389                 6.5712                 6.6371
 IR Inten    --      9.2504                 6.4104                 5.5965

                    100                    101                    102
                      A                      A                      A
 Frequencies --   3223.2476              3229.0721              3235.9880
 Red. masses --      1.0961                 1.0914                 1.0945
 Frc consts  --      6.7096                 6.7051                 6.7526
 IR Inten    --     19.1354                10.3345                 0.7841

                    103                    104                    105
                      A                      A                      A
 Frequencies --   3541.6052              3549.5067              3671.7408
 Red. masses --      1.0740                 1.0452                 1.1034
 Frc consts  --      7.9369                 7.7588                 8.7647
 IR Inten    --     28.8166                35.4625                20.4908

 - Thermochemistry -
 -------------------
 Temperature   298.150 Kelvin.  Pressure   1.00000 Atm.
 Atom     1 has atomic number  6 and mass  12.00000

 Molecular mass:   287.10923 amu.
 Principal axes and moments of inertia in atomic units:
                           1         2         3
     Eigenvalues --  2860.95192********************
           X            0.99996  -0.00646   0.00544
           Y            0.00649   0.99996  -0.00590
           Z           -0.00540   0.00593   0.99997
 This molecule is an asymmetric top.
 Rotational symmetry number  1.
 Warning -- assumption of classical behavior for rotation
           may cause significant error
 Rotational temperatures (Kelvin)      0.03027     0.00763     0.00720
 Rotational constants (GHZ):           0.63082     0.15888     0.14994
 Zero-point vibrational energy     792505.8 (Joules/Mol)
                                  189.41343 (Kcal/Mol)
 Warning -- explicit consideration of  30 degrees of freedom as
           vibrations may cause significant error
 Vibrational temperatures:     34.81    45.11    57.81    81.55    89.64
          (Kelvin)            127.56   141.20   175.81   210.13   232.77
                              253.84   282.19   335.56   370.57   438.39
                              466.81   508.66   521.87   576.02   620.39
                              631.57   666.29   671.55   713.22   756.88
                              767.64   818.82   841.68   859.43   873.45
                              934.70   946.07   983.13  1019.74  1060.89
                             1106.81  1125.92  1158.78  1171.70  1198.06
                             1231.18  1278.00  1297.48  1310.54  1346.53
                             1351.06  1367.27  1381.58  1397.09  1399.79
                             1453.88  1490.44  1573.25  1575.03  1619.65
                             1634.29  1650.04  1686.42  1708.52  1729.74
                             1820.01  1832.39  1851.16  1864.17  1873.18
                             1903.60  1920.95  1937.23  1943.38  1957.69
                             2013.06  2014.59  2062.71  2082.31  2085.54
                             2110.12  2148.12  2172.11  2188.16  2195.72
                             2215.33  2220.33  2255.29  2335.95  2346.83
                             2365.84  2390.08  2406.42  4327.25  4381.34
                             4390.76  4400.16  4444.45  4486.17  4517.76
                             4567.49  4591.61  4603.27  4627.11  4637.53
                             4645.91  4655.86  5095.58  5106.95  5282.82

 Zero-point correction=                           0.301850 (Hartree/Particle)
 Thermal correction to Energy=                    0.320618
 Thermal correction to Enthalpy=                  0.321562
 Thermal correction to Gibbs Free Energy=         0.252798
 Sum of electronic and zero-point Energies=          -1219.278670
 Sum of electronic and thermal Energies=             -1219.259902
 Sum of electronic and thermal Enthalpies=           -1219.258958
 Sum of electronic and thermal Free Energies=        -1219.327722

                     E (Thermal)             CV                S
                      KCal/Mol        Cal/Mol-Kelvin    Cal/Mol-Kelvin
 Total                  201.191             71.438            144.725
 Electronic               0.000              0.000              0.000
 Translational            0.889              2.981             42.862
 Rotational               0.889              2.981             34.324
 Vibrational            199.413             65.476             67.539
 Vibration     1          0.593              1.985              6.256
 Vibration     2          0.594              1.983              5.742
 Vibration     3          0.594              1.981              5.250
 Vibration     4          0.596              1.975              4.570
 Vibration     5          0.597              1.972              4.383
 Vibration     6          0.601              1.957              3.689
 Vibration     7          0.604              1.950              3.491
 Vibration     8          0.610              1.931              3.065
 Vibration     9          0.617              1.907              2.723
 Vibration    10          0.622              1.889              2.529
 Vibration    11          0.628              1.871              2.366
 Vibration    12          0.636              1.845              2.169
 Vibration    13          0.654              1.790              1.854
 Vibration    14          0.667              1.750              1.678
 Vibration    15          0.696              1.665              1.391
 Vibration    16          0.709              1.627              1.288
 Vibration    17          0.730              1.568              1.150
 Vibration    18          0.737              1.549              1.110
 Vibration    19          0.766              1.469              0.961
 Vibration    20          0.792              1.402              0.855
 Vibration    21          0.799              1.385              0.830
 Vibration    22          0.821              1.332              0.757
 Vibration    23          0.824              1.324              0.747
 Vibration    24          0.851              1.260              0.669
 Vibration    25          0.881              1.192              0.596
 Vibration    26          0.889              1.176              0.579
 Vibration    27          0.925              1.098              0.506
 Vibration    28          0.942              1.064              0.476
 Vibration    29          0.955              1.037              0.454
 Vibration    30          0.966              1.017              0.438

                           ! Non-Optimized Parameters !
 Normal termination of Gaussian 16 at Sat Dec 12 15:15:33 2020.

 ----------------------------------------------------------------------
 # B3LYP/6-311++G(d,p) empiricaldispersion=gd3bj scf=xqc pop=npa geom=c
 heck
 ----------------------------------------------------------------------

 ---------------------------------------
 CID_62327992_JID_10020_Energie_neutraal
 ---------------------------------------
 Structure from the checkpoint file:  "JID_10020.chk"
 Charge =  0 Multiplicity = 1

 SCF Done:  E(RB3LYP) =  -1219.83239369     A.U. after   17 cycles
 Normal termination of Gaussian 16 at Sat Dec 12 15:23:13 2020.

 ----------------------------------------------------------------------
 # B3LYP/6-311++G(d,p) empiricaldispersion=gd3bj scf=xqc pop=npa geom=c
 heck
 ----------------------------------------------------------------------

 -------------------------------------
 CID_62327992_JID_10020_Energie_kation
 -------------------------------------
 Structure from the checkpoint file:  "JID_10020.chk"
 Charge =  1 Multiplicity = 2

 SCF Done:  E(UB3LYP) =  -1219.56200724     A.U. after   27 cycles
 Normal termination of Gaussian 16 at Sat Dec 12 15:39:50 2020.
 Gaussian 16:  ES64L-G16RevA.03 25-Dec-2016

 ----------------------------------------------------------------------
 # B3LYP/6-311++G(d,p) empiricaldispersion=gd3bj scf=xqc pop=npa geom=c
 heck
 ----------------------------------------------------------------------

 ------------------------------------
 CID_62327992_JID_10020_Energie_anion
 ------------------------------------
 Structure from the checkpoint file:  "JID_10020.chk"
 Charge = -1 Multiplicity = 2

                         Standard orientation:
 ---------------------------------------------------------------------
 Center     Atomic      Atomic             Coordinates (Angstroms)
 Number     Number       Type             X           Y           Z
 ---------------------------------------------------------------------
      1          6           0       -5.873170    1.054769   -1.056368
      2          6           0       -5.772084   -0.435892   -0.725623
      3          6           0       -4.337299   -0.938864   -0.680564
      4          8           0       -3.665397   -0.244356    0.369231
      5          6           0       -2.344338   -0.494714    0.579412
      6          6           0       -1.581614   -1.406503   -0.163464
      7          6           0       -0.228298   -1.571981    0.138790
      8          6           0        0.377188   -0.835974    1.159456
      9          6           0       -0.395504    0.060612    1.904047
     10          6           0       -1.743316    0.230247    1.619423
     11          7           0        1.781965   -0.960765    1.417762
     12          6           0        2.692416   -0.742389    0.390916
     13          6           0        2.552227    0.337340   -0.518477
     14          6           0        3.477906    0.427630   -1.555736
     15          6           0        4.531100   -0.484383   -1.636984
     16          6           0        4.616822   -1.459624   -0.648491
     17          7           0        3.714542   -1.605818    0.327375
     18          6           0        1.545483    1.430153   -0.346775
     19         16           0        1.774642    2.664594    0.739820
     20          7           0        0.498687    1.381402   -1.197276
     21          1           0       -5.434564    1.270221   -2.038562
     22          1           0       -5.340654    1.652994   -0.311406
     23          1           0       -6.917430    1.383137   -1.076559
     24          1           0       -6.243404   -0.641909    0.243008
     25          1           0       -6.311051   -1.030603   -1.474379
     26          1           0       -4.303951   -2.020626   -0.489778
     27          1           0       -3.828965   -0.745189   -1.637195
     28          1           0       -2.028588   -1.993977   -0.956503
     29          1           0        0.370052   -2.275729   -0.433861
     30          1           0        0.085795    0.645828    2.679112
     31          1           0       -2.352713    0.931814    2.179344
     32          1           0        2.054958   -1.773855    1.961527
     33          1           0        3.390988    1.241578   -2.269821
     34          1           0        5.271553   -0.422879   -2.427043
     35          1           0        5.439374   -2.172409   -0.640791
     36          1           0        0.259488    0.502692   -1.639076
     37          1           0       -0.253460    2.043971   -1.051390
 ---------------------------------------------------------------------

 SCF Done:  E(UB3LYP) =  -1219.83436960     A.U. after   33 cycles
 SCF Done:  E(UB3LYP) =  -1219.83436960     a.u. after    1 cycles

 The electronic state is 2-A.
 Alpha  occ. eigenvalues --  -88.65891 -19.06137 -14.22102 -14.21365 -14.20171
 Alpha  occ. eigenvalues --  -10.13962 -10.13883 -10.13821 -10.10692 -10.10298
 Alpha  occ. eigenvalues --  -10.10241 -10.08930 -10.08185 -10.08083 -10.07890
 Alpha  occ. eigenvalues --  -10.07836 -10.07710 -10.07540 -10.07362 -10.07233
 Alpha  occ. eigenvalues --   -7.74643  -5.70981  -5.70548  -5.70203  -0.97932
 Alpha  occ. eigenvalues --   -0.86988  -0.81674  -0.80918  -0.75197  -0.70823
 Alpha  occ. eigenvalues --   -0.70235  -0.66098  -0.65714  -0.63420  -0.60497
 Alpha  occ. eigenvalues --   -0.59498  -0.53823  -0.53201  -0.52810  -0.50696
 Alpha  occ. eigenvalues --   -0.48765  -0.46614  -0.45065  -0.42927  -0.42348
 Alpha  occ. eigenvalues --   -0.41447  -0.40051  -0.38840  -0.38054  -0.36817
 Alpha  occ. eigenvalues --   -0.35569  -0.34750  -0.34033  -0.33908  -0.32985
 Alpha  occ. eigenvalues --   -0.31314  -0.30165  -0.30052  -0.29647  -0.28972
 Alpha  occ. eigenvalues --   -0.28422  -0.27304  -0.26451  -0.26198  -0.24673
 Alpha  occ. eigenvalues --   -0.23749  -0.23371  -0.22018  -0.20891  -0.17931
 Alpha  occ. eigenvalues --   -0.16572  -0.16416  -0.13683  -0.11477  -0.10583
 Alpha  occ. eigenvalues --   -0.07948   0.03762
 Alpha virt. eigenvalues --    0.05005   0.06784   0.06924   0.07163   0.07567
 Alpha virt. eigenvalues --    0.07794   0.08245   0.08557   0.09025   0.09498
 Alpha virt. eigenvalues --    0.09864   0.10208   0.10496   0.10708   0.11284

  Beta  occ. eigenvalues --  -88.65867 -19.06122 -14.22098 -14.21254 -14.20161
  Beta  occ. eigenvalues --  -10.13948 -10.13842 -10.13749 -10.10267 -10.10183
  Beta  occ. eigenvalues --  -10.10144 -10.08909 -10.08130 -10.08098 -10.07847
  Beta  occ. eigenvalues --  -10.07828 -10.07696 -10.07542 -10.07354 -10.07241
  Beta  occ. eigenvalues --   -7.74621  -5.70987  -5.70452  -5.70189  -0.97889
  Beta  occ. eigenvalues --   -0.86922  -0.81204  -0.80850  -0.75135  -0.70784
  Beta  occ. eigenvalues --   -0.70090  -0.65959  -0.65657  -0.63281  -0.60216
  Beta  occ. eigenvalues --   -0.59293  -0.53704  -0.53129  -0.52703  -0.50591
  Beta  occ. eigenvalues --   -0.48690  -0.46290  -0.45016  -0.42854  -0.42239
  Beta  occ. eigenvalues --   -0.41304  -0.40003  -0.38795  -0.37973  -0.36706
  Beta  occ. eigenvalues --   -0.35519  -0.34706  -0.33901  -0.33750  -0.32959
  Beta  occ. eigenvalues --   -0.31226  -0.30021  -0.29993  -0.29454  -0.28896
  Beta  occ. eigenvalues --   -0.28243  -0.27164  -0.26368  -0.26160  -0.23884
  Beta  occ. eigenvalues --   -0.23680  -0.22971  -0.21349  -0.20770  -0.17737
  Beta  occ. eigenvalues --   -0.16492  -0.16254  -0.13452  -0.11300  -0.09756
  Beta  occ. eigenvalues --   -0.07829
  Beta virt. eigenvalues --    0.05728   0.06856   0.07115   0.07231   0.07723
  Beta virt. eigenvalues --    0.07735   0.08151   0.08634   0.08957   0.09217
  Beta virt. eigenvalues --    0.09557   0.09946   0.10295   0.10591   0.11181

 Mulliken charges and spin densities:
               1          2
     1  C   -0.001256  -0.470371
     2  C   -0.174428  -0.323583
     3  C    0.155101  -0.209795
     4  O   -0.063711   0.017728
     5  C   -0.712411   0.123510
     6  C    0.516473  -0.202129
     7  C    0.167176  -0.067179
     8  C   -0.405059  -0.004572
     9  C    0.194387  -0.033057
    10  C   -0.439502   0.126788
    11  N    0.044543   0.003039
    12  C   -1.589424   0.036888
    13  C    1.374059  -0.345487
    14  C   -0.303124   0.297090
    15  C   -0.064163  -0.163665
    16  C   -0.287342   0.078311
    17  N    0.000720  -0.002378
    18  C    0.110985   0.324866
    19  S   -0.705409   0.142950
    20  N   -0.218772   0.035040
    21  H   -0.019764   0.140429
    22  H    0.157274  -0.000219
    23  H   -0.069152   0.208476
    24  H    0.070248   0.072574
    25  H   -0.377002   0.530635
    26  H    0.043003   0.100981
    27  H   -0.052291   0.204307
    28  H   -0.011202   0.197932
    29  H    0.200576  -0.001312
    30  H    0.171407   0.020499
    31  H    0.175204  -0.000904
    32  H    0.297981   0.007945
    33  H    0.100394   0.105700
    34  H    0.124243   0.016142
    35  H    0.143534   0.006977
    36  H    0.215773   0.004433
    37  H    0.230934   0.021412
 Sum of Mulliken charges =  -1.00000   1.00000

 Dipole moment (field-independent basis, Debye):
    X=              0.0199    Y=             -3.9119    Z=             -0.2726  Tot=              3.9214
 Quadrupole moment (field-independent basis, Debye-Ang):
   XX=           -213.3083   YY=           -163.6486   ZZ=           -146.8975
   XY=            -12.8094   XZ=            -18.5621   YZ=             -4.3583

 Summary of Natural Population Analysis:

                                       Natural Population
                Natural  -----------------------------------------------
    Atom  No    Charge         Core      Valence    Rydberg      Total
 -----------------------------------------------------------------------
      C    1   -0.28868      0.99966     2.28309    0.00592     3.28868
      C    2   -0.19894      0.99964     2.19015    0.00916     3.19894
      C    3   -0.01029      0.99957     1.99833    0.01239     3.01029
      O    4   -0.27871      0.99985     3.26991    0.00894     4.27871
      C    5    0.17201      0.99939     1.81580    0.01279     2.82799
      C    6   -0.15613      0.99953     2.14755    0.00906     3.15613
      C    7   -0.09152      0.99953     2.08298    0.00901     3.09152
      C    8    0.06256      0.99939     1.92631    0.01174     2.93744
      C    9   -0.08230      0.99952     2.07329    0.00949     3.08230
      C   10   -0.12081      0.99953     2.11218    0.00910     3.12081
      N   11   -0.31593      0.99965     2.80432    0.01195     3.81593
      C   12    0.21522      0.99947     1.76749    0.01783     2.78478
      C   13   -0.07439      0.99940     2.06278    0.01221     3.07439
      C   14   -0.06257      0.99953     2.05340    0.00965     3.06257
      C   15   -0.14947      0.99956     2.14073    0.00918     3.14947
      C   16    0.03525      0.99960     1.95149    0.01365     2.96475
      N   17   -0.26006      0.99967     2.75080    0.00959     3.76006
      C   18    0.13591      0.99962     1.84297    0.02150     2.86409
      S   19   -0.11384      4.99952     3.10050    0.01383     8.11384
      N   20   -0.36619      0.99966     2.85569    0.01084     3.86619
      H   21    0.09723      0.00000     0.40190    0.00087     0.40277
      H   22    0.10331      0.00000     0.39562    0.00108     0.39669
      H   23    0.09731      0.00000     0.40197    0.00072     0.40269
      H   24    0.09667      0.00000     0.40223    0.00111     0.40333
      H   25    0.10032      0.00000     0.39785    0.00183     0.39968
      H   26    0.08480      0.00000     0.41390    0.00131     0.41520
      H   27    0.08415      0.00000     0.41414    0.00171     0.41585
      H   28    0.10324      0.00000     0.39527    0.00149     0.39676
      H   29    0.10226      0.00000     0.39633    0.00141     0.39774
      H   30    0.11280      0.00000     0.38614    0.00106     0.38720
      H   31    0.10452      0.00000     0.39436    0.00112     0.39548
      H   32    0.19156      0.00000     0.30690    0.00154     0.30844
      H   33    0.10384      0.00000     0.39521    0.00095     0.39616
      H   34    0.09863      0.00000     0.40008    0.00130     0.40137
      H   35    0.08423      0.00000     0.41464    0.00113     0.41577
      H   36    0.19019      0.00000     0.30751    0.00230     0.30981
      H   37    0.19381      0.00000     0.30453    0.00165     0.30619
 =======================================================================
   * Total *    0.00001     23.99129    51.75832    0.25038    75.99999

 Normal termination of Gaussian 16 at Sat Dec 12 16:00:54 2020.
