 Gaussian 16, Revision A.03,

 -----------------------------------------------------------
 # opt freq B3LYP/6-31G(d) empiricaldispersion=gd3bj scf=xqc
 -----------------------------------------------------------

 ------------------------------
 CID_80903368_JID_8381_neutraal
 ------------------------------
 Symbolic Z-matrix:
 Charge =  0 Multiplicity = 1

 SCF Done:  E(RB3LYP) =  -889.429434646     A.U. after   18 cycles
 SCF Done:  E(RB3LYP) =  -889.440042834     A.U. after   15 cycles
 SCF Done:  E(RB3LYP) =  -889.437832553     A.U. after   17 cycles
 SCF Done:  E(RB3LYP) =  -889.443208988     A.U. after   15 cycles
 SCF Done:  E(RB3LYP) =  -889.444930338     A.U. after   15 cycles
 SCF Done:  E(RB3LYP) =  -889.448900677     A.U. after   15 cycles
 SCF Done:  E(RB3LYP) =  -889.448191089     A.U. after   17 cycles
 SCF Done:  E(RB3LYP) =  -889.454453171     A.U. after   15 cycles
 SCF Done:  E(RB3LYP) =  -889.457640998     A.U. after   16 cycles
 SCF Done:  E(RB3LYP) =  -889.457879297     A.U. after   15 cycles
 SCF Done:  E(RB3LYP) =  -889.461643417     A.U. after   10 cycles
 SCF Done:  E(RB3LYP) =  -889.461647578     A.U. after   11 cycles
 SCF Done:  E(RB3LYP) =  -889.461649795     A.U. after    9 cycles
 SCF Done:  E(RB3LYP) =  -889.461650746     A.U. after    9 cycles
 SCF Done:  E(RB3LYP) =  -889.461650968     A.U. after    8 cycles
 SCF Done:  E(RB3LYP) =  -889.461651027     A.U. after    8 cycles
 Optimization completed.
    -- Stationary point found.
 Normal termination of Gaussian 16 at Fri Dec 11 20:56:50 2020.

 --------------------------------------------------------------------
 #N Geom=AllCheck Guess=TCheck SCRF=Check GenChk RB3LYP/6-31G(d) Freq
 --------------------------------------------------------------------

 Structure from the checkpoint file:  "JID_8381.chk"
 ------------------------------
 CID_80903368_JID_8381_neutraal
 ------------------------------
 Charge =  0 Multiplicity = 1

 SCF Done:  E(RB3LYP) =  -889.461651027     A.U. after    1 cycles

  Exact polarizability: 203.128   4.647 180.275   1.362   0.639  91.265
 Approx polarizability: 313.134  17.328 302.649 -11.461  -7.921 148.583

                      1                      2                      3
                      A                      A                      A
 Frequencies --     25.1741                32.8935                46.2071
 Red. masses --      5.7534                 4.9786                 3.4573
 Frc consts  --      0.0021                 0.0032                 0.0043
 IR Inten    --      3.3503                 1.4355                 2.0080

                      4                      5                      6
                      A                      A                      A
 Frequencies --     67.6978                81.2948                94.6394
 Red. masses --      6.0749                 5.7255                 5.6405
 Frc consts  --      0.0164                 0.0223                 0.0298
 IR Inten    --      1.2001                 0.4830                 3.5435

                      7                      8                      9
                      A                      A                      A
 Frequencies --    121.3183               141.9397               149.7670
 Red. masses --      1.5935                 4.4682                 3.9507
 Frc consts  --      0.0138                 0.0530                 0.0522
 IR Inten    --      6.0730                 1.6887                 2.8100

                     10                     11                     12
                      A                      A                      A
 Frequencies --    153.4103               217.5386               228.9451
 Red. masses --      2.5494                 4.1474                 2.7878
 Frc consts  --      0.0354                 0.1156                 0.0861
 IR Inten    --      4.2007                15.1412                 2.6178

                     13                     14                     15
                      A                      A                      A
 Frequencies --    260.1783               280.2028               299.1903
 Red. masses --      3.4676                 7.1101                 3.1105
 Frc consts  --      0.1383                 0.3289                 0.1641
 IR Inten    --      5.0472                 5.3881                 3.0745

                     16                     17                     18
                      A                      A                      A
 Frequencies --    307.1673               351.1012               364.2286
 Red. masses --      4.1777                 4.7047                 1.5100
 Frc consts  --      0.2322                 0.3417                 0.1180
 IR Inten    --      4.4229                 3.6921                 7.7509

                     19                     20                     21
                      A                      A                      A
 Frequencies --    396.0459               417.6517               462.0005
 Red. masses --      4.5078                 3.9734                 3.5572
 Frc consts  --      0.4166                 0.4084                 0.4473
 IR Inten    --      3.3120                16.9131                10.4414

                     22                     23                     24
                      A                      A                      A
 Frequencies --    487.3428               510.8368               520.4608
 Red. masses --      2.3849                 4.2686                 2.7256
 Frc consts  --      0.3337                 0.6563                 0.4350
 IR Inten    --     16.1929                 3.9349                59.1316

                     25                     26                     27
                      A                      A                      A
 Frequencies --    551.9379               560.2623               578.0876
 Red. masses --      1.3852                 2.4729                 1.6867
 Frc consts  --      0.2486                 0.4573                 0.3321
 IR Inten    --     63.6600                56.2654                49.8565

                     28                     29                     30
                      A                      A                      A
 Frequencies --    587.5498               625.4947               659.4325
 Red. masses --      2.3093                 2.9681                 2.4618
 Frc consts  --      0.4697                 0.6842                 0.6307
 IR Inten    --     82.5589                16.1774                31.3123

                     31                     32                     33
                      A                      A                      A
 Frequencies --    678.2271               713.8549               725.1038
 Red. masses --      4.2272                 3.1452                 3.0099
 Frc consts  --      1.1457                 0.9443                 0.9324
 IR Inten    --     52.5264                23.3145                27.2351

                     34                     35                     36
                      A                      A                      A
 Frequencies --    762.9255               783.7262               795.8772
 Red. masses --      2.0619                 5.6646                 2.7910
 Frc consts  --      0.7071                 2.0500                 1.0416
 IR Inten    --     35.7776                25.7060                18.1444

                     37                     38                     39
                      A                      A                      A
 Frequencies --    807.2569               821.5976               860.0120
 Red. masses --      4.1365                 1.6414                 6.5423
 Frc consts  --      1.5882                 0.6528                 2.8509
 IR Inten    --      2.1552                 5.2408                 9.0467

                     40                     41                     42
                      A                      A                      A
 Frequencies --    910.6226               970.1286               979.3951
 Red. masses --      2.5052                 1.2878                 2.0187
 Frc consts  --      1.2240                 0.7141                 1.1409
 IR Inten    --     15.7204                 1.4938               134.4294

                     43                     44                     45
                      A                      A                      A
 Frequencies --   1012.2614              1055.8349              1070.1415
 Red. masses --      2.1195                 1.8031                 2.7665
 Frc consts  --      1.2796                 1.1843                 1.8666
 IR Inten    --     11.1976                 5.0904                19.9251

                     46                     47                     48
                      A                      A                      A
 Frequencies --   1099.8365              1114.4630              1165.4171
 Red. masses --      2.1438                 4.0141                 2.2077
 Frc consts  --      1.5279                 2.9374                 1.7667
 IR Inten    --     20.3501                 6.0529                35.4014

                     49                     50                     51
                      A                      A                      A
 Frequencies --   1168.0507              1170.4426              1198.3613
 Red. masses --      2.3563                 1.2685                 2.1526
 Frc consts  --      1.8941                 1.0239                 1.8213
 IR Inten    --      8.7632                 0.8953                17.9754

                     52                     53                     54
                      A                      A                      A
 Frequencies --   1210.2097              1226.2222              1239.9086
 Red. masses --      2.1054                 1.1880                 1.4407
 Frc consts  --      1.8168                 1.0525                 1.3050
 IR Inten    --      2.7460                16.9242                14.3267

                     55                     56                     57
                      A                      A                      A
 Frequencies --   1276.8261              1300.3800              1319.5075
 Red. masses --      1.3909                 3.0986                 2.8122
 Frc consts  --      1.3360                 3.0871                 2.8848
 IR Inten    --     78.8748               196.7749               175.0264

                     58                     59                     60
                      A                      A                      A
 Frequencies --   1340.6638              1347.8984              1380.0687
 Red. masses --      1.5836                 1.3949                 2.0134
 Frc consts  --      1.6770                 1.4932                 2.2593
 IR Inten    --     81.1759                77.7682                58.5943

                     61                     62                     63
                      A                      A                      A
 Frequencies --   1404.1587              1421.4342              1422.6883
 Red. masses --      1.5694                 1.7885                 2.0554
 Frc consts  --      1.8231                 2.1291                 2.4511
 IR Inten    --     92.9329                56.2801                14.0457

                     64                     65                     66
                      A                      A                      A
 Frequencies --   1443.0281              1476.3095              1493.4460
 Red. masses --      3.5256                 1.6369                 3.5679
 Frc consts  --      4.3254                 2.1020                 4.6886
 IR Inten    --     76.2033                21.6390                49.5434

                     67                     68                     69
                      A                      A                      A
 Frequencies --   1507.0230              1510.5292              1526.4420
 Red. masses --      1.1473                 1.3370                 1.0560
 Frc consts  --      1.5352                 1.7973                 1.4497
 IR Inten    --     17.0513                37.4128                 0.3724

                     70                     71                     72
                      A                      A                      A
 Frequencies --   1540.6460              1541.4986              1547.0218
 Red. masses --      1.4182                 1.2298                 1.0821
 Frc consts  --      1.9833                 1.7217                 1.5258
 IR Inten    --     80.0918                25.8846                31.3460

                     73                     74                     75
                      A                      A                      A
 Frequencies --   1578.8603              1605.7074              1641.2163
 Red. masses --      2.6814                 2.6017                 4.0343
 Frc consts  --      3.9382                 3.9522                 6.4025
 IR Inten    --    350.0723                12.3687               215.1889

                     76                     77                     78
                      A                      A                      A
 Frequencies --   1654.0352              1737.0842              1789.5980
 Red. masses --      5.1834                 1.0616                 7.9025
 Frc consts  --      8.3551                 1.8873                14.9116
 IR Inten    --    419.6630                17.9479               306.9828

                     79                     80                     81
                      A                      A                      A
 Frequencies --   3033.4270              3054.5447              3079.6552
 Red. masses --      1.0620                 1.0387                 1.0930
 Frc consts  --      5.7574                 5.7099                 6.1079
 IR Inten    --     31.6296                38.7978                10.8139

                     82                     83                     84
                      A                      A                      A
 Frequencies --   3093.7725              3122.2236              3139.4720
 Red. masses --      1.0677                 1.1020                 1.1052
 Frc consts  --      6.0212                 6.3295                 6.4178
 IR Inten    --     24.4721                15.5302                19.4069

                     85                     86                     87
                      A                      A                      A
 Frequencies --   3156.6535              3187.1210              3203.3235
 Red. masses --      1.1017                 1.0868                 1.0939
 Frc consts  --      6.4678                 6.5042                 6.6137
 IR Inten    --     12.5070                 6.6129                20.8389

                     88                     89                     90
                      A                      A                      A
 Frequencies --   3244.6632              3417.0939              3509.4243
 Red. masses --      1.0914                 1.0494                 1.0915
 Frc consts  --      6.7698                 7.2197                 7.9203
 IR Inten    --      6.2423                 5.9108                 4.9314

                     91                     92                     93
                      A                      A                      A
 Frequencies --   3567.0748              3589.0253              3607.4773
 Red. masses --      1.0767                 1.0767                 1.0764
 Frc consts  --      8.0719                 8.1714                 8.2533
 IR Inten    --     84.9990                35.9994                26.7722

 - Thermochemistry -
 -------------------
 Temperature   298.150 Kelvin.  Pressure   1.00000 Atm.
 Atom     1 has atomic number  6 and mass  12.00000

 Molecular mass:   253.11749 amu.
 Principal axes and moments of inertia in atomic units:
                           1         2         3
     Eigenvalues --  2498.513897008.772238757.44451
           X            0.99984  -0.01162   0.01338
           Y            0.01151   0.99990   0.00786
           Z           -0.01347  -0.00771   0.99988
 This molecule is an asymmetric top.
 Rotational symmetry number  1.
 Warning -- assumption of classical behavior for rotation
           may cause significant error
 Rotational temperatures (Kelvin)      0.03467     0.01236     0.00989
 Rotational constants (GHZ):           0.72233     0.25750     0.20608
 Zero-point vibrational energy     705383.4 (Joules/Mol)
                                  168.59068 (Kcal/Mol)
 Warning -- explicit consideration of  28 degrees of freedom as
           vibrations may cause significant error
 Vibrational temperatures:     36.22    47.33    66.48    97.40   116.97
          (Kelvin)            136.16   174.55   204.22   215.48   220.72
                              312.99   329.40   374.34   403.15   430.47
                              441.95   505.16   524.04   569.82   600.91
                              664.72   701.18   734.98   748.83   794.12
                              806.09   831.74   845.35   899.95   948.78
                              975.82  1027.08  1043.26  1097.68  1127.61
                             1145.09  1161.46  1182.10  1237.37  1310.18
                             1395.80  1409.13  1456.42  1519.11  1539.69
                             1582.42  1603.46  1676.78  1680.56  1684.01
                             1724.17  1741.22  1764.26  1783.95  1837.07
                             1870.96  1898.48  1928.92  1939.33  1985.61
                             2020.27  2045.13  2046.93  2076.20  2124.08
                             2148.74  2168.27  2173.31  2196.21  2216.65
                             2217.87  2225.82  2271.63  2310.25  2361.34
                             2379.79  2499.28  2574.83  4364.42  4394.81
                             4430.94  4451.25  4492.18  4517.00  4541.72
                             4585.56  4608.87  4668.35  4916.44  5049.28
                             5132.22  5163.81  5190.36

 Zero-point correction=                           0.268666 (Hartree/Particle)
 Thermal correction to Energy=                    0.286391
 Thermal correction to Enthalpy=                  0.287335
 Thermal correction to Gibbs Free Energy=         0.221569
 Sum of electronic and zero-point Energies=           -889.192985
 Sum of electronic and thermal Energies=              -889.175260
 Sum of electronic and thermal Enthalpies=            -889.174316
 Sum of electronic and thermal Free Energies=         -889.240083

                     E (Thermal)             CV                S
                      KCal/Mol        Cal/Mol-Kelvin    Cal/Mol-Kelvin
 Total                  179.713             65.823            138.418
 Electronic               0.000              0.000              0.000
 Translational            0.889              2.981             42.486
 Rotational               0.889              2.981             33.394
 Vibrational            177.936             59.861             62.537
 Vibration     1          0.593              1.985              6.177
 Vibration     2          0.594              1.983              5.647
 Vibration     3          0.595              1.979              4.973
 Vibration     4          0.598              1.970              4.219
 Vibration     5          0.600              1.962              3.859
 Vibration     6          0.603              1.953              3.562
 Vibration     7          0.609              1.931              3.079
 Vibration     8          0.615              1.911              2.778
 Vibration     9          0.618              1.903              2.675
 Vibration    10          0.619              1.899              2.629
 Vibration    11          0.646              1.814              1.979
 Vibration    12          0.652              1.797              1.887
 Vibration    13          0.668              1.746              1.661
 Vibration    14          0.680              1.710              1.532
 Vibration    15          0.692              1.675              1.421
 Vibration    16          0.697              1.660              1.378
 Vibration    17          0.728              1.573              1.161
 Vibration    18          0.738              1.546              1.104
 Vibration    19          0.763              1.479              0.977
 Vibration    20          0.781              1.432              0.900
 Vibration    21          0.820              1.334              0.760
 Vibration    22          0.843              1.278              0.691
 Vibration    23          0.866              1.226              0.632
 Vibration    24          0.875              1.205              0.609
 Vibration    25          0.907              1.135              0.540
 Vibration    26          0.916              1.117              0.523
 Vibration    27          0.935              1.079              0.489
 Vibration    28          0.945              1.058              0.472

                           ! Non-Optimized Parameters !
 Normal termination of Gaussian 16 at Fri Dec 11 21:08:45 2020.

 ----------------------------------------------------------------------
 # B3LYP/6-311++G(d,p) empiricaldispersion=gd3bj scf=xqc pop=npa geom=c
 heck
 ----------------------------------------------------------------------

 --------------------------------------
 CID_80903368_JID_8381_Energie_neutraal
 --------------------------------------
 Structure from the checkpoint file:  "JID_8381.chk"
 Charge =  0 Multiplicity = 1

 SCF Done:  E(RB3LYP) =  -889.731386806     A.U. after   19 cycles
 Normal termination of Gaussian 16 at Fri Dec 11 21:14:50 2020.

 ----------------------------------------------------------------------
 # B3LYP/6-311++G(d,p) empiricaldispersion=gd3bj scf=xqc pop=npa geom=c
 heck
 ----------------------------------------------------------------------

 ------------------------------------
 CID_80903368_JID_8381_Energie_kation
 ------------------------------------
 Structure from the checkpoint file:  "JID_8381.chk"
 Charge =  1 Multiplicity = 2

 SCF Done:  E(UB3LYP) =  -889.453267108     A.U. after   27 cycles
 Normal termination of Gaussian 16 at Fri Dec 11 21:26:51 2020.
 Gaussian 16:  ES64L-G16RevA.03 25-Dec-2016

 ----------------------------------------------------------------------
 # B3LYP/6-311++G(d,p) empiricaldispersion=gd3bj scf=xqc pop=npa geom=c
 heck
 ----------------------------------------------------------------------

 -----------------------------------
 CID_80903368_JID_8381_Energie_anion
 -----------------------------------
 Structure from the checkpoint file:  "JID_8381.chk"
 Charge = -1 Multiplicity = 2

                         Standard orientation:
 ---------------------------------------------------------------------
 Center     Atomic      Atomic             Coordinates (Angstroms)
 Number     Number       Type             X           Y           Z
 ---------------------------------------------------------------------
      1          6           0        3.318787   -1.945853    0.879424
      2          7           0        3.631075   -1.203401   -0.336589
      3          6           0        3.643283    0.148125   -0.528497
      4          8           0        3.936582    0.644237   -1.610687
      5          6           0        3.218749    1.032581    0.641947
      6          6           0        1.894529    1.730759    0.313756
      7          7           0        0.847041    0.738243    0.162007
      8          6           0       -0.481745    1.018455    0.115863
      9          6           0       -1.473062   -0.030930    0.064564
     10          6           0       -2.863884    0.287496   -0.025575
     11          6           0       -3.247415    1.635144    0.062228
     12          6           0       -2.292240    2.633345    0.187954
     13          6           0       -0.933562    2.349720    0.190706
     14          7           0       -3.868275   -0.640147   -0.214535
     15          7           0       -3.757153   -1.796104   -1.013047
     16          7           0       -1.058086   -1.382817    0.283325
     17          8           0        0.094662   -1.734341   -0.058363
     18          8           0       -1.830673   -2.175413    0.839986
     19          1           0        3.997748   -1.686898    1.699879
     20          1           0        3.441724   -3.008954    0.663883
     21          1           0        2.283919   -1.792983    1.199501
     22          1           0        3.888914   -1.726128   -1.163818
     23          1           0        3.124048    0.485367    1.583223
     24          1           0        3.993544    1.795133    0.764073
     25          1           0        1.632384    2.413740    1.129482
     26          1           0        2.022360    2.324590   -0.601982
     27          1           0        1.100962   -0.198114   -0.127190
     28          1           0       -4.300446    1.886552   -0.023312
     29          1           0       -2.614325    3.669891    0.236167
     30          1           0       -0.212811    3.155688    0.225084
     31          1           0       -4.784589   -0.224017   -0.315456
     32          1           0       -3.109837   -1.611880   -1.783301
     33          1           0       -3.331022   -2.521304   -0.436061
 ---------------------------------------------------------------------

 SCF Done:  E(UB3LYP) =  -889.767022058     A.U. after   23 cycles

 The electronic state is 2-A.
 Alpha  occ. eigenvalues --  -18.99239 -18.93945 -18.93672 -14.30828 -14.24807
 Alpha  occ. eigenvalues --  -14.21231 -14.19255 -14.18965 -10.17942 -10.11368
 Alpha  occ. eigenvalues --  -10.10378 -10.08914 -10.08778 -10.08107 -10.06739
 Alpha  occ. eigenvalues --  -10.03971 -10.03244 -10.02977  -1.01512  -0.94413
 Alpha  occ. eigenvalues --   -0.85578  -0.84038  -0.83003  -0.81486  -0.72526
 Alpha  occ. eigenvalues --   -0.68381  -0.65897  -0.63911  -0.61762  -0.58288
 Alpha  occ. eigenvalues --   -0.55728  -0.52888  -0.48848  -0.47139  -0.45013
 Alpha  occ. eigenvalues --   -0.41364  -0.40596  -0.40181  -0.39250  -0.37713
 Alpha  occ. eigenvalues --   -0.36551  -0.35895  -0.35271  -0.34813  -0.34552
 Alpha  occ. eigenvalues --   -0.33006  -0.32910  -0.31808  -0.31199  -0.31044
 Alpha  occ. eigenvalues --   -0.29263  -0.28601  -0.27972  -0.26174  -0.24690
 Alpha  occ. eigenvalues --   -0.24257  -0.23849  -0.19861  -0.16551  -0.16455
 Alpha  occ. eigenvalues --   -0.15846  -0.15061  -0.12847  -0.12262  -0.10259
 Alpha  occ. eigenvalues --   -0.08601  -0.06769   0.02801
 Alpha virt. eigenvalues --    0.06876   0.07971   0.08703   0.08976   0.10005
 Alpha virt. eigenvalues --    0.10242   0.11076   0.11444   0.11702   0.12538
 Alpha virt. eigenvalues --    0.12993   0.13330   0.13641   0.14169   0.14652

  Beta  occ. eigenvalues --  -18.99235 -18.93447 -18.93112 -14.29940 -14.24808
  Beta  occ. eigenvalues --  -14.21144 -14.19221 -14.18902 -10.17938 -10.11364
  Beta  occ. eigenvalues --  -10.10380 -10.08914 -10.08639 -10.07907 -10.06855
  Beta  occ. eigenvalues --  -10.03749 -10.03330 -10.03031  -1.00206  -0.94405
  Beta  occ. eigenvalues --   -0.85326  -0.83276  -0.82938  -0.81222  -0.72330
  Beta  occ. eigenvalues --   -0.68297  -0.65730  -0.63450  -0.61742  -0.58170
  Beta  occ. eigenvalues --   -0.55623  -0.52088  -0.48792  -0.46978  -0.44727
  Beta  occ. eigenvalues --   -0.41167  -0.40523  -0.40168  -0.39028  -0.37402
  Beta  occ. eigenvalues --   -0.36499  -0.35676  -0.34928  -0.34662  -0.33227
  Beta  occ. eigenvalues --   -0.32826  -0.31457  -0.31235  -0.31108  -0.30812
  Beta  occ. eigenvalues --   -0.28861  -0.28493  -0.27754  -0.26146  -0.24381
  Beta  occ. eigenvalues --   -0.23775  -0.23636  -0.19300  -0.16533  -0.16429
  Beta  occ. eigenvalues --   -0.15265  -0.14397  -0.11926  -0.09907  -0.09544
  Beta  occ. eigenvalues --   -0.07879  -0.06442
  Beta virt. eigenvalues --    0.06855   0.07953   0.08614   0.08958   0.09729
  Beta virt. eigenvalues --    0.10009   0.10423   0.11262   0.11478   0.11733
  Beta virt. eigenvalues --    0.12538   0.13001   0.13809   0.14123   0.14646

 Mulliken charges and spin densities:
               1          2
     1  C   -0.369514  -0.009135
     2  N   -0.226935  -0.000483
     3  C   -0.054216   0.001612
     4  O   -0.331997   0.001913
     5  C   -0.390769   0.004494
     6  C   -0.180486  -0.009116
     7  N    0.042573   0.024867
     8  C   -0.140854   0.075419
     9  C    0.053252  -0.063932
    10  C   -0.552021   0.167171
    11  C    0.054356  -0.099940
    12  C   -0.616000   0.154164
    13  C    0.189113  -0.033826
    14  N   -0.133998   0.045472
    15  N   -0.343705  -0.040358
    16  N   -0.440039   0.285091
    17  O   -0.139375   0.194789
    18  O   -0.190893   0.215442
    19  H    0.135874   0.002014
    20  H    0.126264  -0.001731
    21  H    0.215884   0.014772
    22  H    0.296672   0.001056
    23  H    0.143587  -0.002240
    24  H    0.194452   0.000260
    25  H    0.119273   0.004819
    26  H    0.184894   0.007187
    27  H    0.365770   0.005877
    28  H    0.077852   0.009013
    29  H    0.127245  -0.015780
    30  H    0.092295   0.003111
    31  H    0.267798  -0.004319
    32  H    0.172565   0.034307
    33  H    0.251083   0.028012
 Sum of Mulliken charges =  -1.00000   1.00000

 Dipole moment (field-independent basis, Debye):
    X=              5.3043    Y=              2.7228    Z=              1.4965  Tot=              6.1473
 Quadrupole moment (field-independent basis, Debye-Ang):
   XX=           -143.1539   YY=           -129.4297   ZZ=           -121.8892
   XY=            -17.0842   XZ=             14.5639   YZ=              6.2590

 Summary of Natural Population Analysis:

                                       Natural Population
                Natural  -----------------------------------------------
    Atom  No    Charge         Core      Valence    Rydberg      Total
 -----------------------------------------------------------------------
      C    1   -0.18728      0.99965     2.18081    0.00682     3.18728
      N    2   -0.31320      0.99967     2.80520    0.00833     3.81320
      C    3    0.33971      0.99968     1.63735    0.02326     2.66029
      O    4   -0.32949      0.99988     3.32249    0.00712     4.32949
      C    5   -0.23284      0.99959     2.22655    0.00670     3.23284
      C    6   -0.08032      0.99963     2.07189    0.00880     3.08032
      N    7   -0.31435      0.99964     2.80430    0.01040     3.81435
      C    8    0.13385      0.99951     1.85639    0.01025     2.86615
      C    9   -0.02568      0.99942     2.01166    0.01461     3.02568
      C   10    0.13088      0.99947     1.85807    0.01157     2.86912
      C   11   -0.17459      0.99954     2.16538    0.00967     3.17459
      C   12   -0.04131      0.99958     2.03242    0.00930     3.04131
      C   13   -0.17960      0.99955     2.17092    0.00913     3.17960
      N   14   -0.20440      0.99965     2.69152    0.01323     3.70440
      N   15   -0.32773      0.99978     2.81622    0.01174     3.82773
      N   16    0.33336      0.99969     2.14134    0.02561     3.16664
      O   17   -0.23228      0.99990     3.22281    0.00958     4.23228
      O   18   -0.19340      0.99989     3.18580    0.00771     4.19340
      H   19    0.08523      0.00000     0.41379    0.00098     0.41477
      H   20    0.09895      0.00000     0.40032    0.00072     0.40105
      H   21    0.11757      0.00000     0.38100    0.00143     0.38243
      H   22    0.19227      0.00000     0.30532    0.00241     0.30773
      H   23    0.10238      0.00000     0.39632    0.00130     0.39762
      H   24    0.10858      0.00000     0.39043    0.00099     0.39142
      H   25    0.09158      0.00000     0.40648    0.00194     0.40842
      H   26    0.09275      0.00000     0.40539    0.00186     0.40725
      H   27    0.21288      0.00000     0.28479    0.00233     0.28712
      H   28    0.08999      0.00000     0.40814    0.00187     0.41001
      H   29    0.08778      0.00000     0.41115    0.00107     0.41222
      H   30    0.09483      0.00000     0.40385    0.00132     0.40517
      H   31    0.17087      0.00000     0.32687    0.00226     0.32913
      H   32    0.16302      0.00000     0.33423    0.00275     0.33698
      H   33    0.18999      0.00000     0.30681    0.00320     0.31001
 =======================================================================
   * Total *    0.00000     17.99370    48.77602    0.23029    67.00000

 Normal termination of Gaussian 16 at Fri Dec 11 21:36:54 2020.
