 Gaussian 16, Revision A.03,

 -----------------------------------------------------------
 # opt freq B3LYP/6-31G(d) empiricaldispersion=gd3bj scf=xqc
 -----------------------------------------------------------

 -----------------------------
 CID_88998644_JID_457_neutraal
 -----------------------------
 Symbolic Z-matrix:
 Charge =  0 Multiplicity = 1

 SCF Done:  E(RB3LYP) =  -497.192067411     A.U. after   15 cycles
 SCF Done:  E(RB3LYP) =  -497.200424230     A.U. after   13 cycles
 SCF Done:  E(RB3LYP) =  -497.201274766     A.U. after   13 cycles
 SCF Done:  E(RB3LYP) =  -497.201456631     A.U. after   12 cycles
 SCF Done:  E(RB3LYP) =  -497.201594982     A.U. after   13 cycles
 SCF Done:  E(RB3LYP) =  -497.201668420     A.U. after   14 cycles
 SCF Done:  E(RB3LYP) =  -497.201841290     A.U. after   11 cycles
 SCF Done:  E(RB3LYP) =  -497.202324170     A.U. after   15 cycles
 SCF Done:  E(RB3LYP) =  -497.202385422     A.U. after   11 cycles
 SCF Done:  E(RB3LYP) =  -497.202409821     A.U. after   12 cycles
 SCF Done:  E(RB3LYP) =  -497.202411334     A.U. after    9 cycles
 SCF Done:  E(RB3LYP) =  -497.202411768     A.U. after    8 cycles
 SCF Done:  E(RB3LYP) =  -497.202411897     A.U. after    8 cycles
 SCF Done:  E(RB3LYP) =  -497.202411916     A.U. after    7 cycles
 Optimization completed.
    -- Stationary point found.
 Normal termination of Gaussian 16 at Tue Dec  8 10:39:45 2020.

 --------------------------------------------------------------------
 #N Geom=AllCheck Guess=TCheck SCRF=Check GenChk RB3LYP/6-31G(d) Freq
 --------------------------------------------------------------------

 Structure from the checkpoint file:  "JID_457.chk"
 -----------------------------
 CID_88998644_JID_457_neutraal
 -----------------------------
 Charge =  0 Multiplicity = 1

 SCF Done:  E(RB3LYP) =  -497.202411916     A.U. after    1 cycles

  Exact polarizability: 110.662   1.061  85.894  -3.974   1.823  49.401
 Approx polarizability: 168.180   5.543 145.296 -10.694   4.849  72.999

                      1                      2                      3
                      A                      A                      A
 Frequencies --     42.1611                53.9822                86.0663
 Red. masses --      2.4753                 1.4625                 3.6616
 Frc consts  --      0.0026                 0.0025                 0.0160
 IR Inten    --      0.4350                 1.2326                 0.0795

                      4                      5                      6
                      A                      A                      A
 Frequencies --    117.4801               145.7583               177.6939
 Red. masses --      2.5136                 2.5017                 4.0716
 Frc consts  --      0.0204                 0.0313                 0.0757
 IR Inten    --      0.3235                 2.8859                 6.4391

                      7                      8                      9
                      A                      A                      A
 Frequencies --    199.7962               259.6744               279.4001
 Red. masses --      2.6431                 1.6716                 6.7779
 Frc consts  --      0.0622                 0.0664                 0.3117
 IR Inten    --      5.6743                 3.2191                 3.5350

                     10                     11                     12
                      A                      A                      A
 Frequencies --    310.9513               386.7564               517.7961
 Red. masses --      3.4024                 4.7046                 5.0226
 Frc consts  --      0.1938                 0.4146                 0.7934
 IR Inten    --      4.1056                 4.7804                 6.3338

                     13                     14                     15
                      A                      A                      A
 Frequencies --    580.8470               595.0975               644.9292
 Red. masses --     11.5160                 5.4888                 5.9246
 Frc consts  --      2.2891                 1.1453                 1.4519
 IR Inten    --      0.2595                 6.0439                11.9663

                     16                     17                     18
                      A                      A                      A
 Frequencies --    749.8260               782.1521               820.2157
 Red. masses --      2.5805                 7.0802                 1.8970
 Frc consts  --      0.8548                 2.5520                 0.7519
 IR Inten    --     16.4561                 4.8745                 1.7635

                     19                     20                     21
                      A                      A                      A
 Frequencies --    922.6088               934.7256               996.2669
 Red. masses --      5.3101                 3.5665                 3.4219
 Frc consts  --      2.6631                 1.8359                 2.0011
 IR Inten    --      8.7175                24.1859                31.9912

                     22                     23                     24
                      A                      A                      A
 Frequencies --   1051.5514              1087.0395              1105.2247
 Red. masses --      3.9568                 2.6087                 1.9559
 Frc consts  --      2.5778                 1.8162                 1.4076
 IR Inten    --     40.1582                25.1480                14.3442

                     25                     26                     27
                      A                      A                      A
 Frequencies --   1179.5902              1193.6792              1242.1084
 Red. masses --      1.2567                 1.9057                 1.9637
 Frc consts  --      1.0303                 1.5999                 1.7851
 IR Inten    --      0.8508                43.5985                 2.9910

                     28                     29                     30
                      A                      A                      A
 Frequencies --   1306.2037              1352.7043              1404.0592
 Red. masses --      1.2892                 1.5812                 3.1197
 Frc consts  --      1.2960                 1.7046                 3.6235
 IR Inten    --     14.4615                92.6573               324.0182

                     31                     32                     33
                      A                      A                      A
 Frequencies --   1439.4519              1500.5183              1507.6922
 Red. masses --      1.2251                 1.1617                 1.1786
 Frc consts  --      1.4957                 1.5411                 1.5785
 IR Inten    --     24.6226                 7.6440                 5.1849

                     34                     35                     36
                      A                      A                      A
 Frequencies --   1518.3647              1520.1695              1528.5503
 Red. masses --      1.0700                 1.0491                 1.0417
 Frc consts  --      1.4534                 1.4285                 1.4340
 IR Inten    --     30.1346                10.6817                 6.0775

                     37                     38                     39
                      A                      A                      A
 Frequencies --   1540.4363              1679.1905              1869.6737
 Red. masses --      1.0699                 8.9446                12.8955
 Frc consts  --      1.4958                14.8597                26.5596
 IR Inten    --     13.8252               374.0768               280.2035

                     40                     41                     42
                      A                      A                      A
 Frequencies --   1884.3977              3032.5251              3063.3329
 Red. masses --     12.8233                 1.0655                 1.0349
 Frc consts  --     26.8285                 5.7732                 5.7216
 IR Inten    --    225.2600                11.9306                28.8087

                     43                     44                     45
                      A                      A                      A
 Frequencies --   3082.4973              3086.1224              3132.2190
 Red. masses --      1.0293                 1.0968                 1.1035
 Frc consts  --      5.7624                 6.1544                 6.3784
 IR Inten    --     33.0014                12.9219                27.8709

                     46                     47                     48
                      A                      A                      A
 Frequencies --   3147.6737              3164.5439              3194.5898
 Red. masses --      1.1034                 1.1089                 1.1078
 Frc consts  --      6.4414                 6.5430                 6.6609
 IR Inten    --     15.3376                14.9418                12.8400

 - Thermochemistry -
 -------------------
 Temperature   298.150 Kelvin.  Pressure   1.00000 Atm.
 Atom     1 has atomic number  6 and mass  12.00000

 Molecular mass:   140.04734 amu.
 Principal axes and moments of inertia in atomic units:
                           1         2         3
     Eigenvalues --   957.821541710.334402558.29722
           X            0.99981  -0.01910   0.00463
           Y            0.01912   0.99981  -0.00281
           Z           -0.00457   0.00289   0.99999
 This molecule is an asymmetric top.
 Rotational symmetry number  1.
 Warning -- assumption of classical behavior for rotation
           may cause significant error
 Rotational temperatures (Kelvin)      0.09043     0.05064     0.03386
 Rotational constants (GHZ):           1.88421     1.05520     0.70545
 Zero-point vibrational energy     367363.0 (Joules/Mol)
                                   87.80186 (Kcal/Mol)
 Warning -- explicit consideration of  14 degrees of freedom as
           vibrations may cause significant error
 Vibrational temperatures:     60.66    77.67   123.83   169.03   209.71
          (Kelvin)            255.66   287.46   373.61   401.99   447.39
                              556.46   744.99   835.71   856.21   927.91
                             1078.83  1125.34  1180.11  1327.43  1344.86
                             1433.41  1512.95  1564.01  1590.17  1697.17
                             1717.44  1787.12  1879.34  1946.24  2020.13
                             2071.05  2158.91  2169.23  2184.59  2187.18
                             2199.24  2216.34  2415.98  2690.04  2711.23
                             4363.13  4407.45  4435.03  4440.24  4506.56
                             4528.80  4553.07  4596.30

 Zero-point correction=                           0.139921 (Hartree/Particle)
 Thermal correction to Energy=                    0.150614
 Thermal correction to Enthalpy=                  0.151558
 Thermal correction to Gibbs Free Energy=         0.102400
 Sum of electronic and zero-point Energies=           -497.062491
 Sum of electronic and thermal Energies=              -497.051798
 Sum of electronic and thermal Enthalpies=            -497.050854
 Sum of electronic and thermal Free Energies=         -497.100012

                     E (Thermal)             CV                S
                      KCal/Mol        Cal/Mol-Kelvin    Cal/Mol-Kelvin
 Total                   94.512             36.106            103.462
 Electronic               0.000              0.000              0.000
 Translational            0.889              2.981             40.722
 Rotational               0.889              2.981             29.817
 Vibrational             92.734             30.144             32.923
 Vibration     1          0.595              1.980              5.155
 Vibration     2          0.596              1.976              4.666
 Vibration     3          0.601              1.959              3.748
 Vibration     4          0.608              1.935              3.141
 Vibration     5          0.617              1.907              2.727
 Vibration     6          0.628              1.870              2.353
 Vibration     7          0.638              1.840              2.135
 Vibration     8          0.668              1.746              1.664
 Vibration     9          0.680              1.712              1.537
 Vibration    10          0.700              1.653              1.357
 Vibration    11          0.755              1.498              1.013
 Vibration    12          0.873              1.211              0.615
 Vibration    13          0.938              1.073              0.484
 Vibration    14          0.953              1.042              0.458

                           ! Non-Optimized Parameters !
 Normal termination of Gaussian 16 at Tue Dec  8 10:44:25 2020.

 ----------------------------------------------------------------------
 # B3LYP/6-311++G(d,p) empiricaldispersion=gd3bj scf=xqc pop=npa geom=c
 heck
 ----------------------------------------------------------------------

 -------------------------------------
 CID_88998644_JID_457_Energie_neutraal
 -------------------------------------
 Structure from the checkpoint file:  "JID_457.chk"
 Charge =  0 Multiplicity = 1

 SCF Done:  E(RB3LYP) =  -497.348425164     A.U. after   14 cycles
 Normal termination of Gaussian 16 at Tue Dec  8 10:45:47 2020.

 ----------------------------------------------------------------------
 # B3LYP/6-311++G(d,p) empiricaldispersion=gd3bj scf=xqc pop=npa geom=c
 heck
 ----------------------------------------------------------------------

 -----------------------------------
 CID_88998644_JID_457_Energie_kation
 -----------------------------------
 Structure from the checkpoint file:  "JID_457.chk"
 Charge =  1 Multiplicity = 2

 SCF Done:  E(UB3LYP) =  -497.022880336     A.U. after   23 cycles
 Normal termination of Gaussian 16 at Tue Dec  8 10:50:24 2020.
 Gaussian 16:  ES64L-G16RevA.03 25-Dec-2016

 ----------------------------------------------------------------------
 # B3LYP/6-311++G(d,p) empiricaldispersion=gd3bj scf=xqc pop=npa geom=c
 heck
 ----------------------------------------------------------------------

 ----------------------------------
 CID_88998644_JID_457_Energie_anion
 ----------------------------------
 Structure from the checkpoint file:  "JID_457.chk"
 Charge = -1 Multiplicity = 2

                         Standard orientation:
 ---------------------------------------------------------------------
 Center     Atomic      Atomic             Coordinates (Angstroms)
 Number     Number       Type             X           Y           Z
 ---------------------------------------------------------------------
      1          6           0        2.961371   -0.977669    0.567981
      2          6           0        1.822534   -1.229767   -0.437152
      3          6           0        0.700585   -0.275103   -0.246325
      4          6           0       -0.662805   -0.384732   -0.093562
      5          6           0       -0.881454    1.106425    0.044918
      6          8           0       -1.834084    1.825571    0.208289
      7          6           0        0.674675    1.210659   -0.125339
      8          8           0        1.498933    2.092844   -0.145225
      9          8           0       -1.453744   -1.440694   -0.079405
     10          6           0       -2.861497   -1.173609    0.121067
     11          1           0        3.314689    0.054693    0.493179
     12          1           0        3.800918   -1.651215    0.370029
     13          1           0        2.620434   -1.147831    1.594463
     14          1           0        2.213452   -1.102022   -1.456887
     15          1           0        1.454788   -2.259727   -0.366262
     16          1           0       -3.022871   -0.699753    1.092139
     17          1           0       -3.242099   -0.525763   -0.671696
     18          1           0       -3.348613   -2.147381    0.086230
 ---------------------------------------------------------------------

 SCF Done:  E(UB3LYP) =  -497.354388254     A.U. after   32 cycles

 The electronic state is 2-A.
 Alpha  occ. eigenvalues --  -19.04962 -18.96030 -18.93509 -10.11932 -10.09963
 Alpha  occ. eigenvalues --  -10.09335 -10.07534 -10.04310 -10.03043 -10.01869
 Alpha  occ. eigenvalues --   -0.96444  -0.89276  -0.87263  -0.71085  -0.63463
 Alpha  occ. eigenvalues --   -0.61125  -0.51556  -0.46305  -0.42528  -0.37256
 Alpha  occ. eigenvalues --   -0.36484  -0.36372  -0.32263  -0.31641  -0.29471
 Alpha  occ. eigenvalues --   -0.28657  -0.27342  -0.27014  -0.25087  -0.24027
 Alpha  occ. eigenvalues --   -0.23351  -0.22467  -0.21339  -0.21213  -0.14361
 Alpha  occ. eigenvalues --   -0.11074  -0.06761   0.05237
 Alpha virt. eigenvalues --    0.07852   0.08693   0.10617   0.11159   0.11492
 Alpha virt. eigenvalues --    0.11704   0.12723   0.12933   0.14378   0.15230
 Alpha virt. eigenvalues --    0.16785   0.17741   0.18378   0.18866   0.19287

  Beta  occ. eigenvalues --  -19.04953 -18.96050 -18.93025 -10.11929 -10.10018
  Beta  occ. eigenvalues --  -10.09295 -10.07199 -10.04353 -10.02965 -10.01353
  Beta  occ. eigenvalues --   -0.96397  -0.89237  -0.86451  -0.70463  -0.63266
  Beta  occ. eigenvalues --   -0.61047  -0.51154  -0.46213  -0.41825  -0.37143
  Beta  occ. eigenvalues --   -0.36330  -0.36232  -0.32036  -0.31176  -0.29270
  Beta  occ. eigenvalues --   -0.28007  -0.26963  -0.26697  -0.24906  -0.23751
  Beta  occ. eigenvalues --   -0.23267  -0.22234  -0.21030  -0.19609  -0.14056
  Beta  occ. eigenvalues --   -0.09237  -0.06441
  Beta virt. eigenvalues --    0.07742   0.08913   0.10701   0.11207   0.11605
  Beta virt. eigenvalues --    0.11947   0.12637   0.12822   0.13378   0.14502
  Beta virt. eigenvalues --    0.15179   0.16738   0.17605   0.18441   0.18833

 Mulliken charges and spin densities:
               1          2
     1  C    0.514678  -1.028632
     2  C   -1.054482   0.660869
     3  C    0.983775  -0.040241
     4  C    0.061382  -0.019402
     5  C    0.214826   0.086526
     6  O   -0.453697   0.159896
     7  C   -0.336950  -0.022776
     8  O   -0.405313   0.001149
     9  O   -0.234161   0.013876
    10  C   -0.246611  -0.031298
    11  H    0.145446   0.031057
    12  H   -0.539501   0.665009
    13  H    0.001352   0.107277
    14  H   -0.085267   0.232145
    15  H    0.035449   0.112532
    16  H    0.160086   0.012230
    17  H    0.150398   0.026853
    18  H    0.088590   0.032930
 Sum of Mulliken charges =  -1.00000   1.00000

 Dipole moment (field-independent basis, Debye):
    X=             -4.7444    Y=             -3.8719    Z=              0.2140  Tot=              6.1275
 Quadrupole moment (field-independent basis, Debye-Ang):
   XX=            -94.4122   YY=            -90.6049   ZZ=            -67.3628
   XY=             12.5008   XZ=              1.3922   YZ=             -1.0487

 Summary of Natural Population Analysis:

                                       Natural Population
                Natural  -----------------------------------------------
    Atom  No    Charge         Core      Valence    Rydberg      Total
 -----------------------------------------------------------------------
      C    1   -0.27797      0.99966     2.27234    0.00597     3.27797
      C    2   -0.21525      0.99961     2.20574    0.00990     3.21525
      C    3    0.04280      0.99944     1.94522    0.01254     2.95720
      C    4    0.14823      0.99930     1.83579    0.01668     2.85177
      C    5    0.25188      0.99960     1.72360    0.02491     2.74812
      O    6   -0.26087      0.99987     3.25320    0.00780     4.26087
      C    7    0.22795      0.99959     1.74806    0.02440     2.77205
      O    8   -0.31253      0.99987     3.30487    0.00779     4.31253
      O    9   -0.26577      0.99984     3.25577    0.01017     4.26577
      C   10   -0.09779      0.99959     2.08993    0.00827     3.09779
      H   11    0.10367      0.00000     0.39497    0.00137     0.39633
      H   12    0.09397      0.00000     0.40351    0.00252     0.40603
      H   13    0.09289      0.00000     0.40606    0.00104     0.40711
      H   14    0.10860      0.00000     0.38967    0.00173     0.39140
      H   15    0.09670      0.00000     0.40150    0.00180     0.40330
      H   16    0.08982      0.00000     0.40868    0.00151     0.41018
      H   17    0.09145      0.00000     0.40703    0.00152     0.40855
      H   18    0.08222      0.00000     0.41661    0.00117     0.41778
 =======================================================================
   * Total *   -0.00000      9.99637    26.86255    0.14109    37.00000

 Normal termination of Gaussian 16 at Tue Dec  8 10:55:26 2020.
