 Gaussian 16, Revision A.03,

 -----------------------------------------------------------
 # opt freq B3LYP/6-31G(d) empiricaldispersion=gd3bj scf=xqc
 -----------------------------------------------------------

 --------------------------------
 CID_150811960_JID_10256_neutraal
 --------------------------------
 Symbolic Z-matrix:
 Charge =  0 Multiplicity = 1

 SCF Done:  E(RB3LYP) =  -894.178089451     A.U. after   15 cycles
 SCF Done:  E(RB3LYP) =  -894.188240804     A.U. after   13 cycles
 SCF Done:  E(RB3LYP) =  -894.190116570     A.U. after   13 cycles
 SCF Done:  E(RB3LYP) =  -894.190549369     A.U. after   12 cycles
 SCF Done:  E(RB3LYP) =  -894.190647879     A.U. after   12 cycles
 SCF Done:  E(RB3LYP) =  -894.190665107     A.U. after   10 cycles
 SCF Done:  E(RB3LYP) =  -894.190667704     A.U. after    8 cycles
 SCF Done:  E(RB3LYP) =  -894.190668650     A.U. after    8 cycles
 SCF Done:  E(RB3LYP) =  -894.190669545     A.U. after    8 cycles
 SCF Done:  E(RB3LYP) =  -894.190669823     A.U. after    7 cycles
 SCF Done:  E(RB3LYP) =  -894.190669907     A.U. after    7 cycles
 Optimization completed.
    -- Stationary point found.
 Normal termination of Gaussian 16 at Sat Dec 12 14:57:14 2020.

 --------------------------------------------------------------------
 #N Geom=AllCheck Guess=TCheck SCRF=Check GenChk RB3LYP/6-31G(d) Freq
 --------------------------------------------------------------------

 Structure from the checkpoint file:  "JID_10256.chk"
 --------------------------------
 CID_150811960_JID_10256_neutraal
 --------------------------------
 Charge =  0 Multiplicity = 1

 SCF Done:  E(RB3LYP) =  -894.190669907     A.U. after    1 cycles

  Exact polarizability: 356.922   4.821 176.930  -7.767  -5.532  81.399
 Approx polarizability: 524.540   2.107 319.222 -16.048 -19.876 132.910

                      1                      2                      3
                      A                      A                      A
 Frequencies --     31.8690                49.8950                65.1524
 Red. masses --      4.8482                 5.3873                 5.5572
 Frc consts  --      0.0029                 0.0079                 0.0139
 IR Inten    --      4.2830                 2.4880                 1.8163

                      4                      5                      6
                      A                      A                      A
 Frequencies --     78.8180               121.7609               139.3026
 Red. masses --      3.5510                 4.8790                 5.2511
 Frc consts  --      0.0130                 0.0426                 0.0600
 IR Inten    --      2.0802                 1.2159                 0.7909

                      7                      8                      9
                      A                      A                      A
 Frequencies --    172.0335               196.1189               238.5727
 Red. masses --      4.6411                 2.4708                 2.1622
 Frc consts  --      0.0809                 0.0560                 0.0725
 IR Inten    --      0.9523                 0.6083                 0.4295

                     10                     11                     12
                      A                      A                      A
 Frequencies --    253.7376               273.5294               294.4248
 Red. masses --      5.5896                 2.5434                 2.5468
 Frc consts  --      0.2120                 0.1121                 0.1301
 IR Inten    --      1.1779                 1.0021                 2.4417

                     13                     14                     15
                      A                      A                      A
 Frequencies --    304.1699               320.0644               333.1183
 Red. masses --      1.2496                 3.6785                 4.3049
 Frc consts  --      0.0681                 0.2220                 0.2815
 IR Inten    --     18.3921                 7.1363                 3.4054

                     16                     17                     18
                      A                      A                      A
 Frequencies --    377.1111               399.4990               453.4471
 Red. masses --      4.7491                 4.2665                 2.0794
 Frc consts  --      0.3979                 0.4012                 0.2519
 IR Inten    --      2.8589                 0.6485                26.3845

                     19                     20                     21
                      A                      A                      A
 Frequencies --    466.0866               476.5233               478.1025
 Red. masses --      3.8196                 6.4610                 1.5140
 Frc consts  --      0.4889                 0.8644                 0.2039
 IR Inten    --     47.7590                 8.2083                49.8602

                     22                     23                     24
                      A                      A                      A
 Frequencies --    489.8531               498.8405               525.6733
 Red. masses --      3.5447                 4.2381                 6.4324
 Frc consts  --      0.5011                 0.6214                 1.0473
 IR Inten    --      3.9242                 6.4935                 2.1852

                     25                     26                     27
                      A                      A                      A
 Frequencies --    557.9445               578.2749               587.1368
 Red. masses --      3.0785                 2.5284                 4.1502
 Frc consts  --      0.5646                 0.4982                 0.8429
 IR Inten    --     77.1768               281.2584                45.1520

                     28                     29                     30
                      A                      A                      A
 Frequencies --    607.4653               632.1803               644.5313
 Red. masses --      3.4560                 6.9908                 4.0615
 Frc consts  --      0.7514                 1.6461                 0.9941
 IR Inten    --     72.5344                 9.1812                47.1765

                     31                     32                     33
                      A                      A                      A
 Frequencies --    674.7915               686.3603               710.5364
 Red. masses --      2.8824                 7.4509                 4.6823
 Frc consts  --      0.7733                 2.0681                 1.3928
 IR Inten    --      2.3937                 3.6783                 1.2781

                     34                     35                     36
                      A                      A                      A
 Frequencies --    764.9631               800.4997               811.5390
 Red. masses --      6.3211                 5.3567                 6.3212
 Frc consts  --      2.1793                 2.0224                 2.4528
 IR Inten    --      5.3336                 0.9914                 5.8240

                     37                     38                     39
                      A                      A                      A
 Frequencies --    816.9807               835.1650               862.2320
 Red. masses --      5.4449                 1.4330                 1.4286
 Frc consts  --      2.1412                 0.5889                 0.6258
 IR Inten    --     30.7136                19.6770                 2.7467

                     40                     41                     42
                      A                      A                      A
 Frequencies --    872.1844               884.9952               926.0763
 Red. masses --      1.4878                 6.2621                 1.4747
 Frc consts  --      0.6668                 2.8897                 0.7452
 IR Inten    --     46.7700                 7.8447                 0.0967

                     43                     44                     45
                      A                      A                      A
 Frequencies --    928.7504               939.8980               955.2543
 Red. masses --      1.4748                 1.3078                 1.4124
 Frc consts  --      0.7495                 0.6807                 0.7594
 IR Inten    --     22.4279                 3.9533                 1.0175

                     46                     47                     48
                      A                      A                      A
 Frequencies --    991.7660              1005.8585              1076.5076
 Red. masses --      4.7394                 3.3720                 5.1253
 Frc consts  --      2.7466                 2.0101                 3.4995
 IR Inten    --      3.0438                 5.7043                51.6628

                     49                     50                     51
                      A                      A                      A
 Frequencies --   1080.3503              1121.6790              1158.3682
 Red. masses --      2.2450                 1.4323                 1.5172
 Frc consts  --      1.5438                 1.0617                 1.1995
 IR Inten    --      3.3789                 3.5251                29.9492

                     52                     53                     54
                      A                      A                      A
 Frequencies --   1187.5420              1207.8589              1222.1895
 Red. masses --      1.2660                 1.6228                 1.5026
 Frc consts  --      1.0519                 1.3949                 1.3224
 IR Inten    --      0.6310                25.0934                 9.5677

                     55                     56                     57
                      A                      A                      A
 Frequencies --   1238.8127              1246.8565              1252.8095
 Red. masses --      2.7244                 2.3395                 1.8441
 Frc consts  --      2.4634                 2.1429                 1.7053
 IR Inten    --     44.2550                38.5222               158.7909

                     58                     59                     60
                      A                      A                      A
 Frequencies --   1273.2825              1304.1939              1326.3445
 Red. masses --      2.8855                 2.7224                 3.3591
 Frc consts  --      2.7563                 2.7283                 3.4816
 IR Inten    --     90.4106               137.8340                80.5322

                     61                     62                     63
                      A                      A                      A
 Frequencies --   1332.1189              1343.2423              1393.7225
 Red. masses --      2.0290                 1.6684                 2.1404
 Frc consts  --      2.1214                 1.7736                 2.4496
 IR Inten    --     72.3761               103.2813                16.5101

                     64                     65                     66
                      A                      A                      A
 Frequencies --   1395.6590              1413.1405              1435.6975
 Red. masses --      3.6802                 2.7511                 2.4375
 Frc consts  --      4.2236                 3.2369                 2.9601
 IR Inten    --     20.1894                65.7675                58.3416

                     67                     68                     69
                      A                      A                      A
 Frequencies --   1467.3370              1490.7961              1504.6738
 Red. masses --      3.3801                 3.5093                 1.4343
 Frc consts  --      4.2878                 4.5953                 1.9133
 IR Inten    --     33.9248                16.0181                15.3693

                     70                     71                     72
                      A                      A                      A
 Frequencies --   1518.6760              1520.7209              1528.9874
 Red. masses --      1.0513                 3.5599                 3.0608
 Frc consts  --      1.4286                 4.8506                 4.2159
 IR Inten    --      7.9665                 8.0094               137.8230

                     73                     74                     75
                      A                      A                      A
 Frequencies --   1536.0593              1572.8794              1598.2697
 Red. masses --      1.0874                 3.3840                 7.2858
 Frc consts  --      1.5116                 4.9326                10.9655
 IR Inten    --     36.7433               219.3066                27.2100

                     76                     77                     78
                      A                      A                      A
 Frequencies --   1652.5560              1662.5447              1671.4391
 Red. masses --      5.6043                 5.8299                 5.9559
 Frc consts  --      9.0174                 9.4943                 9.8034
 IR Inten    --     84.0290                 4.4065                25.6678

                     79                     80                     81
                      A                      A                      A
 Frequencies --   1673.9305              1697.8060              3035.1820
 Red. masses --      2.7539                 1.5423                 1.0338
 Frc consts  --      4.5465                 2.6194                 5.6110
 IR Inten    --     15.3015               164.4755                41.9962

                     82                     83                     84
                      A                      A                      A
 Frequencies --   3097.1929              3130.5711              3158.9686
 Red. masses --      1.1072                 1.0892                 1.0892
 Frc consts  --      6.2574                 6.2895                 6.4039
 IR Inten    --     34.7935                49.7451                26.7287

                     85                     86                     87
                      A                      A                      A
 Frequencies --   3165.4846              3172.5636              3185.2354
 Red. masses --      1.1011                 1.0906                 1.0903
 Frc consts  --      6.5007                 6.4676                 6.5175
 IR Inten    --     27.7052                17.9076                12.5135

                     88                     89                     90
                      A                      A                      A
 Frequencies --   3202.5484              3220.5588              3229.6575
 Red. masses --      1.0877                 1.0939                 1.0894
 Frc consts  --      6.5729                 6.6851                 6.6947
 IR Inten    --      7.2617                10.8091                 3.4636

                     91                     92                     93
                      A                      A                      A
 Frequencies --   3556.5265              3655.8721              3698.1033
 Red. masses --      1.0476                 1.0989                 1.0646
 Frc consts  --      7.8071                 8.6532                 8.5785
 IR Inten    --     29.8328                11.7733               120.3317

 - Thermochemistry -
 -------------------
 Temperature   298.150 Kelvin.  Pressure   1.00000 Atm.
 Atom     1 has atomic number  6 and mass  12.00000

 Molecular mass:   267.10078 amu.
 Principal axes and moments of inertia in atomic units:
                           1         2         3
     Eigenvalues --  1838.58694********************
           X            0.99990   0.01422   0.00037
           Y           -0.01423   0.99983   0.01191
           Z           -0.00020  -0.01191   0.99993
 This molecule is an asymmetric top.
 Rotational symmetry number  1.
 Warning -- assumption of classical behavior for rotation
           may cause significant error
 Rotational temperatures (Kelvin)      0.04711     0.00673     0.00606
 Rotational constants (GHZ):           0.98159     0.14014     0.12629
 Zero-point vibrational energy     680248.1 (Joules/Mol)
                                  162.58320 (Kcal/Mol)
 Warning -- explicit consideration of  28 degrees of freedom as
           vibrations may cause significant error
 Vibrational temperatures:     45.85    71.79    93.74   113.40   175.19
          (Kelvin)            200.43   247.52   282.17   343.25   365.07
                              393.55   423.61   437.63   460.50   479.28
                              542.58   574.79   652.41   670.59   685.61
                              687.88   704.79   717.72   756.33   802.76
                              832.01   844.76   874.01   909.57   927.34
                              970.87   987.52  1022.30  1100.61  1151.74
                             1167.62  1175.45  1201.62  1240.56  1254.88
                             1273.31  1332.42  1336.26  1352.30  1374.40
                             1426.93  1447.21  1548.85  1554.38  1613.85
                             1666.63  1708.61  1737.84  1758.46  1782.38
                             1793.95  1802.51  1831.97  1876.44  1908.31
                             1916.62  1932.63  2005.26  2008.04  2033.19
                             2065.65  2111.17  2144.92  2164.89  2185.04
                             2187.98  2199.87  2210.05  2263.02  2299.55
                             2377.66  2392.03  2404.83  2408.41  2442.76
                             4366.95  4456.17  4504.19  4545.05  4554.43
                             4564.61  4582.84  4607.75  4633.67  4646.76
                             5117.05  5259.98  5320.75

 Zero-point correction=                           0.259093 (Hartree/Particle)
 Thermal correction to Energy=                    0.275555
 Thermal correction to Enthalpy=                  0.276499
 Thermal correction to Gibbs Free Energy=         0.214707
 Sum of electronic and zero-point Energies=           -893.931577
 Sum of electronic and thermal Energies=              -893.915115
 Sum of electronic and thermal Enthalpies=            -893.914171
 Sum of electronic and thermal Free Energies=         -893.975963

                     E (Thermal)             CV                S
                      KCal/Mol        Cal/Mol-Kelvin    Cal/Mol-Kelvin
 Total                  172.913             65.539            130.053
 Electronic               0.000              0.000              0.000
 Translational            0.889              2.981             42.647
 Rotational               0.889              2.981             34.180
 Vibrational            171.136             59.577             53.226
 Vibration     1          0.594              1.983              5.710
 Vibration     2          0.595              1.978              4.822
 Vibration     3          0.597              1.971              4.295
 Vibration     4          0.600              1.963              3.920
 Vibration     5          0.609              1.931              3.072
 Vibration     6          0.615              1.914              2.813
 Vibration     7          0.626              1.877              2.413
 Vibration     8          0.636              1.845              2.169
 Vibration     9          0.657              1.782              1.813
 Vibration    10          0.665              1.756              1.704
 Vibration    11          0.676              1.722              1.574
 Vibration    12          0.689              1.684              1.448
 Vibration    13          0.695              1.666              1.394
 Vibration    14          0.706              1.635              1.310
 Vibration    15          0.715              1.609              1.245
 Vibration    16          0.748              1.519              1.051
 Vibration    17          0.766              1.471              0.964
 Vibration    18          0.812              1.353              0.785
 Vibration    19          0.823              1.325              0.749
 Vibration    20          0.833              1.302              0.720
 Vibration    21          0.835              1.299              0.715
 Vibration    22          0.846              1.273              0.684
 Vibration    23          0.854              1.253              0.661
 Vibration    24          0.881              1.193              0.597
 Vibration    25          0.913              1.122              0.528
 Vibration    26          0.935              1.078              0.489
 Vibration    27          0.944              1.059              0.472
 Vibration    28          0.966              1.016              0.437

                           ! Non-Optimized Parameters !
 Normal termination of Gaussian 16 at Sat Dec 12 15:12:46 2020.

 ----------------------------------------------------------------------
 # B3LYP/6-311++G(d,p) empiricaldispersion=gd3bj scf=xqc pop=npa geom=c
 heck
 ----------------------------------------------------------------------

 ----------------------------------------
 CID_150811960_JID_10256_Energie_neutraal
 ----------------------------------------
 Structure from the checkpoint file:  "JID_10256.chk"
 Charge =  0 Multiplicity = 1

 SCF Done:  E(RB3LYP) =  -894.437010806     A.U. after   16 cycles
 Normal termination of Gaussian 16 at Sat Dec 12 15:19:40 2020.

 ----------------------------------------------------------------------
 # B3LYP/6-311++G(d,p) empiricaldispersion=gd3bj scf=xqc pop=npa geom=c
 heck
 ----------------------------------------------------------------------

 --------------------------------------
 CID_150811960_JID_10256_Energie_kation
 --------------------------------------
 Structure from the checkpoint file:  "JID_10256.chk"
 Charge =  1 Multiplicity = 2

 SCF Done:  E(UB3LYP) =  -894.166752183     A.U. after   24 cycles
 Normal termination of Gaussian 16 at Sat Dec 12 15:34:03 2020.
 Gaussian 16:  ES64L-G16RevA.03 25-Dec-2016

 ----------------------------------------------------------------------
 # B3LYP/6-311++G(d,p) empiricaldispersion=gd3bj scf=xqc pop=npa geom=c
 heck
 ----------------------------------------------------------------------

 -------------------------------------
 CID_150811960_JID_10256_Energie_anion
 -------------------------------------
 Structure from the checkpoint file:  "JID_10256.chk"
 Charge = -1 Multiplicity = 2

                         Standard orientation:
 ---------------------------------------------------------------------
 Center     Atomic      Atomic             Coordinates (Angstroms)
 Number     Number       Type             X           Y           Z
 ---------------------------------------------------------------------
      1          6           0        4.442636    2.330109    0.821742
      2          8           0        4.700425    0.969761    0.509014
      3          6           0        3.631991    0.174717    0.174033
      4          6           0        3.993576   -1.150934   -0.140086
      5          6           0        3.005072   -2.063369   -0.488848
      6          6           0        1.668605   -1.665342   -0.525471
      7          6           0        1.295716   -0.352761   -0.212331
      8          6           0        2.302051    0.569165    0.139538
      9          6           0       -0.118963    0.068126   -0.245511
     10          6           0       -0.481356    1.377038   -0.688114
     11          7           0       -1.708588    1.844063   -0.748691
     12          6           0       -2.722788    1.023182   -0.368572
     13          6           0       -2.488921   -0.315153    0.080432
     14          6           0       -1.150570   -0.768516    0.136308
     15          6           0       -3.598227   -1.107892    0.453932
     16          6           0       -4.869019   -0.571170    0.379994
     17          6           0       -4.984893    0.778186   -0.081280
     18          7           0       -3.980905    1.540061   -0.440184
     19          7           0       -6.012016   -1.253779    0.781002
     20          8           0        5.300115   -1.527863   -0.102344
     21          1           0        5.412676    2.781100    1.035551
     22          1           0        3.795157    2.417532    1.703164
     23          1           0        3.974490    2.847971   -0.024673
     24          1           0        3.298899   -3.077057   -0.740600
     25          1           0        0.909718   -2.378762   -0.830503
     26          1           0        2.025465    1.580182    0.412889
     27          1           0        0.304850    2.050176   -1.028138
     28          1           0       -0.941864   -1.769080    0.506736
     29          1           0       -3.440345   -2.127855    0.798613
     30          1           0       -5.981446    1.220476   -0.143430
     31          1           0       -5.937917   -2.263060    0.786761
     32          1           0       -6.874710   -0.940372    0.354109
     33          1           0        5.811803   -0.741153    0.156682
 ---------------------------------------------------------------------

 SCF Done:  E(UB3LYP) =  -894.454373974     A.U. after   27 cycles

 The electronic state is 2-A.
 Alpha  occ. eigenvalues --  -19.07722 -19.05451 -14.20748 -14.14306 -14.14237
 Alpha  occ. eigenvalues --  -10.15239 -10.13107 -10.12152 -10.07627 -10.07415
 Alpha  occ. eigenvalues --  -10.06634 -10.06481 -10.06335 -10.05649 -10.05482
 Alpha  occ. eigenvalues --  -10.04560 -10.04143 -10.03237 -10.02649 -10.02071
 Alpha  occ. eigenvalues --   -0.99580  -0.96105  -0.81694  -0.79848  -0.75600
 Alpha  occ. eigenvalues --   -0.74618  -0.68074  -0.66471  -0.65257  -0.62191
 Alpha  occ. eigenvalues --   -0.60257  -0.59295  -0.52579  -0.51438  -0.50364
 Alpha  occ. eigenvalues --   -0.48180  -0.46968  -0.46006  -0.42573  -0.40720
 Alpha  occ. eigenvalues --   -0.40408  -0.39597  -0.39132  -0.37949  -0.36047
 Alpha  occ. eigenvalues --   -0.35187  -0.34319  -0.32990  -0.31984  -0.29961
 Alpha  occ. eigenvalues --   -0.29850  -0.29240  -0.28718  -0.28140  -0.27149
 Alpha  occ. eigenvalues --   -0.26091  -0.25940  -0.25420  -0.24279  -0.23928
 Alpha  occ. eigenvalues --   -0.22945  -0.22072  -0.18955  -0.16507  -0.14461
 Alpha  occ. eigenvalues --   -0.13018  -0.11920  -0.09849  -0.09079  -0.08221
 Alpha  occ. eigenvalues --    0.03650
 Alpha virt. eigenvalues --    0.05931   0.07275   0.07816   0.08869   0.09240
 Alpha virt. eigenvalues --    0.09877   0.10139   0.10212   0.10748   0.11145
 Alpha virt. eigenvalues --    0.12120   0.12413   0.13157   0.13414   0.13846

  Beta  occ. eigenvalues --  -19.07729 -19.05422 -14.20741 -14.14044 -14.13924
  Beta  occ. eigenvalues --  -10.15238 -10.13135 -10.12041 -10.07663 -10.07444
  Beta  occ. eigenvalues --  -10.06668 -10.06423 -10.06315 -10.05587 -10.05492
  Beta  occ. eigenvalues --  -10.04277 -10.04229 -10.03116 -10.02382 -10.01715
  Beta  occ. eigenvalues --   -0.99576  -0.96046  -0.81373  -0.79672  -0.75241
  Beta  occ. eigenvalues --   -0.74383  -0.67729  -0.66315  -0.65071  -0.61991
  Beta  occ. eigenvalues --   -0.59928  -0.59053  -0.52143  -0.51369  -0.50101
  Beta  occ. eigenvalues --   -0.48076  -0.46665  -0.45952  -0.42470  -0.40555
  Beta  occ. eigenvalues --   -0.40289  -0.39596  -0.39046  -0.37740  -0.35978
  Beta  occ. eigenvalues --   -0.35103  -0.34131  -0.32947  -0.31757  -0.29820
  Beta  occ. eigenvalues --   -0.29680  -0.29134  -0.28629  -0.27377  -0.27008
  Beta  occ. eigenvalues --   -0.25923  -0.25847  -0.25282  -0.23878  -0.23691
  Beta  occ. eigenvalues --   -0.22687  -0.21847  -0.17798  -0.15399  -0.14097
  Beta  occ. eigenvalues --   -0.12338  -0.11433  -0.09554  -0.07894  -0.07161
  Beta virt. eigenvalues --    0.05921   0.07242   0.07811   0.08770   0.08842
  Beta virt. eigenvalues --    0.09680   0.09865   0.10134   0.10402   0.11048
  Beta virt. eigenvalues --    0.11122   0.12220   0.12706   0.13198   0.13474

 Mulliken charges and spin densities:
               1          2
     1  C   -0.314369  -0.001200
     2  O   -0.262747  -0.000472
     3  C   -0.629829  -0.016590
     4  C   -0.457901   0.056372
     5  C   -0.248206  -0.009317
     6  C   -0.431110   0.046102
     7  C    0.979815  -0.013651
     8  C    0.294416   0.048461
     9  C    0.588454   0.089056
    10  C   -0.318074  -0.011369
    11  N   -0.062195   0.149076
    12  C   -1.517127  -0.009825
    13  C    1.092556  -0.075769
    14  C   -0.530651   0.275523
    15  C   -0.331638   0.195412
    16  C   -0.408560   0.010185
    17  C    0.203941   0.196567
    18  N   -0.072760   0.109035
    19  N   -0.348454   0.003296
    20  O   -0.283966   0.006176
    21  H    0.152196   0.001253
    22  H    0.161982  -0.000588
    23  H    0.161154   0.002554
    24  H    0.156738   0.001897
    25  H    0.140578  -0.002771
    26  H    0.092855  -0.000050
    27  H    0.147588  -0.001942
    28  H    0.098411  -0.014815
    29  H    0.098661  -0.018158
    30  H    0.135214  -0.019654
    31  H    0.208212   0.005449
    32  H    0.223806   0.000072
    33  H    0.281009  -0.000316
 Sum of Mulliken charges =  -1.00000   1.00000

 Dipole moment (field-independent basis, Debye):
    X=              6.6971    Y=             -2.2574    Z=              1.7370  Tot=              7.2776
 Quadrupole moment (field-independent basis, Debye-Ang):
   XX=           -169.5361   YY=           -130.8633   ZZ=           -129.8462
   XY=             34.5883   XZ=              3.6122   YZ=              6.1034

 Summary of Natural Population Analysis:

                                       Natural Population
                Natural  -----------------------------------------------
    Atom  No    Charge         Core      Valence    Rydberg      Total
 -----------------------------------------------------------------------
      C    1   -0.09929      0.99962     2.09125    0.00842     3.09929
      O    2   -0.29265      0.99985     3.28302    0.00977     4.29265
      C    3    0.11921      0.99936     1.87071    0.01072     2.88079
      C    4    0.14754      0.99936     1.84045    0.01265     2.85246
      C    5   -0.13228      0.99954     2.12401    0.00873     3.13228
      C    6   -0.09063      0.99956     2.08278    0.00829     3.09063
      C    7   -0.00788      0.99941     1.99909    0.00939     3.00788
      C    8   -0.12440      0.99951     2.11747    0.00742     3.12440
      C    9   -0.03927      0.99949     2.03108    0.00870     3.03927
      C   10    0.02797      0.99958     1.95874    0.01371     2.97203
      N   11   -0.18890      0.99967     2.67685    0.01238     3.68890
      C   12    0.16381      0.99948     1.81419    0.02252     2.83619
      C   13   -0.06360      0.99950     2.05624    0.00787     3.06360
      C   14   -0.01032      0.99950     2.00316    0.00766     3.01032
      C   15   -0.06544      0.99950     2.05762    0.00833     3.06544
      C   16    0.05102      0.99949     1.93974    0.00975     2.94898
      C   17    0.06791      0.99958     1.91809    0.01442     2.93209
      N   18   -0.19298      0.99968     2.68105    0.01225     3.69298
      N   19   -0.40356      0.99972     2.89381    0.01003     3.90356
      O   20   -0.34493      0.99988     3.33826    0.00679     4.34493
      H   21    0.08818      0.00000     0.41105    0.00077     0.41182
      H   22    0.08556      0.00000     0.41302    0.00142     0.41444
      H   23    0.08604      0.00000     0.41251    0.00145     0.41396
      H   24    0.10031      0.00000     0.39863    0.00106     0.39969
      H   25    0.10062      0.00000     0.39795    0.00144     0.39938
      H   26    0.10430      0.00000     0.39445    0.00126     0.39570
      H   27    0.07741      0.00000     0.42086    0.00173     0.42259
      H   28    0.08636      0.00000     0.41184    0.00180     0.41364
      H   29    0.08411      0.00000     0.41366    0.00223     0.41589
      H   30    0.06978      0.00000     0.42831    0.00191     0.43022
      H   31    0.17847      0.00000     0.32001    0.00152     0.32153
      H   32    0.17907      0.00000     0.31932    0.00161     0.32093
      H   33    0.23847      0.00000     0.25904    0.00249     0.26153
 =======================================================================
   * Total *    0.00000     19.99128    49.77825    0.23047    70.00000

 Normal termination of Gaussian 16 at Sat Dec 12 15:50:35 2020.
