 Gaussian 16, Revision A.03,

 -----------------------------------------------------------
 # opt freq B3LYP/6-31G(d) empiricaldispersion=gd3bj scf=xqc
 -----------------------------------------------------------

 -------------------------------
 CID_129932459_JID_4467_neutraal
 -------------------------------
 Symbolic Z-matrix:
 Charge =  0 Multiplicity = 1

 SCF Done:  E(RB3LYP) =  -628.392078071     A.U. after   15 cycles
 SCF Done:  E(RB3LYP) =  -628.398870481     A.U. after   12 cycles
 SCF Done:  E(RB3LYP) =  -628.399656178     A.U. after   12 cycles
 SCF Done:  E(RB3LYP) =  -628.400103304     A.U. after   12 cycles
 SCF Done:  E(RB3LYP) =  -628.400398195     A.U. after   11 cycles
 SCF Done:  E(RB3LYP) =  -628.400614143     A.U. after   12 cycles
 SCF Done:  E(RB3LYP) =  -628.400670342     A.U. after   11 cycles
 SCF Done:  E(RB3LYP) =  -628.400695015     A.U. after   11 cycles
 SCF Done:  E(RB3LYP) =  -628.400699088     A.U. after    8 cycles
 SCF Done:  E(RB3LYP) =  -628.400700749     A.U. after    9 cycles
 SCF Done:  E(RB3LYP) =  -628.400701617     A.U. after    8 cycles
 SCF Done:  E(RB3LYP) =  -628.400701939     A.U. after    8 cycles
 SCF Done:  E(RB3LYP) =  -628.400701938     A.U. after    6 cycles
 Optimization completed.
    -- Stationary point found.
 Normal termination of Gaussian 16 at Thu Dec 10 09:50:56 2020.

 --------------------------------------------------------------------
 #N Geom=AllCheck Guess=TCheck SCRF=Check GenChk RB3LYP/6-31G(d) Freq
 --------------------------------------------------------------------

 Structure from the checkpoint file:  "JID_4467.chk"
 -------------------------------
 CID_129932459_JID_4467_neutraal
 -------------------------------
 Charge =  0 Multiplicity = 1

 SCF Done:  E(RB3LYP) =  -628.400701938     A.U. after    1 cycles

  Exact polarizability: 141.071  -5.080 137.722 -15.199  -3.154  79.518
 Approx polarizability: 211.256  -2.373 222.035 -33.692 -10.843 128.198

                      1                      2                      3
                      A                      A                      A
 Frequencies --     60.6354                80.0968                89.5399
 Red. masses --      2.9336                 2.4143                 4.5193
 Frc consts  --      0.0064                 0.0091                 0.0213
 IR Inten    --      0.0470                 0.1297                 2.6373

                      4                      5                      6
                      A                      A                      A
 Frequencies --    131.2950               192.9426               235.1869
 Red. masses --      4.7743                 4.0597                 1.5030
 Frc consts  --      0.0485                 0.0890                 0.0490
 IR Inten    --      0.9710                 0.0968                 1.7521

                      7                      8                      9
                      A                      A                      A
 Frequencies --    239.1140               301.7332               314.3318
 Red. masses --      2.5553                 5.0653                 3.4517
 Frc consts  --      0.0861                 0.2717                 0.2009
 IR Inten    --      0.7805                 5.3409                 3.7185

                     10                     11                     12
                      A                      A                      A
 Frequencies --    357.3837               381.2774               383.4585
 Red. masses --      4.2031                 2.4656                 5.3467
 Frc consts  --      0.3163                 0.2112                 0.4632
 IR Inten    --      6.3154                 5.7401                 9.4431

                     13                     14                     15
                      A                      A                      A
 Frequencies --    451.9285               507.8389               530.0076
 Red. masses --      3.8011                 2.9956                 4.5047
 Frc consts  --      0.4574                 0.4552                 0.7456
 IR Inten    --      7.6212                 1.1174                 2.0634

                     16                     17                     18
                      A                      A                      A
 Frequencies --    541.0477               558.9410               628.8268
 Red. masses --      3.7871                 2.1489                 2.3161
 Frc consts  --      0.6532                 0.3956                 0.5396
 IR Inten    --     11.8725                28.7821                46.7110

                     19                     20                     21
                      A                      A                      A
 Frequencies --    675.3932               707.0250               732.4272
 Red. masses --      3.5751                 3.1486                 3.9035
 Frc consts  --      0.9608                 0.9273                 1.2338
 IR Inten    --     29.7899                 7.4520                43.5086

                     22                     23                     24
                      A                      A                      A
 Frequencies --    737.7473               751.4159               767.7389
 Red. masses --      3.4407                 1.7115                 1.5343
 Frc consts  --      1.1034                 0.5694                 0.5328
 IR Inten    --     14.7967               145.2443                 3.7996

                     25                     26                     27
                      A                      A                      A
 Frequencies --    796.9357               812.2699               828.8366
 Red. masses --      3.5529                 2.4108                 2.2406
 Frc consts  --      1.3295                 0.9372                 0.9069
 IR Inten    --      7.9060                12.4636                40.4799

                     28                     29                     30
                      A                      A                      A
 Frequencies --    857.4704               899.7989               917.1092
 Red. masses --      1.6961                 1.7112                 2.0487
 Frc consts  --      0.7347                 0.8163                 1.0153
 IR Inten    --     14.0909                39.4703                21.2236

                     31                     32                     33
                      A                      A                      A
 Frequencies --    973.3566               997.5946              1000.1411
 Red. masses --      1.3799                 1.5466                 1.5792
 Frc consts  --      0.7703                 0.9068                 0.9307
 IR Inten    --      2.1912                11.6166                20.3534

                     34                     35                     36
                      A                      A                      A
 Frequencies --   1026.2581              1065.7991              1101.9199
 Red. masses --      1.7849                 2.3521                 3.1616
 Frc consts  --      1.1076                 1.5742                 2.2618
 IR Inten    --      2.8318                 4.0961                 1.2825

                     37                     38                     39
                      A                      A                      A
 Frequencies --   1127.0902              1146.9556              1154.4759
 Red. masses --      2.0699                 2.3342                 1.9373
 Frc consts  --      1.5492                 1.8092                 1.5213
 IR Inten    --      5.6526                 5.9259                45.3298

                     40                     41                     42
                      A                      A                      A
 Frequencies --   1186.8674              1194.0672              1208.8760
 Red. masses --      1.8863                 1.2922                 3.5282
 Frc consts  --      1.5655                 1.0855                 3.0379
 IR Inten    --      3.9769                 1.9171                 1.1421

                     43                     44                     45
                      A                      A                      A
 Frequencies --   1247.4903              1288.5421              1329.5498
 Red. masses --      2.7726                 1.7134                 1.2618
 Frc consts  --      2.5422                 1.6761                 1.3141
 IR Inten    --     28.4008                 0.7478                 1.4584

                     46                     47                     48
                      A                      A                      A
 Frequencies --   1341.8847              1350.4711              1366.0497
 Red. masses --      1.9954                 2.5278                 3.2723
 Frc consts  --      2.1169                 2.7162                 3.5978
 IR Inten    --      9.9602                 2.3734               170.3818

                     49                     50                     51
                      A                      A                      A
 Frequencies --   1397.7456              1421.5000              1438.9239
 Red. masses --      1.4785                 1.2329                 1.3026
 Frc consts  --      1.7019                 1.4678                 1.5890
 IR Inten    --     20.1723                20.8468                 3.2817

                     52                     53                     54
                      A                      A                      A
 Frequencies --   1448.1750              1483.5739              1505.8082
 Red. masses --      1.2526                 1.4642                 1.1103
 Frc consts  --      1.5477                 1.8988                 1.4833
 IR Inten    --      6.6836                11.4831                 8.8679

                     55                     56                     57
                      A                      A                      A
 Frequencies --   1508.9214              1524.9937              1530.5947
 Red. masses --      1.9392                 2.4456                 1.0648
 Frc consts  --      2.6013                 3.3510                 1.4698
 IR Inten    --     16.9165                13.8470                 1.3025

                     58                     59                     60
                      A                      A                      A
 Frequencies --   1537.7531              1563.7582              1627.6300
 Red. masses --      1.0745                 1.0999                 5.7456
 Frc consts  --      1.4970                 1.5847                 8.9681
 IR Inten    --      7.6607                10.4304                 0.3627

                     61                     62                     63
                      A                      A                      A
 Frequencies --   1664.4597              1776.9208              3055.5559
 Red. masses --      5.9284                 9.4218                 1.0418
 Frc consts  --      9.6769                17.5275                 5.7311
 IR Inten    --     27.5569               308.5191                20.9409

                     64                     65                     66
                      A                      A                      A
 Frequencies --   3058.0850              3080.2748              3100.8327
 Red. masses --      1.0644                 1.0852                 1.0994
 Frc consts  --      5.8651                 6.0665                 6.2283
 IR Inten    --     12.8082                55.0262                12.8731

                     67                     68                     69
                      A                      A                      A
 Frequencies --   3115.5350              3153.5634              3191.0958
 Red. masses --      1.1003                 1.0990                 1.0862
 Frc consts  --      6.2928                 6.4393                 6.5169
 IR Inten    --     43.2546                19.8749                 2.6926

                     70                     71                     72
                      A                      A                      A
 Frequencies --   3205.4319              3216.3565              3223.5583
 Red. masses --      1.0905                 1.0940                 1.0949
 Frc consts  --      6.6017                 6.6681                 6.7036
 IR Inten    --     15.4043                11.1859                 9.1198

                     73                     74                     75
                      A                      A                      A
 Frequencies --   3490.7383              3494.5201              3579.7134
 Red. masses --      1.0737                 1.0734                 1.0772
 Frc consts  --      7.7087                 7.7231                 8.1328
 IR Inten    --      0.3815                 3.4262                26.3329

 - Thermochemistry -
 -------------------
 Temperature   298.150 Kelvin.  Pressure   1.00000 Atm.
 Atom     1 has atomic number  6 and mass  12.00000

 Molecular mass:   191.10586 amu.
 Principal axes and moments of inertia in atomic units:
                           1         2         3
     Eigenvalues --  1980.448142487.652763835.45304
           X            0.99999   0.00485   0.00166
           Y           -0.00487   0.99992   0.01126
           Z           -0.00161  -0.01127   0.99994
 This molecule is an asymmetric top.
 Rotational symmetry number  1.
 Warning -- assumption of classical behavior for rotation
           may cause significant error
 Rotational temperatures (Kelvin)      0.04373     0.03482     0.02258
 Rotational constants (GHZ):           0.91128     0.72548     0.47054
 Zero-point vibrational energy     597972.3 (Joules/Mol)
                                  142.91881 (Kcal/Mol)
 Warning -- explicit consideration of  17 degrees of freedom as
           vibrations may cause significant error
 Vibrational temperatures:     87.24   115.24   128.83   188.90   277.60
          (Kelvin)            338.38   344.03   434.13   452.25   514.20
                              548.57   551.71   650.22   730.67   762.56
                              778.45   804.19   904.74   971.74  1017.25
                             1053.80  1061.45  1081.12  1104.61  1146.61
                             1168.68  1192.51  1233.71  1294.61  1319.52
                             1400.44  1435.32  1438.98  1476.56  1533.45
                             1585.42  1621.63  1650.21  1661.03  1707.64
                             1718.00  1739.30  1794.86  1853.92  1912.93
                             1930.67  1943.03  1965.44  2011.04  2045.22
                             2070.29  2083.60  2134.53  2166.52  2171.00
                             2194.13  2202.18  2212.48  2249.90  2341.80
                             2394.79  2556.59  4396.26  4399.90  4431.83
                             4461.41  4482.56  4537.27  4591.28  4611.90
                             4627.62  4637.98  5022.39  5027.83  5150.41

 Zero-point correction=                           0.227756 (Hartree/Particle)
 Thermal correction to Energy=                    0.239672
 Thermal correction to Enthalpy=                  0.240616
 Thermal correction to Gibbs Free Energy=         0.189794
 Sum of electronic and zero-point Energies=           -628.172946
 Sum of electronic and thermal Energies=              -628.161030
 Sum of electronic and thermal Enthalpies=            -628.160086
 Sum of electronic and thermal Free Energies=         -628.210908

                     E (Thermal)             CV                S
                      KCal/Mol        Cal/Mol-Kelvin    Cal/Mol-Kelvin
 Total                  150.396             47.487            106.963
 Electronic               0.000              0.000              0.000
 Translational            0.889              2.981             41.649
 Rotational               0.889              2.981             31.314
 Vibrational            148.619             41.525             34.001
 Vibration     1          0.597              1.973              4.436
 Vibration     2          0.600              1.963              3.889
 Vibration     3          0.602              1.957              3.670
 Vibration     4          0.612              1.922              2.927
 Vibration     5          0.635              1.850              2.199
 Vibration     6          0.655              1.787              1.839
 Vibration     7          0.657              1.781              1.809
 Vibration     8          0.694              1.670              1.407
 Vibration     9          0.702              1.646              1.339
 Vibration    10          0.733              1.560              1.133
 Vibration    11          0.751              1.510              1.034
 Vibration    12          0.753              1.505              1.025
 Vibration    13          0.811              1.357              0.790
 Vibration    14          0.863              1.233              0.639
 Vibration    15          0.885              1.184              0.587
 Vibration    16          0.896              1.159              0.563
 Vibration    17          0.915              1.120              0.526

 Optimization completed.
    -- Stationary point found.
 Normal termination of Gaussian 16 at Thu Dec 10 09:58:54 2020.

 ----------------------------------------------------------------------
 # B3LYP/6-311++G(d,p) empiricaldispersion=gd3bj scf=xqc pop=npa geom=c
 heck
 ----------------------------------------------------------------------

 ---------------------------------------
 CID_129932459_JID_4467_Energie_neutraal
 ---------------------------------------
 Structure from the checkpoint file:  "JID_4467.chk"
 Charge =  0 Multiplicity = 1

 SCF Done:  E(RB3LYP) =  -628.580588880     A.U. after   16 cycles
 Normal termination of Gaussian 16 at Thu Dec 10 10:01:50 2020.

 ----------------------------------------------------------------------
 # B3LYP/6-311++G(d,p) empiricaldispersion=gd3bj scf=xqc pop=npa geom=c
 heck
 ----------------------------------------------------------------------

 -------------------------------------
 CID_129932459_JID_4467_Energie_kation
 -------------------------------------
 Structure from the checkpoint file:  "JID_4467.chk"
 Charge =  1 Multiplicity = 2

 SCF Done:  E(UB3LYP) =  -628.263423016     A.U. after   31 cycles
 Normal termination of Gaussian 16 at Thu Dec 10 10:10:23 2020.
 Gaussian 16:  ES64L-G16RevA.03 25-Dec-2016

 ----------------------------------------------------------------------
 # B3LYP/6-311++G(d,p) empiricaldispersion=gd3bj scf=xqc pop=npa geom=c
 heck
 ----------------------------------------------------------------------

 ------------------------------------
 CID_129932459_JID_4467_Energie_anion
 ------------------------------------
 Structure from the checkpoint file:  "JID_4467.chk"
 Charge = -1 Multiplicity = 2

                         Standard orientation:
 ---------------------------------------------------------------------
 Center     Atomic      Atomic             Coordinates (Angstroms)
 Number     Number       Type             X           Y           Z
 ---------------------------------------------------------------------
      1          6           0       -2.254637   -1.633593   -1.207697
      2          6           0       -2.872373   -0.773116   -0.097554
      3          6           0       -1.984137    0.319947    0.513552
      4          7           0       -0.895811   -0.215547    1.360631
      5          6           0        0.322445   -0.565376    0.681831
      6          6           0        0.750710   -1.894285    0.722076
      7          6           0        1.952454   -2.275296    0.127226
      8          6           0        2.756198   -1.320015   -0.500155
      9          6           0        2.349012    0.009630   -0.532553
     10          6           0        1.126911    0.394631    0.033785
     11          6           0        0.775320    1.852002   -0.029065
     12          8           0        1.621841    2.736197   -0.045617
     13          7           0       -0.574130    2.151842   -0.072847
     14          7           0       -1.541583    1.239114   -0.541126
     15          1           0       -2.000951   -1.046379   -2.098313
     16          1           0       -2.974220   -2.394486   -1.528351
     17          1           0       -1.349896   -2.147216   -0.874678
     18          1           0       -3.774328   -0.283530   -0.484358
     19          1           0       -3.183796   -1.417772    0.730560
     20          1           0       -2.604594    0.903695    1.201309
     21          1           0       -0.675400    0.506754    2.043136
     22          1           0        0.126689   -2.613052    1.243472
     23          1           0        2.269608   -3.313543    0.167142
     24          1           0        3.699444   -1.610750   -0.952946
     25          1           0        2.965548    0.776196   -0.990426
     26          1           0       -0.780148    3.124288   -0.271237
     27          1           0       -1.143423    0.711189   -1.315652
 ---------------------------------------------------------------------

 SCF Done:  E(UB3LYP) =  -628.577759276     A.U. after   33 cycles
 SCF Done:  E(UB3LYP) =  -628.577759276     a.u. after    1 cycles

 The electronic state is 2-A.
 Alpha  occ. eigenvalues --  -18.93460 -14.21289 -14.21266 -14.17263 -10.11055
 Alpha  occ. eigenvalues --  -10.10571 -10.05750 -10.05391 -10.05236 -10.02934
 Alpha  occ. eigenvalues --  -10.02856 -10.02601 -10.02121 -10.02061  -0.89868
 Alpha  occ. eigenvalues --   -0.85454  -0.77960  -0.71194  -0.68323  -0.64186
 Alpha  occ. eigenvalues --   -0.61086  -0.59558  -0.54899  -0.50235  -0.47382
 Alpha  occ. eigenvalues --   -0.44749  -0.44285  -0.40206  -0.38396  -0.38085
 Alpha  occ. eigenvalues --   -0.35326  -0.32531  -0.32015  -0.31538  -0.30619
 Alpha  occ. eigenvalues --   -0.29216  -0.28495  -0.27242  -0.26409  -0.24757
 Alpha  occ. eigenvalues --   -0.23742  -0.23480  -0.21733  -0.21231  -0.20984
 Alpha  occ. eigenvalues --   -0.16647  -0.13098  -0.12324  -0.11458  -0.10933
 Alpha  occ. eigenvalues --   -0.10356   0.05570
 Alpha virt. eigenvalues --    0.07465   0.08784   0.09299   0.10002   0.10778
 Alpha virt. eigenvalues --    0.11246   0.11720   0.12235   0.12401   0.12966
 Alpha virt. eigenvalues --    0.13647   0.14296   0.15597   0.16168   0.16865

  Beta  occ. eigenvalues --  -18.93206 -14.21275 -14.21184 -14.17280 -10.10867
  Beta  occ. eigenvalues --  -10.10555 -10.05738 -10.05231 -10.05175 -10.02939
  Beta  occ. eigenvalues --  -10.02930 -10.02501 -10.01856 -10.01790  -0.89521
  Beta  occ. eigenvalues --   -0.85204  -0.77787  -0.70899  -0.68158  -0.64116
  Beta  occ. eigenvalues --   -0.60599  -0.59271  -0.54803  -0.49659  -0.47298
  Beta  occ. eigenvalues --   -0.44545  -0.44064  -0.40090  -0.38236  -0.37920
  Beta  occ. eigenvalues --   -0.35133  -0.32323  -0.31903  -0.31348  -0.30548
  Beta  occ. eigenvalues --   -0.29027  -0.28411  -0.26962  -0.25478  -0.24592
  Beta  occ. eigenvalues --   -0.23544  -0.23323  -0.21299  -0.21078  -0.20459
  Beta  occ. eigenvalues --   -0.16544  -0.12349  -0.11484  -0.10814  -0.10334
  Beta  occ. eigenvalues --   -0.09525
  Beta virt. eigenvalues --    0.07634   0.08934   0.09315   0.09914   0.10741
  Beta virt. eigenvalues --    0.11017   0.11351   0.11820   0.12179   0.12687
  Beta virt. eigenvalues --    0.13200   0.13695   0.14228   0.15636   0.16226

 Mulliken charges and spin densities:
               1          2
     1  C   -0.533927   0.062462
     2  C    0.078436  -0.563911
     3  C   -0.110302  -0.145824
     4  N   -0.026164   0.085958
     5  C   -0.474205  -0.132560
     6  C   -0.193047  -0.076322
     7  C   -0.343043   0.266773
     8  C   -0.423096  -0.004468
     9  C   -0.145451   0.138539
    10  C    0.768378   0.314638
    11  C   -0.099067   0.034243
    12  O   -0.394397   0.083190
    13  N   -0.472656   0.018643
    14  N    0.093010   0.016115
    15  H    0.123154  -0.002475
    16  H    0.027446   0.102030
    17  H    0.204822  -0.019631
    18  H    0.026434   0.117429
    19  H    0.025946   0.139613
    20  H   -0.247783   0.406928
    21  H    0.129092   0.151699
    22  H    0.113952   0.025967
    23  H    0.114752  -0.020716
    24  H    0.104447  -0.000550
    25  H    0.162552   0.001313
    26  H    0.298022   0.002713
    27  H    0.192694  -0.001797
 Sum of Mulliken charges =  -1.00000   1.00000

 Dipole moment (field-independent basis, Debye):
    X=             -2.2120    Y=             -2.0800    Z=             -1.9018  Tot=              3.5828
 Quadrupole moment (field-independent basis, Debye-Ang):
   XX=           -119.9702   YY=           -112.5328   ZZ=            -98.1557
   XY=             -7.2544   XZ=              2.0944   YZ=              0.3602

 Summary of Natural Population Analysis:

                                       Natural Population
                Natural  -----------------------------------------------
    Atom  No    Charge         Core      Valence    Rydberg      Total
 -----------------------------------------------------------------------
      C    1   -0.29253      0.99966     2.28739    0.00549     3.29253
      C    2   -0.19764      0.99961     2.18798    0.01004     3.19764
      C    3    0.08522      0.99960     1.89640    0.01878     2.91478
      N    4   -0.35502      0.99971     2.84350    0.01181     3.85502
      C    5    0.11354      0.99942     1.87464    0.01240     2.88646
      C    6   -0.13150      0.99951     2.12152    0.01047     3.13150
      C    7   -0.04273      0.99957     2.03476    0.00840     3.04273
      C    8   -0.11884      0.99957     2.11061    0.00866     3.11884
      C    9   -0.06179      0.99954     2.05385    0.00840     3.06179
      C   10   -0.05456      0.99941     2.04287    0.01228     3.05456
      C   11    0.35757      0.99962     1.61994    0.02286     2.64243
      O   12   -0.30754      0.99988     3.30155    0.00612     4.30754
      N   13   -0.23773      0.99966     2.72500    0.01306     3.73773
      N   14   -0.25334      0.99973     2.74144    0.01217     3.75334
      H   15    0.09141      0.00000     0.40773    0.00087     0.40859
      H   16    0.09419      0.00000     0.40501    0.00081     0.40581
      H   17    0.11013      0.00000     0.38894    0.00094     0.38987
      H   18    0.09525      0.00000     0.40372    0.00102     0.40475
      H   19    0.10198      0.00000     0.39661    0.00141     0.39802
      H   20    0.09050      0.00000     0.40777    0.00173     0.40950
      H   21    0.18379      0.00000     0.31373    0.00248     0.31621
      H   22    0.09741      0.00000     0.40134    0.00125     0.40259
      H   23    0.08581      0.00000     0.41290    0.00129     0.41419
      H   24    0.08991      0.00000     0.40908    0.00100     0.41009
      H   25    0.10150      0.00000     0.39700    0.00150     0.39850
      H   26    0.18181      0.00000     0.31542    0.00276     0.31819
      H   27    0.17318      0.00000     0.32459    0.00223     0.32682
 =======================================================================
   * Total *    0.00000     13.99450    36.82528    0.18022    51.00000

 Normal termination of Gaussian 16 at Thu Dec 10 10:19:39 2020.
