 Gaussian 16, Revision A.03,

 -----------------------------------------------------------
 # opt freq B3LYP/6-31G(d) empiricaldispersion=gd3bj scf=xqc
 -----------------------------------------------------------

 ------------------------------
 CID_18448469_JID_8767_neutraal
 ------------------------------
 Symbolic Z-matrix:
 Charge =  0 Multiplicity = 1

 SCF Done:  E(RB3LYP) =  -825.414834621     A.U. after   15 cycles
 SCF Done:  E(RB3LYP) =  -825.420176791     A.U. after   13 cycles
 SCF Done:  E(RB3LYP) =  -825.420829795     A.U. after   12 cycles
 SCF Done:  E(RB3LYP) =  -825.420918681     A.U. after   13 cycles
 SCF Done:  E(RB3LYP) =  -825.421293126     A.U. after   12 cycles
 SCF Done:  E(RB3LYP) =  -825.421490900     A.U. after   12 cycles
 SCF Done:  E(RB3LYP) =  -825.422016461     A.U. after   13 cycles
 SCF Done:  E(RB3LYP) =  -825.422375274     A.U. after   13 cycles
 SCF Done:  E(RB3LYP) =  -825.422203523     A.U. after   13 cycles
 SCF Done:  E(RB3LYP) =  -825.420551931     A.U. after   15 cycles
 SCF Done:  E(RB3LYP) =  -825.422707720     A.U. after    8 cycles
 SCF Done:  E(RB3LYP) =  -825.422708795     A.U. after   10 cycles
 SCF Done:  E(RB3LYP) =  -825.422709344     A.U. after    9 cycles
 SCF Done:  E(RB3LYP) =  -825.422709621     A.U. after    9 cycles
 SCF Done:  E(RB3LYP) =  -825.422709704     A.U. after    8 cycles
 Optimization completed.
    -- Stationary point found.
 Normal termination of Gaussian 16 at Fri Dec 11 22:27:16 2020.

 --------------------------------------------------------------------
 #N Geom=AllCheck Guess=TCheck SCRF=Check GenChk RB3LYP/6-31G(d) Freq
 --------------------------------------------------------------------

 Structure from the checkpoint file:  "JID_8767.chk"
 ------------------------------
 CID_18448469_JID_8767_neutraal
 ------------------------------
 Charge =  0 Multiplicity = 1

 SCF Done:  E(RB3LYP) =  -825.422709704     A.U. after    1 cycles

  Exact polarizability: 217.441   7.435 147.260  -3.239  -2.289 114.421
 Approx polarizability: 273.700   7.353 243.276  -6.518   1.434 176.626

                      1                      2                      3
                      A                      A                      A
 Frequencies --     15.2393                22.5989                39.2727
 Red. masses --      8.1308                 5.0090                 4.2732
 Frc consts  --      0.0011                 0.0015                 0.0039
 IR Inten    --      1.1903                 0.0386                 0.2053

                      4                      5                      6
                      A                      A                      A
 Frequencies --     64.5176                79.0447               120.9155
 Red. masses --      6.5107                 3.5076                 3.2515
 Frc consts  --      0.0160                 0.0129                 0.0280
 IR Inten    --      1.3077                 0.5721                 1.2903

                      7                      8                      9
                      A                      A                      A
 Frequencies --    141.2181               159.9599               174.5089
 Red. masses --      3.6860                 4.8144                 1.1565
 Frc consts  --      0.0433                 0.0726                 0.0208
 IR Inten    --      0.2868                 0.2419                 1.3558

                     10                     11                     12
                      A                      A                      A
 Frequencies --    198.6341               231.4224               252.7869
 Red. masses --      2.5316                 2.8862                 2.9774
 Frc consts  --      0.0589                 0.0911                 0.1121
 IR Inten    --      0.7114                 1.1352                 1.8319

                     13                     14                     15
                      A                      A                      A
 Frequencies --    279.3973               293.5296               321.1053
 Red. masses --      3.6794                 3.4395                 3.4083
 Frc consts  --      0.1692                 0.1746                 0.2071
 IR Inten    --      1.5628                 2.8986                 3.0833

                     16                     17                     18
                      A                      A                      A
 Frequencies --    378.8544               385.6481               419.0573
 Red. masses --      2.9174                 1.9683                 4.5590
 Frc consts  --      0.2467                 0.1725                 0.4717
 IR Inten    --      1.2244                 2.0407                 2.5229

                     19                     20                     21
                      A                      A                      A
 Frequencies --    450.1267               470.0560               487.0708
 Red. masses --      3.5252                 3.3708                 3.1975
 Frc consts  --      0.4208                 0.4388                 0.4469
 IR Inten    --      5.4223                 0.9173                 2.0808

                     22                     23                     24
                      A                      A                      A
 Frequencies --    500.0150               516.3543               534.9146
 Red. masses --      2.4244                 2.3153                 2.6450
 Frc consts  --      0.3571                 0.3637                 0.4459
 IR Inten    --     21.7238                 4.5866                 5.7650

                     25                     26                     27
                      A                      A                      A
 Frequencies --    574.5262               627.6211               668.3914
 Red. masses --      4.7923                 3.4447                 3.5901
 Frc consts  --      0.9320                 0.7995                 0.9450
 IR Inten    --     31.6793                35.6733                 6.5988

                     28                     29                     30
                      A                      A                      A
 Frequencies --    677.9014               706.5724               741.9652
 Red. masses --      3.7901                 1.7192                 3.4067
 Frc consts  --      1.0262                 0.5057                 1.1050
 IR Inten    --      7.8568               119.0956                 3.7074

                     31                     32                     33
                      A                      A                      A
 Frequencies --    754.2063               776.4387               796.1250
 Red. masses --      2.5932                 4.0100                 1.7383
 Frc consts  --      0.8691                 1.4243                 0.6491
 IR Inten    --     25.2275                17.4407                27.5746

                     34                     35                     36
                      A                      A                      A
 Frequencies --    835.0679               862.5061               868.1989
 Red. masses --      3.1186                 1.6430                 2.4704
 Frc consts  --      1.2813                 0.7201                 1.0971
 IR Inten    --      1.5120                 4.8693                10.2327

                     37                     38                     39
                      A                      A                      A
 Frequencies --    883.7315               885.8718               906.3431
 Red. masses --      2.1377                 2.8445                 1.5367
 Frc consts  --      0.9836                 1.3152                 0.7437
 IR Inten    --     11.1861                 4.5752                11.3266

                     40                     41                     42
                      A                      A                      A
 Frequencies --    931.7526               957.4181               989.0505
 Red. masses --      1.6052                 2.5034                 1.8483
 Frc consts  --      0.8211                 1.3520                 1.0653
 IR Inten    --      7.2894                 6.2380                 5.3252

                     43                     44                     45
                      A                      A                      A
 Frequencies --    998.9450              1028.1265              1039.9843
 Red. masses --      1.2677                 1.5797                 2.1757
 Frc consts  --      0.7453                 0.9838                 1.3864
 IR Inten    --      2.8191                 7.8366                14.7564

                     46                     47                     48
                      A                      A                      A
 Frequencies --   1048.1430              1072.2183              1078.3579
 Red. masses --      2.1575                 1.6850                 1.4956
 Frc consts  --      1.3965                 1.1413                 1.0247
 IR Inten    --     13.1384                 2.8783                 6.0685

                     49                     50                     51
                      A                      A                      A
 Frequencies --   1092.5732              1100.2534              1128.6499
 Red. masses --      4.0780                 1.7618                 2.0220
 Frc consts  --      2.8681                 1.2566                 1.5176
 IR Inten    --     75.1449                 2.2518                46.6481

                     52                     53                     54
                      A                      A                      A
 Frequencies --   1147.7378              1164.4590              1191.8296
 Red. masses --      2.6756                 2.0598                 1.4878
 Frc consts  --      2.0766                 1.6456                 1.2452
 IR Inten    --     10.0151                64.2500                37.1205

                     55                     56                     57
                      A                      A                      A
 Frequencies --   1199.9307              1208.4264              1217.7640
 Red. masses --      1.3615                 1.8714                 1.4128
 Frc consts  --      1.1550                 1.6102                 1.2344
 IR Inten    --     27.3879               143.1364                71.1945

                     58                     59                     60
                      A                      A                      A
 Frequencies --   1230.2645              1269.7725              1283.2314
 Red. masses --      1.9163                 1.7636                 1.3404
 Frc consts  --      1.7088                 1.6754                 1.3005
 IR Inten    --      8.2780                41.4293                13.2124

                     61                     62                     63
                      A                      A                      A
 Frequencies --   1311.9863              1320.2470              1324.8106
 Red. masses --      1.6588                 1.2968                 1.4359
 Frc consts  --      1.6823                 1.3318                 1.4849
 IR Inten    --     76.9408                 8.6947                24.8279

                     64                     65                     66
                      A                      A                      A
 Frequencies --   1340.2908              1349.9289              1358.8214
 Red. masses --      1.3709                 2.2204                 1.9176
 Frc consts  --      1.4510                 2.3840                 2.0861
 IR Inten    --      1.1114                 4.6731                10.5562

                     67                     68                     69
                      A                      A                      A
 Frequencies --   1383.5887              1390.1359              1395.6745
 Red. masses --      1.4295                 1.4632                 1.5662
 Frc consts  --      1.6124                 1.6660                 1.7975
 IR Inten    --      4.8892                21.4324                29.0675

                     70                     71                     72
                      A                      A                      A
 Frequencies --   1409.3524              1413.0247              1446.0718
 Red. masses --      1.5574                 2.2632                 1.2618
 Frc consts  --      1.8226                 2.6624                 1.5546
 IR Inten    --     10.4599                54.9752                 0.5853

                     73                     74                     75
                      A                      A                      A
 Frequencies --   1447.9587              1471.6423              1498.8270
 Red. masses --      1.4346                 2.3761                 1.1117
 Frc consts  --      1.7721                 3.0320                 1.4714
 IR Inten    --      9.7988                24.4251                 2.6242

                     76                     77                     78
                      A                      A                      A
 Frequencies --   1503.5112              1511.9491              1519.1625
 Red. masses --      1.2899                 1.0942                 1.1037
 Frc consts  --      1.7180                 1.4737                 1.5008
 IR Inten    --      4.5766                 4.3022                 6.5839

                     79                     80                     81
                      A                      A                      A
 Frequencies --   1519.5334              1524.4857              1532.9342
 Red. masses --      1.0572                 1.1218                 1.1392
 Frc consts  --      1.4382                 1.5361                 1.5772
 IR Inten    --      7.9753                 0.3297                10.1738

                     82                     83                     84
                      A                      A                      A
 Frequencies --   1537.9334              1552.6012              1623.8889
 Red. masses --      1.1274                 2.6024                 5.5693
 Frc consts  --      1.5711                 3.6961                 8.6529
 IR Inten    --      1.4714                77.3816                18.5185

                     85                     86                     87
                      A                      A                      A
 Frequencies --   1675.2433              1845.2584              2913.5661
 Red. masses --      6.4643                 9.9400                 1.0741
 Frc consts  --     10.6888                19.9411                 5.3720
 IR Inten    --     27.2227               276.7666                59.4478

                     88                     89                     90
                      A                      A                      A
 Frequencies --   2922.4614              3023.8259              3035.6628
 Red. masses --      1.0732                 1.0699                 1.0656
 Frc consts  --      5.4002                 5.7636                 5.7858
 IR Inten    --    149.1474                24.1279                29.0316

                     91                     92                     93
                      A                      A                      A
 Frequencies --   3040.5149              3040.9258              3055.9347
 Red. masses --      1.0700                 1.0581                 1.0619
 Frc consts  --      5.8279                 5.7650                 5.8427
 IR Inten    --     64.0767                36.4279                18.9906

                     94                     95                     96
                      A                      A                      A
 Frequencies --   3081.4330              3083.5652              3088.4439
 Red. masses --      1.0872                 1.0885                 1.0955
 Frc consts  --      6.0823                 6.0977                 6.1566
 IR Inten    --     70.4936                29.7066                24.7766

                     97                     98                     99
                      A                      A                      A
 Frequencies --   3100.9063              3103.9883              3109.5501
 Red. masses --      1.1044                 1.0892                 1.0964
 Frc consts  --      6.2570                 6.1832                 6.2464
 IR Inten    --     49.7873                17.8152                 8.1381

                    100                    101                    102
                      A                      A                      A
 Frequencies --   3140.4851              3176.3974              3189.6820
 Red. masses --      1.1029                 1.0894                 1.0904
 Frc consts  --      6.4088                 6.4762                 6.5361
 IR Inten    --      9.0013                22.4612                 6.6922

                    103                    104                    105
                      A                      A                      A
 Frequencies --   3224.1381              3502.3713              3679.5684
 Red. masses --      1.0925                 1.0746                 1.0639
 Frc consts  --      6.6910                 7.7667                 8.4870
 IR Inten    --      7.1805                 0.8291                57.7120

 - Thermochemistry -
 -------------------
 Temperature   298.150 Kelvin.  Pressure   1.00000 Atm.
 Atom     1 has atomic number  6 and mass  12.00000

 Molecular mass:   249.13649 amu.
 Principal axes and moments of inertia in atomic units:
                           1         2         3
     Eigenvalues --  1489.97900********************
           X            0.99997   0.00729   0.00003
           Y           -0.00729   0.99957  -0.02857
           Z           -0.00024   0.02857   0.99959
 This molecule is an asymmetric top.
 Rotational symmetry number  1.
 Warning -- assumption of classical behavior for rotation
           may cause significant error
 Rotational temperatures (Kelvin)      0.05813     0.00822     0.00792
 Rotational constants (GHZ):           1.21125     0.17134     0.16509
 Zero-point vibrational energy     832618.2 (Joules/Mol)
                                  199.00052 (Kcal/Mol)
 Warning -- explicit consideration of  25 degrees of freedom as
           vibrations may cause significant error
 Vibrational temperatures:     21.93    32.51    56.50    92.83   113.73
          (Kelvin)            173.97   203.18   230.15   251.08   285.79
                              332.97   363.70   401.99   422.32   462.00
                              545.09   554.86   602.93   647.63   676.31
                              700.79   719.41   742.92   769.62   826.62
                              903.01   961.67   975.35  1016.60  1067.52
                             1085.13  1117.12  1145.45  1201.48  1240.95
                             1249.14  1271.49  1274.57  1304.03  1340.58
                             1377.51  1423.02  1437.26  1479.24  1496.31
                             1508.04  1542.68  1551.52  1571.97  1583.02
                             1623.88  1651.34  1675.40  1714.78  1726.43
                             1738.66  1752.09  1770.08  1826.92  1846.28
                             1887.66  1899.54  1906.11  1928.38  1942.25
                             1955.04  1990.68  2000.10  2008.06  2027.74
                             2033.03  2080.57  2083.29  2117.36  2156.48
                             2163.22  2175.36  2185.74  2186.27  2193.39
                             2205.55  2212.74  2233.85  2336.41  2410.30
                             2654.92  4191.97  4204.77  4350.61  4367.64
                             4374.62  4375.21  4396.81  4433.49  4436.56
                             4443.58  4461.51  4465.95  4473.95  4518.46
                             4570.13  4589.24  4638.82  5039.13  5294.08

 Zero-point correction=                           0.317128 (Hartree/Particle)
 Thermal correction to Energy=                    0.334024
 Thermal correction to Enthalpy=                  0.334969
 Thermal correction to Gibbs Free Energy=         0.270167
 Sum of electronic and zero-point Energies=           -825.105582
 Sum of electronic and thermal Energies=              -825.088685
 Sum of electronic and thermal Enthalpies=            -825.087741
 Sum of electronic and thermal Free Energies=         -825.152542

                     E (Thermal)             CV                S
                      KCal/Mol        Cal/Mol-Kelvin    Cal/Mol-Kelvin
 Total                  209.603             64.812            136.386
 Electronic               0.000              0.000              0.000
 Translational            0.889              2.981             42.439
 Rotational               0.889              2.981             33.506
 Vibrational            207.826             58.850             60.441
 Vibration     1          0.593              1.986              7.174
 Vibration     2          0.593              1.985              6.392
 Vibration     3          0.594              1.981              5.295
 Vibration     4          0.597              1.971              4.314
 Vibration     5          0.600              1.963              3.914
 Vibration     6          0.609              1.932              3.086
 Vibration     7          0.615              1.912              2.787
 Vibration     8          0.622              1.891              2.550
 Vibration     9          0.627              1.874              2.386
 Vibration    10          0.637              1.842              2.146
 Vibration    11          0.653              1.793              1.868
 Vibration    12          0.664              1.758              1.711
 Vibration    13          0.680              1.712              1.537
 Vibration    14          0.688              1.686              1.454
 Vibration    15          0.707              1.633              1.304
 Vibration    16          0.749              1.515              1.044
 Vibration    17          0.754              1.501              1.017
 Vibration    18          0.782              1.429              0.895
 Vibration    19          0.809              1.361              0.795
 Vibration    20          0.827              1.316              0.737
 Vibration    21          0.843              1.279              0.691
 Vibration    22          0.855              1.250              0.658
 Vibration    23          0.871              1.214              0.618
 Vibration    24          0.890              1.173              0.576
 Vibration    25          0.931              1.086              0.496

                           ! Non-Optimized Parameters !
 Normal termination of Gaussian 16 at Fri Dec 11 22:42:53 2020.

 ----------------------------------------------------------------------
 # B3LYP/6-311++G(d,p) empiricaldispersion=gd3bj scf=xqc pop=npa geom=c
 heck
 ----------------------------------------------------------------------

 --------------------------------------
 CID_18448469_JID_8767_Energie_neutraal
 --------------------------------------
 Structure from the checkpoint file:  "JID_8767.chk"
 Charge =  0 Multiplicity = 1

 SCF Done:  E(RB3LYP) =  -825.660577790     A.U. after   15 cycles
 Normal termination of Gaussian 16 at Fri Dec 11 22:50:11 2020.

 ----------------------------------------------------------------------
 # B3LYP/6-311++G(d,p) empiricaldispersion=gd3bj scf=xqc pop=npa geom=c
 heck
 ----------------------------------------------------------------------

 ------------------------------------
 CID_18448469_JID_8767_Energie_kation
 ------------------------------------
 Structure from the checkpoint file:  "JID_8767.chk"
 Charge =  1 Multiplicity = 2

 SCF Done:  E(UB3LYP) =  -825.373436556     A.U. after   25 cycles
 Normal termination of Gaussian 16 at Fri Dec 11 23:07:22 2020.
 Gaussian 16:  ES64L-G16RevA.03 25-Dec-2016

 ----------------------------------------------------------------------
 # B3LYP/6-311++G(d,p) empiricaldispersion=gd3bj scf=xqc pop=npa geom=c
 heck
 ----------------------------------------------------------------------

 -----------------------------------
 CID_18448469_JID_8767_Energie_anion
 -----------------------------------
 Structure from the checkpoint file:  "JID_8767.chk"
 Charge = -1 Multiplicity = 2

                         Standard orientation:
 ---------------------------------------------------------------------
 Center     Atomic      Atomic             Coordinates (Angstroms)
 Number     Number       Type             X           Y           Z
 ---------------------------------------------------------------------
      1          6           0        2.437805    1.984780   -0.422191
      2          6           0        1.164644    1.226197   -0.146464
      3          6           0        1.131698   -0.176978   -0.145659
      4          6           0       -0.052481   -0.875483    0.068594
      5          6           0       -1.260424   -0.204646    0.296315
      6          6           0       -1.238119    1.195510    0.311043
      7          6           0       -0.045093    1.885071    0.093176
      8          6           0       -2.520980   -1.032883    0.486443
      9          6           0       -3.181839   -1.392929   -0.867666
     10          6           0       -3.941237   -0.202389   -1.460943
     11          6           0       -4.958753    0.328333   -0.448907
     12          7           0       -4.264332    0.715028    0.779644
     13          6           0       -3.579129   -0.411560    1.416283
     14          8           0        2.277229   -0.917114   -0.405220
     15          6           0        3.247506   -0.933594    0.625111
     16          6           0        4.624271   -0.463197    0.185815
     17          8           0        5.508530   -0.206464    0.972905
     18          8           0        4.777583   -0.404735   -1.151553
     19          1           0        3.118263    1.982538    0.440023
     20          1           0        2.982775    1.545191   -1.262834
     21          1           0        2.218298    3.030695   -0.656031
     22          1           0       -0.015759   -1.961606    0.051050
     23          1           0       -2.163563    1.734152    0.479819
     24          1           0       -0.053153    2.972777    0.094098
     25          1           0       -2.210422   -1.975282    0.956333
     26          1           0       -2.420941   -1.759350   -1.565717
     27          1           0       -3.889387   -2.217469   -0.698253
     28          1           0       -3.238916    0.599382   -1.716618
     29          1           0       -4.453947   -0.499872   -2.383409
     30          1           0       -5.475176    1.209642   -0.845396
     31          1           0       -5.725757   -0.452956   -0.271174
     32          1           0       -4.923357    1.124637    1.437393
     33          1           0       -4.284567   -1.217413    1.700953
     34          1           0       -3.103342   -0.051373    2.335086
     35          1           0        2.949400   -0.319582    1.480595
     36          1           0        3.367230   -1.963953    0.989406
     37          1           0        5.698704   -0.116244   -1.297602
 ---------------------------------------------------------------------

 SCF Done:  E(UB3LYP) =  -825.650310650     A.U. after   33 cycles
 SCF Done:  E(UB3LYP) =  -825.650310650     a.u. after    1 cycles

 The electronic state is 2-A.
 Alpha  occ. eigenvalues --  -19.08826 -19.05916 -19.03568 -14.20495 -10.22741
 Alpha  occ. eigenvalues --  -10.15934 -10.13971 -10.10007 -10.09858 -10.09453
 Alpha  occ. eigenvalues --  -10.09003 -10.08861 -10.08488 -10.08303 -10.08121
 Alpha  occ. eigenvalues --  -10.07756 -10.07385 -10.07374  -1.03200  -0.97677
 Alpha  occ. eigenvalues --   -0.94206  -0.82176  -0.77195  -0.71574  -0.68388
 Alpha  occ. eigenvalues --   -0.68252  -0.65869  -0.63602  -0.59580  -0.54783
 Alpha  occ. eigenvalues --   -0.53976  -0.53552  -0.52055  -0.49762  -0.46599
 Alpha  occ. eigenvalues --   -0.43018  -0.42140  -0.41604  -0.41389  -0.40075
 Alpha  occ. eigenvalues --   -0.39052  -0.38225  -0.36479  -0.35772  -0.34946
 Alpha  occ. eigenvalues --   -0.34072  -0.33699  -0.32945  -0.32499  -0.31956
 Alpha  occ. eigenvalues --   -0.31798  -0.30684  -0.29128  -0.28943  -0.28742
 Alpha  occ. eigenvalues --   -0.26556  -0.26175  -0.25166  -0.24639  -0.23965
 Alpha  occ. eigenvalues --   -0.22784  -0.22489  -0.22245  -0.18868  -0.15944
 Alpha  occ. eigenvalues --   -0.14959  -0.13431   0.03772
 Alpha virt. eigenvalues --    0.04879   0.06266   0.06940   0.06997   0.07194
 Alpha virt. eigenvalues --    0.07342   0.07843   0.08304   0.08806   0.09289
 Alpha virt. eigenvalues --    0.09696   0.10048   0.10677   0.11079   0.11265

  Beta  occ. eigenvalues --  -19.08770 -19.05915 -19.03552 -14.20471 -10.22734
  Beta  occ. eigenvalues --  -10.15910 -10.13971 -10.09985 -10.09834 -10.09447
  Beta  occ. eigenvalues --  -10.08998 -10.08858 -10.08487 -10.08289 -10.08115
  Beta  occ. eigenvalues --  -10.07742 -10.07379 -10.07371  -1.03124  -0.97673
  Beta  occ. eigenvalues --   -0.94145  -0.82139  -0.77183  -0.71550  -0.68354
  Beta  occ. eigenvalues --   -0.68225  -0.65839  -0.63573  -0.59551  -0.54731
  Beta  occ. eigenvalues --   -0.53907  -0.53490  -0.52030  -0.49732  -0.46562
  Beta  occ. eigenvalues --   -0.42966  -0.42103  -0.41557  -0.41365  -0.40037
  Beta  occ. eigenvalues --   -0.39030  -0.38198  -0.36452  -0.35739  -0.34911
  Beta  occ. eigenvalues --   -0.34047  -0.33670  -0.32920  -0.32448  -0.31923
  Beta  occ. eigenvalues --   -0.31773  -0.30661  -0.29107  -0.28915  -0.28717
  Beta  occ. eigenvalues --   -0.26538  -0.26151  -0.25143  -0.24607  -0.23936
  Beta  occ. eigenvalues --   -0.22755  -0.22453  -0.22212  -0.18840  -0.15932
  Beta  occ. eigenvalues --   -0.14930  -0.13381
  Beta virt. eigenvalues --    0.05831   0.06267   0.06573   0.07125   0.07280
  Beta virt. eigenvalues --    0.07606   0.07802   0.08128   0.08433   0.09131
  Beta virt. eigenvalues --    0.09531   0.10055   0.10128   0.10804   0.11253

 Mulliken charges and spin densities:
               1          2
     1  C    0.297968  -0.810018
     2  C    1.359687   0.216479
     3  C   -1.377872   0.446631
     4  C   -0.860365   0.014306
     5  C    0.825123  -0.105177
     6  C   -0.471693   0.003931
     7  C    0.037383  -0.511552
     8  C   -0.474926   0.808755
     9  C    0.539490  -1.127814
    10  C   -0.770937   0.470590
    11  C    0.691933  -1.062562
    12  N   -0.381058   0.185042
    13  C    0.333174  -1.011802
    14  O   -0.028844  -0.001329
    15  C    0.369838  -0.608876
    16  C   -0.041088  -0.079318
    17  O   -0.265041   0.023679
    18  O   -0.139828   0.011399
    19  H    0.103257   0.073158
    20  H    0.159415   0.027225
    21  H    0.059199   0.099597
    22  H   -0.016615   0.205327
    23  H    0.415984  -0.158371
    24  H   -0.024330   0.170603
    25  H   -0.045392   0.264988
    26  H    0.062158   0.089604
    27  H   -0.028101   0.172351
    28  H    0.153628  -0.032798
    29  H   -0.058052   0.224857
    30  H   -0.271835   0.434503
    31  H   -0.207657   0.334421
    32  H   -0.130617   0.395409
    33  H   -0.404676   0.542149
    34  H   -0.063476   0.235830
    35  H    0.152638   0.069455
    36  H   -0.091499   0.282283
    37  H   -0.406975   0.707042
 Sum of Mulliken charges =  -1.00000   1.00000

 Dipole moment (field-independent basis, Debye):
    X=              0.2727    Y=              1.2762    Z=             -0.2783  Tot=              1.3344
 Quadrupole moment (field-independent basis, Debye-Ang):
   XX=           -254.9376   YY=           -137.5567   ZZ=           -142.9255
   XY=              0.2308   XZ=             12.9953   YZ=             -0.8349

 Summary of Natural Population Analysis:

                                       Natural Population
                Natural  -----------------------------------------------
    Atom  No    Charge         Core      Valence    Rydberg      Total
 -----------------------------------------------------------------------
      C    1   -0.29892      0.99964     2.29391    0.00537     3.29892
      C    2   -0.04037      0.99946     2.03319    0.00772     3.04037
      C    3    0.15296      0.99930     1.83437    0.01336     2.84704
      C    4   -0.11445      0.99946     2.10528    0.00971     3.11445
      C    5   -0.00686      0.99950     1.99643    0.01092     3.00686
      C    6   -0.10913      0.99951     2.10170    0.00792     3.10913
      C    7   -0.09370      0.99953     2.08557    0.00859     3.09370
      C    8   -0.12136      0.99956     2.10945    0.01236     3.12136
      C    9   -0.18411      0.99961     2.17588    0.00862     3.18411
      C   10   -0.19737      0.99962     2.18921    0.00854     3.19737
      C   11   -0.08534      0.99962     2.07391    0.01180     3.08534
      N   12   -0.34689      0.99974     2.83417    0.01298     3.84689
      C   13   -0.08382      0.99961     2.07165    0.01257     3.08382
      O   14   -0.28815      0.99986     3.27828    0.01001     4.28815
      C   15   -0.05668      0.99951     2.04528    0.01189     3.05668
      C   16    0.39291      0.99974     1.58157    0.02578     2.60709
      O   17   -0.30744      0.99987     3.30120    0.00637     4.30744
      O   18   -0.33358      0.99987     3.32609    0.00762     4.33358
      H   19    0.10295      0.00000     0.39570    0.00135     0.39705
      H   20    0.11351      0.00000     0.38497    0.00152     0.38649
      H   21    0.10196      0.00000     0.39718    0.00086     0.39804
      H   22    0.10457      0.00000     0.39370    0.00174     0.39543
      H   23    0.11776      0.00000     0.38051    0.00173     0.38224
      H   24    0.09721      0.00000     0.40188    0.00090     0.40279
      H   25    0.10413      0.00000     0.39415    0.00171     0.39587
      H   26    0.10102      0.00000     0.39806    0.00092     0.39898
      H   27    0.09678      0.00000     0.40180    0.00142     0.40322
      H   28    0.09981      0.00000     0.39874    0.00145     0.40019
      H   29    0.09869      0.00000     0.40052    0.00079     0.40131
      H   30    0.09501      0.00000     0.40389    0.00109     0.40499
      H   31    0.07736      0.00000     0.42064    0.00200     0.42264
      H   32    0.17848      0.00000     0.31792    0.00359     0.32152
      H   33    0.08338      0.00000     0.41479    0.00183     0.41662
      H   34    0.09838      0.00000     0.40038    0.00124     0.40162
      H   35    0.10315      0.00000     0.39565    0.00120     0.39685
      H   36    0.10322      0.00000     0.39544    0.00133     0.39678
      H   37    0.24490      0.00000     0.23783    0.01727     0.25510
 =======================================================================
   * Total *    0.00000     17.99298    48.77090    0.23612    67.00000

 Normal termination of Gaussian 16 at Fri Dec 11 23:30:25 2020.
