 Gaussian 16, Revision A.03,

 -----------------------------------------------------------
 # opt freq B3LYP/6-31G(d) empiricaldispersion=gd3bj scf=xqc
 -----------------------------------------------------------

 ------------------------------
 CID_129087759_JID_464_neutraal
 ------------------------------
 Symbolic Z-matrix:
 Charge =  0 Multiplicity = 1

 SCF Done:  E(RB3LYP) =  -406.750419095     A.U. after   13 cycles
 SCF Done:  E(RB3LYP) =  -406.754462665     A.U. after   12 cycles
 SCF Done:  E(RB3LYP) =  -406.754646514     A.U. after   11 cycles
 SCF Done:  E(RB3LYP) =  -406.754673087     A.U. after    9 cycles
 SCF Done:  E(RB3LYP) =  -406.754675561     A.U. after    8 cycles
 SCF Done:  E(RB3LYP) =  -406.754675897     A.U. after    7 cycles
 SCF Done:  E(RB3LYP) =  -406.754676004     A.U. after    7 cycles
 Optimization completed.
    -- Stationary point found.

 1\1\GINC-NODE206\FOpt\RB3LYP\6-31G(d)\C9H15N1\VSC10255\08-Dec-2020\0\\
 # opt freq B3LYP/6-31G(d) empiricaldispersion=gd3bj scf=xqc\\CID_12908
 7759_JID_464_neutraal\\0,1\C,1.0128770008,0.0787723398,0.0405428998\C,
 0.5591911424,1.5465111852,-0.0477443851\C,1.2298158859,2.2237318062,-1
 .2558467424\C,-0.9672236133,1.5905621239,-0.2302708427\C,1.0195515398,
 2.2717561933,1.2292214442\C,0.6175576652,3.7481825436,1.4960844747\C,0
 .5339492453,3.399503315,3.0137034817\C,0.4301351243,1.8952138602,2.616
 1105995\C,-0.5530442865,3.9787922191,3.7901851303\N,-1.4451809679,4.42

 Normal termination of Gaussian 16 at Tue Dec  8 10:36:17 2020.

 --------------------------------------------------------------------
 #N Geom=AllCheck Guess=TCheck SCRF=Check GenChk RB3LYP/6-31G(d) Freq
 --------------------------------------------------------------------

 Structure from the checkpoint file:  "JID_464.chk"
 ------------------------------
 CID_129087759_JID_464_neutraal
 ------------------------------
 Charge =  0 Multiplicity = 1

 SCF Done:  E(RB3LYP) =  -406.754676004     A.U. after    1 cycles

  Exact polarizability: 113.907   0.000  82.880   6.519   0.000  85.097
 Approx polarizability: 148.213   0.001 118.684  17.074   0.001 131.042

                      1                      2                      3
                      A                      A                      A
 Frequencies --     52.6976                54.7063               166.2318
 Red. masses --      2.8661                 4.6394                 2.6962
 Frc consts  --      0.0047                 0.0082                 0.0439
 IR Inten    --      1.6079                 3.5210                 2.4684

                      4                      5                      6
                      A                      A                      A
 Frequencies --    202.8658               224.7963               232.7630
 Red. masses --      2.7982                 3.5474                 1.1618
 Frc consts  --      0.0679                 0.1056                 0.0371
 IR Inten    --      1.8840                 2.5025                 0.0020

                      7                      8                      9
                      A                      A                      A
 Frequencies --    272.0023               274.8821               303.2255
 Red. masses --      1.0606                 1.1237                 2.5331
 Frc consts  --      0.0462                 0.0500                 0.1372
 IR Inten    --      0.0097                 0.2308                 0.5105

                     10                     11                     12
                      A                      A                      A
 Frequencies --    313.9025               357.7135               380.8783
 Red. masses --      2.7670                 2.2513                 2.2044
 Frc consts  --      0.1606                 0.1697                 0.1884
 IR Inten    --      0.4174                 0.0937                 0.0166

                     13                     14                     15
                      A                      A                      A
 Frequencies --    455.1186               504.4294               535.8858
 Red. masses --      2.9159                 2.4186                 4.1814
 Frc consts  --      0.3558                 0.3626                 0.7075
 IR Inten    --      0.1023                 0.4935                 1.1205

                     16                     17                     18
                      A                      A                      A
 Frequencies --    559.9174               575.1200               715.9965
 Red. masses --      5.1069                 2.2665                 3.1528
 Frc consts  --      0.9433                 0.4417                 0.9523
 IR Inten    --      0.0248                 0.9655                 0.1346

                     19                     20                     21
                      A                      A                      A
 Frequencies --    828.4402               830.0365               919.1628
 Red. masses --      2.4680                 1.2280                 3.3053
 Frc consts  --      0.9980                 0.4985                 1.6453
 IR Inten    --      1.5597                 1.7859                 0.6459

                     22                     23                     24
                      A                      A                      A
 Frequencies --    947.6169               947.9695               959.6284
 Red. masses --      1.6777                 1.7922                 2.2097
 Frc consts  --      0.8877                 0.9489                 1.1989
 IR Inten    --      0.4108                 0.9300                 0.1562

                     25                     26                     27
                      A                      A                      A
 Frequencies --    972.2682              1005.7342              1017.7416
 Red. masses --      1.2117                 1.8380                 1.9090
 Frc consts  --      0.6749                 1.0954                 1.1650
 IR Inten    --      0.0000                 1.5330                 0.2630

                     28                     29                     30
                      A                      A                      A
 Frequencies --   1040.0783              1048.7034              1090.9740
 Red. masses --      1.5697                 1.6556                 1.8386
 Frc consts  --      1.0005                 1.0728                 1.2893
 IR Inten    --      0.2228                 0.0054                 0.3478

                     31                     32                     33
                      A                      A                      A
 Frequencies --   1095.0652              1124.8903              1198.3425
 Red. masses --      2.1859                 2.4741                 1.4179
 Frc consts  --      1.5444                 1.8446                 1.1997
 IR Inten    --      1.9561                 1.3349                 0.5627

                     34                     35                     36
                      A                      A                      A
 Frequencies --   1245.8622              1255.6133              1259.4432
 Red. masses --      1.3823                 1.8376                 1.1681
 Frc consts  --      1.2641                 1.7069                 1.0916
 IR Inten    --      0.2434                10.0174                 1.6434

                     37                     38                     39
                      A                      A                      A
 Frequencies --   1263.4711              1281.9467              1309.0730
 Red. masses --      2.4014                 1.5700                 2.4936
 Frc consts  --      2.2586                 1.5202                 2.5177
 IR Inten    --      2.9145                 4.7429                 3.9537

                     40                     41                     42
                      A                      A                      A
 Frequencies --   1314.5112              1375.0254              1405.1116
 Red. masses --      1.3454                 1.4217                 1.5030
 Frc consts  --      1.3697                 1.5837                 1.7484
 IR Inten    --      0.3255                 5.0240                 0.9669

                     43                     44                     45
                      A                      A                      A
 Frequencies --   1428.2885              1431.5572              1461.8016
 Red. masses --      1.2337                 1.2525                 1.2349
 Frc consts  --      1.4829                 1.5123                 1.5547
 IR Inten    --      6.3482                 8.0060                 5.3466

                     46                     47                     48
                      A                      A                      A
 Frequencies --   1504.9986              1516.2212              1516.3905
 Red. masses --      1.0797                 1.0504                 1.0557
 Frc consts  --      1.4408                 1.4227                 1.4303
 IR Inten    --      0.7971                 0.4154                 0.0051

                     49                     50                     51
                      A                      A                      A
 Frequencies --   1517.1085              1533.1906              1537.5931
 Red. masses --      1.0456                 1.1213                 1.0585
 Frc consts  --      1.4180                 1.5530                 1.4744
 IR Inten    --      0.0017                 5.0048                 3.8333

                     52                     53                     54
                      A                      A                      A
 Frequencies --   1541.5814              1549.2264              2360.4926
 Red. masses --      1.0535                 1.0633                12.6318
 Frc consts  --      1.4751                 1.5035                41.4686
 IR Inten    --      7.5523                10.7484                17.9473

                     55                     56                     57
                      A                      A                      A
 Frequencies --   3034.6754              3038.1285              3042.3703
 Red. masses --      1.0800                 1.0345                 1.0379
 Frc consts  --      5.8601                 5.6260                 5.6604
 IR Inten    --     14.0800                28.0517                38.1190

                     58                     59                     60
                      A                      A                      A
 Frequencies --   3053.4992              3086.7955              3091.1124
 Red. masses --      1.0373                 1.0847                 1.0578
 Frc consts  --      5.6985                 6.0894                 5.9553
 IR Inten    --      6.4391                 3.3705                26.0167

                     61                     62                     63
                      A                      A                      A
 Frequencies --   3095.7555              3104.6882              3108.4351
 Red. masses --      1.0601                 1.1026                 1.1014
 Frc consts  --      5.9860                 6.2619                 6.2703
 IR Inten    --      1.5698                 5.2707                32.5374

                     64                     65                     66
                      A                      A                      A
 Frequencies --   3108.6101              3109.9218              3117.1399
 Red. masses --      1.1027                 1.1018                 1.1008
 Frc consts  --      6.2781                 6.2785                 6.3021
 IR Inten    --      7.2319                28.1357                86.7714

                     67                     68                     69
                      A                      A                      A
 Frequencies --   3121.5516              3147.8749              3151.0136
 Red. masses --      1.1010                 1.1094                 1.1081
 Frc consts  --      6.3208                 6.4770                 6.4826
 IR Inten    --     52.8592                 6.3569                36.0467

 - Thermochemistry -
 -------------------
 Temperature   298.150 Kelvin.  Pressure   1.00000 Atm.
 Atom     1 has atomic number  6 and mass  12.00000

 Molecular mass:   137.12045 amu.
 Principal axes and moments of inertia in atomic units:
                           1         2         3
     Eigenvalues --   646.312682598.944842637.16261
           X            0.99993  -0.00000  -0.01180
           Y            0.00000   1.00000  -0.00001
           Z            0.01180   0.00001   0.99993
 This molecule is an asymmetric top.
 Rotational symmetry number  1.
 Warning -- assumption of classical behavior for rotation
           may cause significant error
 Rotational temperatures (Kelvin)      0.13401     0.03333     0.03284
 Rotational constants (GHZ):           2.79237     0.69441     0.68435
 Zero-point vibrational energy     587545.1 (Joules/Mol)
                                  140.42664 (Kcal/Mol)
 Warning -- explicit consideration of  17 degrees of freedom as
           vibrations may cause significant error
 Vibrational temperatures:     75.82    78.71   239.17   291.88   323.43
          (Kelvin)            334.89   391.35   395.49   436.27   451.64
                              514.67   548.00   654.81   725.76   771.02
                              805.60   827.47  1030.16  1191.94  1194.24
                             1322.47  1363.41  1363.92  1380.69  1398.88
                             1447.03  1464.30  1496.44  1508.85  1569.67
                             1575.55  1618.47  1724.15  1792.52  1806.55
                             1812.06  1817.85  1844.44  1883.46  1891.29
                             1978.35  2021.64  2054.99  2059.69  2103.21
                             2165.36  2181.50  2181.75  2182.78  2205.92
                             2212.25  2217.99  2228.99  3396.22  4366.22
                             4371.19  4377.29  4393.30  4441.21  4447.42
                             4454.10  4466.95  4472.34  4472.60  4474.48
                             4484.87  4491.22  4529.09  4533.61

 Zero-point correction=                           0.223784 (Hartree/Particle)
 Thermal correction to Energy=                    0.234774
 Thermal correction to Enthalpy=                  0.235718
 Thermal correction to Gibbs Free Energy=         0.187494
 Sum of electronic and zero-point Energies=           -406.530892
 Sum of electronic and thermal Energies=              -406.519902
 Sum of electronic and thermal Enthalpies=            -406.518958
 Sum of electronic and thermal Free Energies=         -406.567182

                     E (Thermal)             CV                S
                      KCal/Mol        Cal/Mol-Kelvin    Cal/Mol-Kelvin
 Total                  147.323             41.811            101.497
 Electronic               0.000              0.000              0.000
 Translational            0.889              2.981             40.659
 Rotational               0.889              2.981             29.872
 Vibrational            145.546             35.849             30.966
 Vibration     1          0.596              1.977              4.713
 Vibration     2          0.596              1.976              4.640
 Vibration     3          0.624              1.884              2.478
 Vibration     4          0.639              1.836              2.107
 Vibration     5          0.649              1.803              1.920
 Vibration     6          0.654              1.791              1.858
 Vibration     7          0.675              1.725              1.583
 Vibration     8          0.677              1.720              1.565
 Vibration     9          0.695              1.668              1.399
 Vibration    10          0.702              1.647              1.342
 Vibration    11          0.733              1.559              1.132
 Vibration    12          0.751              1.511              1.036
 Vibration    13          0.813              1.350              0.780
 Vibration    14          0.860              1.240              0.647
 Vibration    15          0.891              1.171              0.574
 Vibration    16          0.916              1.118              0.524
 Vibration    17          0.931              1.085              0.494

 Optimization completed.
    -- Stationary point found.

 1\1\GINC-NODE206\Freq\RB3LYP\6-31G(d)\C9H15N1\VSC10255\08-Dec-2020\0\\
 #N Geom=AllCheck Guess=TCheck SCRF=Check GenChk RB3LYP/6-31G(d) Freq\\
 CID_129087759_JID_464_neutraal\\0,1\C,1.0128770008,0.0787723398,0.0405
 428998\C,0.5591911424,1.5465111852,-0.0477443851\C,1.2298158859,2.2237
 318062,-1.2558467424\C,-0.9672236133,1.5905621239,-0.2302708427\C,1.01
 95515398,2.2717561933,1.2292214442\C,0.6175576652,3.7481825436,1.49608
 44747\C,0.5339492453,3.399503315,3.0137034817\C,0.4301351243,1.8952138
 602,2.6161105995\C,-0.5530442865,3.9787922191,3.7901851303\N,-1.445180

 Normal termination of Gaussian 16 at Tue Dec  8 10:42:14 2020.

 ----------------------------------------------------------------------
 # B3LYP/6-311++G(d,p) empiricaldispersion=gd3bj scf=xqc pop=npa geom=c
 heck
 ----------------------------------------------------------------------

 --------------------------------------
 CID_129087759_JID_464_Energie_neutraal
 --------------------------------------
 Structure from the checkpoint file:  "JID_464.chk"
 Charge =  0 Multiplicity = 1

 SCF Done:  E(RB3LYP) =  -406.866434058     A.U. after   13 cycles
 Normal termination of Gaussian 16 at Tue Dec  8 10:45:24 2020.

 ----------------------------------------------------------------------
 # B3LYP/6-311++G(d,p) empiricaldispersion=gd3bj scf=xqc pop=npa geom=c
 heck
 ----------------------------------------------------------------------

 ------------------------------------
 CID_129087759_JID_464_Energie_kation
 ------------------------------------
 Structure from the checkpoint file:  "JID_464.chk"
 Charge =  1 Multiplicity = 2

 SCF Done:  E(UB3LYP) =  -406.490592279     A.U. after   27 cycles
 Normal termination of Gaussian 16 at Tue Dec  8 10:51:11 2020.
 Gaussian 16:  ES64L-G16RevA.03 25-Dec-2016

 -----------------------------------
 CID_129087759_JID_464_Energie_anion
 -----------------------------------
 Structure from the checkpoint file:  "JID_464.chk"
 Charge = -1 Multiplicity = 2

                         Standard orientation:
 ---------------------------------------------------------------------
 Center     Atomic      Atomic             Coordinates (Angstroms)
 Number     Number       Type             X           Y           Z
 ---------------------------------------------------------------------
      1          6           0       -2.457745   -1.257805   -0.257064
      2          6           0       -1.658469    0.000005    0.126283
      3          6           0       -2.457654    1.257854   -0.257116
      4          6           0       -1.419677    0.000018    1.645551
      5          6           0       -0.344590   -0.000041   -0.675140
      6          6           0        0.738044    1.086602   -0.430680
      7          6           0        1.821242   -0.000024   -0.709359
      8          6           0        0.738061   -1.086663   -0.430647
      9          6           0        3.019425   -0.000004    0.117932
     10          7           0        3.953066    0.000042    0.809245
     11          1           0       -3.419333   -1.285064    0.268443
     12          1           0       -1.909226   -2.170792    0.003072
     13          1           0       -2.662738   -1.283196   -1.334176
     14          1           0       -3.419330    1.285094    0.268230
     15          1           0       -1.909167    2.170817    0.003171
     16          1           0       -2.662464    1.283317   -1.334262
     17          1           0       -0.866013   -0.886241    1.973701
     18          1           0       -0.865485    0.885979    1.973619
     19          1           0       -2.379123    0.000325    2.174963
     20          1           0       -0.603891   -0.000058   -1.742439
     21          1           0        0.746246    1.966451   -1.078662
     22          1           0        0.774965    1.410543    0.612304
     23          1           0        2.110996   -0.000032   -1.765002
     24          1           0        0.774999   -1.410547    0.612349
     25          1           0        0.746284   -1.966541   -1.078590
 ---------------------------------------------------------------------

 SCF Done:  E(UB3LYP) =  -406.855733445     A.U. after   30 cycles

 The electronic state is 2-A.
 Alpha  occ. eigenvalues --  -14.21187 -10.11531 -10.11097 -10.08315 -10.08031
 Alpha  occ. eigenvalues --  -10.08029 -10.07644 -10.05789 -10.05414 -10.05414
 Alpha  occ. eigenvalues --   -0.81059  -0.76948  -0.71006  -0.60230  -0.58875
 Alpha  occ. eigenvalues --   -0.58684  -0.56894  -0.49704  -0.44327  -0.40650
 Alpha  occ. eigenvalues --   -0.39781  -0.35187  -0.34381  -0.33403  -0.31026
 Alpha  occ. eigenvalues --   -0.29768  -0.29550  -0.28242  -0.27747  -0.27283
 Alpha  occ. eigenvalues --   -0.26427  -0.24706  -0.24657  -0.23507  -0.21819
 Alpha  occ. eigenvalues --   -0.21715  -0.20772  -0.20028   0.04369
 Alpha virt. eigenvalues --    0.06918   0.07731   0.08295   0.09306   0.10023
 Alpha virt. eigenvalues --    0.10073   0.10800   0.10914   0.11914   0.12248
 Alpha virt. eigenvalues --    0.12503   0.13545   0.13778   0.14123   0.14217

  Beta  occ. eigenvalues --  -14.21176 -10.11508 -10.11095 -10.08313 -10.08006
  Beta  occ. eigenvalues --  -10.08005 -10.07622 -10.05758 -10.05380 -10.05380
  Beta  occ. eigenvalues --   -0.81036  -0.76914  -0.70978  -0.60172  -0.58813
  Beta  occ. eigenvalues --   -0.58625  -0.56824  -0.49636  -0.44264  -0.40589
  Beta  occ. eigenvalues --   -0.39688  -0.35137  -0.34336  -0.33371  -0.30995
  Beta  occ. eigenvalues --   -0.29723  -0.29518  -0.28209  -0.27712  -0.27251
  Beta  occ. eigenvalues --   -0.26391  -0.24665  -0.24613  -0.23463  -0.21795
  Beta  occ. eigenvalues --   -0.21668  -0.20730  -0.19985
  Beta virt. eigenvalues --    0.06848   0.08089   0.08438   0.08830   0.10051
  Beta virt. eigenvalues --    0.10512   0.10628   0.11144   0.11325   0.12110
  Beta virt. eigenvalues --    0.12460   0.13015   0.14119   0.14183   0.14491

 Mulliken charges and spin densities:
               1          2
     1  C    0.501454  -1.089638
     2  C   -3.110051   3.771178
     3  C    0.501827  -1.090007
     4  C    0.713648  -1.309942
     5  C    0.694949  -0.489690
     6  C    0.779406  -1.783186
     7  C    0.237214   1.020676
     8  C    0.779515  -1.783358
     9  C    1.220135  -1.709824
    10  N   -0.353843   0.027016
    11  H   -0.321806   0.473773
    12  H   -0.029320   0.170894
    13  H   -0.322776   0.469467
    14  H   -0.321800   0.473763
    15  H   -0.029308   0.170878
    16  H   -0.322815   0.469514
    17  H   -0.062609   0.183978
    18  H   -0.062557   0.183916
    19  H   -0.122294   0.291928
    20  H   -0.179837   0.411572
    21  H   -0.135339   0.303638
    22  H   -0.039030   0.213954
    23  H   -0.840339   1.101840
    24  H   -0.039000   0.213934
    25  H   -0.135425   0.303724
 Sum of Mulliken charges =  -1.00000   1.00000

 Dipole moment (field-independent basis, Debye):
    X=              0.2622    Y=              0.0001    Z=              2.6295  Tot=              2.6425
 Quadrupole moment (field-independent basis, Debye-Ang):
   XX=           -134.4591   YY=            -95.8519   ZZ=           -106.8822
   XY=              0.0001   XZ=             -2.2622   YZ=             -0.0001

 Summary of Natural Population Analysis:

                                       Natural Population
                Natural  -----------------------------------------------
    Atom  No    Charge         Core      Valence    Rydberg      Total
 -----------------------------------------------------------------------
      C    1   -0.28289      0.99963     2.27574    0.00753     3.28289
      C    2   -0.05043      0.99956     2.03798    0.01289     3.05043
      C    3   -0.28289      0.99963     2.27574    0.00753     3.28289
      C    4   -0.28597      0.99962     2.27906    0.00728     3.28597
      C    5   -0.10503      0.99956     2.09063    0.01484     3.10503
      C    6   -0.17028      0.99961     2.16143    0.00924     3.17028
      C    7   -0.17161      0.99952     2.16013    0.01197     3.17161
      C    8   -0.17028      0.99961     2.16143    0.00924     3.17028
      C    9    0.16931      0.99965     1.81476    0.01628     2.83069
      N   10   -0.19441      0.99979     2.68360    0.01102     3.69441
      H   11    0.09988      0.00000     0.39902    0.00110     0.40012
      H   12    0.09929      0.00000     0.39955    0.00116     0.40071
      H   13    0.10284      0.00000     0.39577    0.00140     0.39716
      H   14    0.09988      0.00000     0.39902    0.00110     0.40012
      H   15    0.09929      0.00000     0.39955    0.00116     0.40071
      H   16    0.10284      0.00000     0.39577    0.00140     0.39716
      H   17    0.09871      0.00000     0.40030    0.00099     0.40129
      H   18    0.09871      0.00000     0.40030    0.00099     0.40129
      H   19    0.10239      0.00000     0.39667    0.00094     0.39761
      H   20    0.10684      0.00000     0.38877    0.00439     0.39316
      H   21    0.10494      0.00000     0.39371    0.00135     0.39506
      H   22    0.10015      0.00000     0.39800    0.00185     0.39985
      H   23    0.12365      0.00000     0.37291    0.00343     0.37635
      H   24    0.10015      0.00000     0.39800    0.00185     0.39985
      H   25    0.10494      0.00000     0.39371    0.00135     0.39506
 =======================================================================
   * Total *   -0.00000      9.99616    27.87156    0.13228    38.00000

 Normal termination of Gaussian 16 at Tue Dec  8 10:57:01 2020.
