 Gaussian 16, Revision A.03,

 -----------------------------------------------------------
 # opt freq B3LYP/6-31G(d) empiricaldispersion=gd3bj scf=xqc
 -----------------------------------------------------------

 -------------------------------
 CID_116183679_JID_7715_neutraal
 -------------------------------
 Symbolic Z-matrix:
 Charge =  0 Multiplicity = 1

 SCF Done:  E(RB3LYP) =  -1128.67092268     A.U. after   15 cycles
 SCF Done:  E(RB3LYP) =  -1128.67564431     A.U. after   12 cycles
 SCF Done:  E(RB3LYP) =  -1128.67615406     A.U. after   11 cycles
 SCF Done:  E(RB3LYP) =  -1128.67677100     A.U. after   12 cycles
 SCF Done:  E(RB3LYP) =  -1128.67742430     A.U. after   11 cycles
 SCF Done:  E(RB3LYP) =  -1128.67761078     A.U. after   11 cycles
 SCF Done:  E(RB3LYP) =  -1128.67770330     A.U. after   10 cycles
 SCF Done:  E(RB3LYP) =  -1128.67781080     A.U. after   11 cycles
 SCF Done:  E(RB3LYP) =  -1128.67785512     A.U. after   11 cycles
 SCF Done:  E(RB3LYP) =  -1128.67789140     A.U. after   10 cycles
 SCF Done:  E(RB3LYP) =  -1128.67790607     A.U. after   10 cycles
 SCF Done:  E(RB3LYP) =  -1128.67790773     A.U. after    8 cycles
 SCF Done:  E(RB3LYP) =  -1128.67790816     A.U. after    7 cycles
 SCF Done:  E(RB3LYP) =  -1128.67790834     A.U. after    8 cycles
 Optimization completed.
    -- Stationary point found.
 Normal termination of Gaussian 16 at Fri Dec 11 13:09:37 2020.

 --------------------------------------------------------------------
 #N Geom=AllCheck Guess=TCheck SCRF=Check GenChk RB3LYP/6-31G(d) Freq
 --------------------------------------------------------------------

 Structure from the checkpoint file:  "JID_7715.chk"
 -------------------------------
 CID_116183679_JID_7715_neutraal
 -------------------------------
 Charge =  0 Multiplicity = 1

 SCF Done:  E(RB3LYP) =  -1128.67790834     A.U. after    1 cycles

  Exact polarizability: 183.651  -7.709 154.994  -2.018  -3.588 135.956
 Approx polarizability: 239.765  -9.002 222.237   2.187 -14.330 225.072

                      1                      2                      3
                      A                      A                      A
 Frequencies --     32.9318                36.8072                43.3122
 Red. masses --      3.6297                 4.6797                 3.9735
 Frc consts  --      0.0023                 0.0037                 0.0044
 IR Inten    --      1.7350                 1.6562                 0.2868

                      4                      5                      6
                      A                      A                      A
 Frequencies --     56.7173                62.4110                80.9288
 Red. masses --      3.5305                 3.0749                 3.3539
 Frc consts  --      0.0067                 0.0071                 0.0129
 IR Inten    --      1.3231                 2.4098                 1.5830

                      7                      8                      9
                      A                      A                      A
 Frequencies --    113.8248               151.6952               168.9868
 Red. masses --      4.2319                 3.0047                 3.6683
 Frc consts  --      0.0323                 0.0407                 0.0617
 IR Inten    --      3.1903                 0.9005                 4.4897

                     10                     11                     12
                      A                      A                      A
 Frequencies --    190.4074               194.2377               224.2825
 Red. masses --      2.0690                 1.3292                 2.8278
 Frc consts  --      0.0442                 0.0295                 0.0838
 IR Inten    --      0.4134                 1.5108                 3.6167

                     13                     14                     15
                      A                      A                      A
 Frequencies --    240.3056               246.6055               250.6613
 Red. masses --      1.7956                 2.8644                 3.6599
 Frc consts  --      0.0611                 0.1026                 0.1355
 IR Inten    --      3.0048                 1.2524                 0.8405

                     16                     17                     18
                      A                      A                      A
 Frequencies --    271.7216               276.7125               309.4611
 Red. masses --      1.5040                 2.4119                 2.9108
 Frc consts  --      0.0654                 0.1088                 0.1642
 IR Inten    --      0.4614                 0.2536                 2.8737

                     19                     20                     21
                      A                      A                      A
 Frequencies --    315.9340               332.6769               341.7260
 Red. masses --      1.3156                 3.4614                 2.9503
 Frc consts  --      0.0774                 0.2257                 0.2030
 IR Inten    --      0.6661                 7.7416                 8.1812

                     22                     23                     24
                      A                      A                      A
 Frequencies --    377.4312               414.1689               451.8628
 Red. masses --      2.7428                 2.7548                 2.3817
 Frc consts  --      0.2302                 0.2784                 0.2865
 IR Inten    --      5.8087                 3.4722                 9.1212

                     25                     26                     27
                      A                      A                      A
 Frequencies --    469.3580               508.4645               559.9343
 Red. masses --      4.2157                 4.0283                 3.1008
 Frc consts  --      0.5472                 0.6136                 0.5728
 IR Inten    --     12.0082                 9.0278                 0.8018

                     28                     29                     30
                      A                      A                      A
 Frequencies --    581.2329               639.3825               657.9136
 Red. masses --      3.7214                 4.1159                 4.4797
 Frc consts  --      0.7407                 0.9914                 1.1424
 IR Inten    --      3.1176                 1.1193                14.3303

                     31                     32                     33
                      A                      A                      A
 Frequencies --    725.3229               726.1479               751.8108
 Red. masses --      4.0217                 2.8372                 4.9051
 Frc consts  --      1.2466                 0.8814                 1.6335
 IR Inten    --     20.4549                 6.0534                11.9240

                     34                     35                     36
                      A                      A                      A
 Frequencies --    782.8215               796.6509               824.1572
 Red. masses --      1.5295                 1.0843                 2.4335
 Frc consts  --      0.5522                 0.4054                 0.9739
 IR Inten    --     29.8882                 3.3467                15.4242

                     37                     38                     39
                      A                      A                      A
 Frequencies --    840.5837               864.6529               871.8012
 Red. masses --      2.0665                 1.9655                 2.9087
 Frc consts  --      0.8603                 0.8658                 1.3025
 IR Inten    --     40.5238                 6.5296                 4.8223

                     40                     41                     42
                      A                      A                      A
 Frequencies --    907.7697               922.3255               944.5558
 Red. masses --      1.9668                 1.7427                 2.2510
 Frc consts  --      0.9549                 0.8735                 1.1833
 IR Inten    --      1.0720                 3.5419                11.2111

                     43                     44                     45
                      A                      A                      A
 Frequencies --    954.4898               961.0148               967.1135
 Red. masses --      1.2915                 1.4813                 1.2496
 Frc consts  --      0.6933                 0.8060                 0.6886
 IR Inten    --      1.0338                 6.3448                18.0395

                     46                     47                     48
                      A                      A                      A
 Frequencies --   1010.1707              1018.1759              1043.9454
 Red. masses --      2.2215                 2.1735                 2.1206
 Frc consts  --      1.3357                 1.3276                 1.3617
 IR Inten    --      0.6744                36.0013                 1.8251

                     49                     50                     51
                      A                      A                      A
 Frequencies --   1064.8188              1069.5757              1072.0223
 Red. masses --      1.4130                 1.8928                 1.8976
 Frc consts  --      0.9439                 1.2758                 1.2848
 IR Inten    --      7.6511                 4.0515                58.5682

                     52                     53                     54
                      A                      A                      A
 Frequencies --   1080.9227              1092.8084              1099.3250
 Red. masses --      4.5628                 1.3908                 1.9990
 Frc consts  --      3.1410                 0.9786                 1.4234
 IR Inten    --     68.3689                 2.5008                33.6093

                     55                     56                     57
                      A                      A                      A
 Frequencies --   1130.6450              1132.3540              1144.4124
 Red. masses --      2.5934                 2.3998                 1.8584
 Frc consts  --      1.9533                 1.8130                 1.4341
 IR Inten    --     11.0075                 1.9844                24.2779

                     58                     59                     60
                      A                      A                      A
 Frequencies --   1178.8441              1210.0415              1213.6041
 Red. masses --      2.5968                 2.2258                 1.2889
 Frc consts  --      2.1262                 1.9202                 1.1185
 IR Inten    --      2.3638                24.7426                 0.0760

                     61                     62                     63
                      A                      A                      A
 Frequencies --   1271.3833              1289.7575              1297.0677
 Red. masses --      1.7891                 1.4302                 1.5673
 Frc consts  --      1.7039                 1.4017                 1.5535
 IR Inten    --     14.8837                12.2636                20.3199

                     64                     65                     66
                      A                      A                      A
 Frequencies --   1315.7389              1341.6158              1349.4310
 Red. masses --      1.2930                 1.9475                 1.4105
 Frc consts  --      1.3189                 2.0653                 1.5133
 IR Inten    --     16.9681                98.2375                36.8007

                     67                     68                     69
                      A                      A                      A
 Frequencies --   1362.1571              1366.8280              1379.1107
 Red. masses --      1.2103                 2.6152                 1.3170
 Frc consts  --      1.3231                 2.8786                 1.4758
 IR Inten    --      4.1259                17.9311                 8.7003

                     70                     71                     72
                      A                      A                      A
 Frequencies --   1389.2252              1408.7042              1417.1812
 Red. masses --      1.3839                 1.3253                 1.3551
 Frc consts  --      1.5737                 1.5496                 1.6035
 IR Inten    --     17.5998                 2.6646                10.3674

                     73                     74                     75
                      A                      A                      A
 Frequencies --   1425.9714              1439.0264              1444.0609
 Red. masses --      1.3937                 1.2300                 1.2676
 Frc consts  --      1.6697                 1.5007                 1.5574
 IR Inten    --     14.2821                15.4903                 5.4741

                     76                     77                     78
                      A                      A                      A
 Frequencies --   1456.7320              1469.0251              1479.7348
 Red. masses --      2.0996                 1.1183                 1.0575
 Frc consts  --      2.6251                 1.4219                 1.3643
 IR Inten    --    120.3130                13.3943                13.0667

                     79                     80                     81
                      A                      A                      A
 Frequencies --   1491.4566              1495.8336              1507.2123
 Red. masses --      1.2400                 1.0570                 1.0827
 Frc consts  --      1.6252                 1.3934                 1.4491
 IR Inten    --     48.1247                14.4180                11.5761

                     82                     83                     84
                      A                      A                      A
 Frequencies --   1513.8543              1516.3860              1518.1467
 Red. masses --      1.1844                 1.3204                 1.0870
 Frc consts  --      1.5993                 1.7889                 1.4760
 IR Inten    --      7.0429                 0.6943                 6.2686

                     85                     86                     87
                      A                      A                      A
 Frequencies --   1530.1259              1535.4036              1537.2715
 Red. masses --      1.0497                 1.0490                 1.0460
 Frc consts  --      1.4481                 1.4571                 1.4564
 IR Inten    --      6.9725                 7.7383                14.8521

                     88                     89                     90
                      A                      A                      A
 Frequencies --   1550.3588              1803.4222              2993.2812
 Red. masses --      1.0520                11.2984                 1.0835
 Frc consts  --      1.4898                21.6502                 5.7199
 IR Inten    --      7.5603               212.7170                47.6314

                     91                     92                     93
                      A                      A                      A
 Frequencies --   3041.6907              3043.5726              3052.3015
 Red. masses --      1.0517                 1.0506                 1.0633
 Frc consts  --      5.7329                 5.7337                 5.8366
 IR Inten    --     27.2442                13.1360                21.8287

                     94                     95                     96
                      A                      A                      A
 Frequencies --   3055.7015              3061.2434              3062.1199
 Red. masses --      1.0834                 1.0374                 1.0627
 Frc consts  --      5.9603                 5.7279                 5.8706
 IR Inten    --      6.9374                 5.8829                43.4920

                     97                     98                     99
                      A                      A                      A
 Frequencies --   3075.7473              3076.1048              3089.3700
 Red. masses --      1.0304                 1.1015                 1.0978
 Frc consts  --      5.7434                 6.1410                 6.1734
 IR Inten    --      3.5444                19.1896                27.4970

                    100                    101                    102
                      A                      A                      A
 Frequencies --   3110.0221              3122.6805              3125.5253
 Red. masses --      1.0992                 1.1023                 1.1012
 Frc consts  --      6.2641                 6.3330                 6.3383
 IR Inten    --     42.4280                55.4095                 7.7227

                    103                    104                    105
                      A                      A                      A
 Frequencies --   3130.2709              3149.2979              3150.8433
 Red. masses --      1.0987                 1.1037                 1.0533
 Frc consts  --      6.3428                 6.4495                 6.1610
 IR Inten    --      9.7943                 7.5939                10.4521

                    106                    107                    108
                      A                      A                      A
 Frequencies --   3159.5434              3171.5792              3180.8934
 Red. masses --      1.0534                 1.1052                 1.1065
 Frc consts  --      6.1955                 6.5500                 6.5963
 IR Inten    --      6.3778                 4.2982                 2.7120

                    109                    110                    111
                      A                      A                      A
 Frequencies --   3236.6065              3255.2702              3533.4878
 Red. masses --      1.1202                 1.1187                 1.0735
 Frc consts  --      6.9140                 6.9845                 7.8970
 IR Inten    --      0.8752                 4.2535                 5.3150

 - Thermochemistry -
 -------------------
 Temperature   298.150 Kelvin.  Pressure   1.00000 Atm.
 Atom     1 has atomic number  6 and mass  12.00000

 Molecular mass:   258.14020 amu.
 Principal axes and moments of inertia in atomic units:
                           1         2         3
     Eigenvalues --  2832.892626918.089098322.59040
           X            0.99967   0.02454  -0.00736
           Y           -0.02438   0.99949   0.02050
           Z            0.00786  -0.02031   0.99976
 This molecule is an asymmetric top.
 Rotational symmetry number  1.
 Warning -- assumption of classical behavior for rotation
           may cause significant error
 Rotational temperatures (Kelvin)      0.03057     0.01252     0.01041
 Rotational constants (GHZ):           0.63707     0.26087     0.21685
 Zero-point vibrational energy     889928.1 (Joules/Mol)
                                  212.69792 (Kcal/Mol)
 Warning -- explicit consideration of  28 degrees of freedom as
           vibrations may cause significant error
 Vibrational temperatures:     47.38    52.96    62.32    81.60    89.80
          (Kelvin)            116.44   163.77   218.26   243.13   273.95
                              279.46   322.69   345.75   354.81   360.65
                              390.95   398.13   445.25   454.56   478.65
                              491.67   543.04   595.90   650.13   675.30
                              731.57   805.62   836.26   919.93   946.59
                             1043.58  1044.76  1081.69  1126.31  1146.20
                             1185.78  1209.41  1244.04  1254.33  1306.08
                             1327.02  1359.01  1373.30  1382.69  1391.46
                             1453.41  1464.93  1502.00  1532.04  1538.88
                             1542.40  1555.21  1572.31  1581.68  1626.75
                             1629.20  1646.55  1696.09  1740.98  1746.11
                             1829.24  1855.67  1866.19  1893.05  1930.29
                             1941.53  1959.84  1966.56  1984.23  1998.79
                             2026.81  2039.01  2051.65  2070.44  2077.68
                             2095.91  2113.60  2129.01  2145.87  2152.17
                             2168.54  2178.10  2181.74  2184.27  2201.51
                             2209.10  2211.79  2230.62  2594.72  4306.66
                             4376.31  4379.02  4391.58  4396.47  4404.45
                             4405.71  4425.31  4425.83  4444.91  4474.63
                             4492.84  4496.93  4503.76  4531.14  4533.36
                             4545.88  4563.20  4576.60  4656.75  4683.61
                             5083.90

 Zero-point correction=                           0.338956 (Hartree/Particle)
 Thermal correction to Energy=                    0.357898
 Thermal correction to Enthalpy=                  0.358842
 Thermal correction to Gibbs Free Energy=         0.290844
 Sum of electronic and zero-point Energies=          -1128.338953
 Sum of electronic and thermal Energies=             -1128.320010
 Sum of electronic and thermal Enthalpies=           -1128.319066
 Sum of electronic and thermal Free Energies=        -1128.387065

                     E (Thermal)             CV                S
                      KCal/Mol        Cal/Mol-Kelvin    Cal/Mol-Kelvin
 Total                  224.584             70.787            143.115
 Electronic               0.000              0.000              0.000
 Translational            0.889              2.981             42.545
 Rotational               0.889              2.981             33.455
 Vibrational            222.807             64.825             67.115
 Vibration     1          0.594              1.983              5.644
 Vibration     2          0.594              1.982              5.424
 Vibration     3          0.595              1.980              5.102
 Vibration     4          0.596              1.975              4.568
 Vibration     5          0.597              1.972              4.379
 Vibration     6          0.600              1.962              3.868
 Vibration     7          0.607              1.938              3.203
 Vibration     8          0.619              1.901              2.651
 Vibration     9          0.625              1.881              2.447
 Vibration    10          0.634              1.853              2.224
 Vibration    11          0.635              1.848              2.187
 Vibration    12          0.649              1.804              1.924
 Vibration    13          0.657              1.779              1.801
 Vibration    14          0.661              1.768              1.755
 Vibration    15          0.663              1.762              1.726
 Vibration    16          0.675              1.725              1.585
 Vibration    17          0.678              1.716              1.554
 Vibration    18          0.699              1.656              1.365
 Vibration    19          0.703              1.643              1.331
 Vibration    20          0.715              1.610              1.247
 Vibration    21          0.721              1.592              1.204
 Vibration    22          0.748              1.518              1.049
 Vibration    23          0.778              1.439              0.912
 Vibration    24          0.811              1.357              0.790
 Vibration    25          0.826              1.318              0.739
 Vibration    26          0.864              1.231              0.637
 Vibration    27          0.916              1.118              0.524
 Vibration    28          0.938              1.072              0.483

 Optimization completed.
    -- Stationary point found.
 Normal termination of Gaussian 16 at Fri Dec 11 13:27:46 2020.

 ----------------------------------------------------------------------
 # B3LYP/6-311++G(d,p) empiricaldispersion=gd3bj scf=xqc pop=npa geom=c
 heck
 ----------------------------------------------------------------------

 ---------------------------------------
 CID_116183679_JID_7715_Energie_neutraal
 ---------------------------------------
 Structure from the checkpoint file:  "JID_7715.chk"
 Charge =  0 Multiplicity = 1

 SCF Done:  E(RB3LYP) =  -1128.91674465     A.U. after   16 cycles
 Normal termination of Gaussian 16 at Fri Dec 11 13:35:51 2020.

 ----------------------------------------------------------------------
 # B3LYP/6-311++G(d,p) empiricaldispersion=gd3bj scf=xqc pop=npa geom=c
 heck
 ----------------------------------------------------------------------

 -------------------------------------
 CID_116183679_JID_7715_Energie_kation
 -------------------------------------
 Structure from the checkpoint file:  "JID_7715.chk"
 Charge =  1 Multiplicity = 2

 SCF Done:  E(UB3LYP) =  -1128.61970506     A.U. after   29 cycles
 Normal termination of Gaussian 16 at Fri Dec 11 13:54:58 2020.
 Gaussian 16:  ES64L-G16RevA.03 25-Dec-2016

 ----------------------------------------------------------------------
 # B3LYP/6-311++G(d,p) empiricaldispersion=gd3bj scf=xqc pop=npa geom=c
 heck
 ----------------------------------------------------------------------

 ------------------------------------
 CID_116183679_JID_7715_Energie_anion
 ------------------------------------
 Structure from the checkpoint file:  "JID_7715.chk"
 Charge = -1 Multiplicity = 2

                         Standard orientation:
 ---------------------------------------------------------------------
 Center     Atomic      Atomic             Coordinates (Angstroms)
 Number     Number       Type             X           Y           Z
 ---------------------------------------------------------------------
      1          6           0        3.111297    2.532109    0.922470
      2          6           0        1.739316    2.886683    0.337974
      3          6           0        1.351070    2.192603   -0.978945
      4          6           0        1.229811    0.665683   -0.957155
      5          7           0        2.525637   -0.027830   -0.992872
      6          6           0        2.350120   -1.222143   -0.186393
      7          6           0        2.565584   -2.607251   -0.767985
      8          6           0        3.507443   -2.057545    0.268763
      9          6           0        1.142481   -1.025992    0.678735
     10          8           0        0.718564   -1.768291    1.553864
     11          7           0        0.563119    0.147917    0.252763
     12          6           0       -0.808559    0.457583    0.606484
     13          6           0       -1.808004    0.023136   -0.473429
     14          6           0       -1.765564   -1.457728   -0.828366
     15         16           0       -3.533480    0.578276   -0.018182
     16          8           0       -4.442911    0.039163   -1.103669
     17          6           0       -3.788298   -0.479119    1.457784
     18          1           0        3.136699    1.508226    1.309482
     19          1           0        3.354048    3.195892    1.759334
     20          1           0        3.909031    2.643379    0.176683
     21          1           0        0.973162    2.684032    1.094957
     22          1           0        1.703784    3.967494    0.152141
     23          1           0        0.388526    2.603017   -1.309654
     24          1           0        2.071173    2.443871   -1.769089
     25          1           0        0.652860    0.351686   -1.840753
     26          1           0        3.222602    0.563221   -0.548835
     27          1           0        1.871086   -3.384576   -0.464497
     28          1           0        2.903650   -2.637504   -1.798690
     29          1           0        4.496727   -1.746612   -0.055501
     30          1           0        3.446819   -2.455670    1.277369
     31          1           0       -0.992816   -0.084140    1.537867
     32          1           0       -0.908679    1.530976    0.804813
     33          1           0       -1.648896    0.617299   -1.382247
     34          1           0       -1.705037   -2.084074    0.065770
     35          1           0       -2.658231   -1.719101   -1.405587
     36          1           0       -0.884306   -1.676504   -1.440731
     37          1           0       -3.657393   -1.530566    1.193946
     38          1           0       -3.105580   -0.189665    2.260937
     39          1           0       -4.820255   -0.308802    1.772777
 ---------------------------------------------------------------------

 SCF Done:  E(UB3LYP) =  -1128.90648993     A.U. after   33 cycles
 SCF Done:  E(UB3LYP) =  -1128.90648993     a.u. after    1 cycles

 The electronic state is 2-A.
 Alpha  occ. eigenvalues --  -88.86335 -19.01091 -18.99899 -14.26055 -14.22910
 Alpha  occ. eigenvalues --  -10.18837 -10.15719 -10.13774 -10.13435 -10.12803
 Alpha  occ. eigenvalues --  -10.11544 -10.10332 -10.09958 -10.08601 -10.08446
 Alpha  occ. eigenvalues --  -10.07656 -10.06869  -7.94058  -5.90323  -5.90203
 Alpha  occ. eigenvalues --   -5.89638  -0.96407  -0.92859  -0.89544  -0.82669
 Alpha  occ. eigenvalues --   -0.76775  -0.73219  -0.70322  -0.67338  -0.64046
 Alpha  occ. eigenvalues --   -0.63426  -0.58343  -0.56742  -0.53657  -0.52508
 Alpha  occ. eigenvalues --   -0.50100  -0.48751  -0.46842  -0.44615  -0.42244
 Alpha  occ. eigenvalues --   -0.41138  -0.39848  -0.38723  -0.37981  -0.36990
 Alpha  occ. eigenvalues --   -0.36299  -0.35812  -0.34764  -0.34007  -0.33423
 Alpha  occ. eigenvalues --   -0.32910  -0.32599  -0.32224  -0.30973  -0.30084
 Alpha  occ. eigenvalues --   -0.29795  -0.29339  -0.28748  -0.27678  -0.27046
 Alpha  occ. eigenvalues --   -0.25625  -0.24770  -0.24453  -0.23933  -0.23283
 Alpha  occ. eigenvalues --   -0.20080  -0.18754  -0.16817  -0.15324  -0.14971
 Alpha  occ. eigenvalues --    0.03993
 Alpha virt. eigenvalues --    0.05608   0.06370   0.06545   0.07775   0.07930
 Alpha virt. eigenvalues --    0.08456   0.08770   0.09155   0.09203   0.09931
 Alpha virt. eigenvalues --    0.09964   0.10524   0.10880   0.11061   0.11591

  Beta  occ. eigenvalues --  -88.86330 -19.01087 -18.99893 -14.26054 -14.22899
  Beta  occ. eigenvalues --  -10.18835 -10.15710 -10.13774 -10.13418 -10.12797
  Beta  occ. eigenvalues --  -10.11512 -10.10323 -10.09948 -10.08590 -10.08419
  Beta  occ. eigenvalues --  -10.07624 -10.06829  -7.94054  -5.90320  -5.90199
  Beta  occ. eigenvalues --   -5.89628  -0.96401  -0.92846  -0.89534  -0.82659
  Beta  occ. eigenvalues --   -0.76762  -0.73197  -0.70270  -0.67303  -0.64002
  Beta  occ. eigenvalues --   -0.63397  -0.58310  -0.56683  -0.53628  -0.52479
  Beta  occ. eigenvalues --   -0.50021  -0.48722  -0.46813  -0.44589  -0.42217
  Beta  occ. eigenvalues --   -0.41111  -0.39818  -0.38699  -0.37952  -0.36952
  Beta  occ. eigenvalues --   -0.36277  -0.35771  -0.34731  -0.33981  -0.33389
  Beta  occ. eigenvalues --   -0.32883  -0.32573  -0.32198  -0.30944  -0.30043
  Beta  occ. eigenvalues --   -0.29775  -0.29321  -0.28729  -0.27655  -0.27022
  Beta  occ. eigenvalues --   -0.25566  -0.24716  -0.24406  -0.23914  -0.23260
  Beta  occ. eigenvalues --   -0.20073  -0.18739  -0.16799  -0.15307  -0.14946
  Beta virt. eigenvalues --    0.05960   0.06341   0.06951   0.07018   0.08221
  Beta virt. eigenvalues --    0.08335   0.08530   0.09146   0.09310   0.09530
  Beta virt. eigenvalues --    0.10139   0.10328   0.10751   0.10933   0.11303

 Mulliken charges and spin densities:
               1          2
     1  C    1.543373  -2.210497
     2  C   -0.665825   0.615065
     3  C    0.454488  -0.802883
     4  C   -0.372550  -0.392394
     5  N    0.044906   0.051304
     6  C   -0.726234   0.977791
     7  C    0.137885  -0.309449
     8  C    0.059820  -0.285036
     9  C   -0.089415  -0.457515
    10  O   -0.290752  -0.001574
    11  N    0.370182   0.096227
    12  C   -0.250771  -0.560915
    13  C   -0.521721   0.337385
    14  C    0.024037  -0.425382
    15  S    0.929421  -0.251271
    16  O   -0.461193   0.017306
    17  C   -0.161882  -0.575172
    18  H   -0.017902   0.170328
    19  H   -0.482981   0.647574
    20  H   -0.191651   0.340181
    21  H   -0.281663   0.386246
    22  H   -0.674233   0.872961
    23  H   -0.117792   0.290297
    24  H   -0.521063   0.729048
    25  H   -0.011399   0.228223
    26  H    0.348693  -0.079230
    27  H    0.141169   0.038581
    28  H    0.009933   0.153536
    29  H   -0.033615   0.194687
    30  H    0.090544   0.101498
    31  H    0.448250  -0.196286
    32  H    0.061639   0.095590
    33  H    0.245185   0.069825
    34  H    0.177492   0.007207
    35  H    0.122693   0.083545
    36  H    0.050325   0.097177
    37  H    0.079722   0.136803
    38  H   -0.417991   0.548730
    39  H   -0.049124   0.260490
 Sum of Mulliken charges =  -1.00000   1.00000

 Dipole moment (field-independent basis, Debye):
    X=             -0.6408    Y=             -6.5744    Z=             -0.2682  Tot=              6.6110
 Quadrupole moment (field-independent basis, Debye-Ang):
   XX=           -196.7588   YY=           -178.7585   ZZ=           -157.7179
   XY=            -16.7613   XZ=             -5.3467   YZ=              1.1598

 Summary of Natural Population Analysis:

                                       Natural Population
                Natural  -----------------------------------------------
    Atom  No    Charge         Core      Valence    Rydberg      Total
 -----------------------------------------------------------------------
      C    1   -0.29147      0.99966     2.28567    0.00614     3.29147
      C    2   -0.19172      0.99963     2.18310    0.00899     3.19172
      C    3   -0.20037      0.99960     2.19107    0.00970     3.20037
      C    4    0.09879      0.99961     1.88750    0.01410     2.90121
      N    5   -0.33283      0.99972     2.82212    0.01099     3.83283
      C    6    0.00722      0.99949     1.97798    0.01531     2.99278
      C    7   -0.18587      0.99960     2.17834    0.00793     3.18587
      C    8   -0.19074      0.99959     2.18307    0.00807     3.19074
      C    9    0.34899      0.99955     1.62853    0.02293     2.65101
      O   10   -0.32519      0.99988     3.31991    0.00540     4.32519
      N   11   -0.26116      0.99962     2.75010    0.01144     3.76116
      C   12   -0.09912      0.99957     2.08574    0.01382     3.09912
      C   13   -0.19182      0.99957     2.17773    0.01452     3.19182
      C   14   -0.30379      0.99963     2.29828    0.00589     3.30379
      S   15    0.58832      4.99944     2.35756    0.05468     7.41168
      O   16   -0.48297      0.99993     3.47724    0.00580     4.48297
      C   17   -0.38517      0.99962     2.37721    0.00834     3.38517
      H   18    0.09294      0.00000     0.40540    0.00166     0.40706
      H   19    0.10582      0.00000     0.39283    0.00135     0.39418
      H   20    0.09644      0.00000     0.40219    0.00137     0.40356
      H   21    0.09546      0.00000     0.40269    0.00185     0.40454
      H   22    0.10340      0.00000     0.39380    0.00281     0.39660
      H   23    0.10530      0.00000     0.39297    0.00174     0.39470
      H   24    0.10700      0.00000     0.39153    0.00147     0.39300
      H   25    0.08656      0.00000     0.41122    0.00222     0.41344
      H   26    0.18276      0.00000     0.31336    0.00387     0.31724
      H   27    0.10747      0.00000     0.39145    0.00109     0.39253
      H   28    0.10740      0.00000     0.39126    0.00134     0.39260
      H   29    0.10703      0.00000     0.39199    0.00098     0.39297
      H   30    0.11208      0.00000     0.38683    0.00109     0.38792
      H   31    0.11354      0.00000     0.38459    0.00187     0.38646
      H   32    0.10439      0.00000     0.39301    0.00260     0.39561
      H   33    0.10833      0.00000     0.38990    0.00177     0.39167
      H   34    0.10588      0.00000     0.39309    0.00102     0.39412
      H   35    0.11616      0.00000     0.38285    0.00098     0.38384
      H   36    0.10636      0.00000     0.39263    0.00101     0.39364
      H   37    0.11112      0.00000     0.38784    0.00104     0.38888
      H   38    0.11051      0.00000     0.38743    0.00205     0.38949
      H   39    0.11292      0.00000     0.38561    0.00146     0.38708
 =======================================================================
   * Total *    0.00000     20.99369    48.74562    0.26069    70.00000

 Normal termination of Gaussian 16 at Fri Dec 11 14:17:02 2020.
