 Gaussian 16, Revision A.03,

 -----------------------------------------------------------
 # opt freq B3LYP/6-31G(d) empiricaldispersion=gd3bj scf=xqc
 -----------------------------------------------------------

 -----------------------------
 CID_54122550_JID_712_neutraal
 -----------------------------
 Symbolic Z-matrix:
 Charge =  0 Multiplicity = 1

 SCF Done:  E(RB3LYP) =  -497.204987684     A.U. after   15 cycles
 SCF Done:  E(RB3LYP) =  -497.208102350     A.U. after   13 cycles
 SCF Done:  E(RB3LYP) =  -497.208314646     A.U. after   13 cycles
 SCF Done:  E(RB3LYP) =  -497.208734803     A.U. after   12 cycles
 SCF Done:  E(RB3LYP) =  -497.209104069     A.U. after   13 cycles
 SCF Done:  E(RB3LYP) =  -497.209243684     A.U. after   12 cycles
 SCF Done:  E(RB3LYP) =  -497.209248405     A.U. after   13 cycles
 SCF Done:  E(RB3LYP) =  -497.209373722     A.U. after   11 cycles
 SCF Done:  E(RB3LYP) =  -497.209407523     A.U. after   11 cycles
 SCF Done:  E(RB3LYP) =  -497.209422692     A.U. after   11 cycles
 SCF Done:  E(RB3LYP) =  -497.209425709     A.U. after   10 cycles
 SCF Done:  E(RB3LYP) =  -497.209430228     A.U. after   11 cycles
 SCF Done:  E(RB3LYP) =  -497.209431503     A.U. after   10 cycles
 SCF Done:  E(RB3LYP) =  -497.209431621     A.U. after    8 cycles
 SCF Done:  E(RB3LYP) =  -497.209431661     A.U. after    8 cycles
 Optimization completed.
    -- Stationary point found.
 Normal termination of Gaussian 16 at Tue Dec  8 12:43:28 2020.

 --------------------------------------------------------------------
 #N Geom=AllCheck Guess=TCheck SCRF=Check GenChk RB3LYP/6-31G(d) Freq
 --------------------------------------------------------------------

 Structure from the checkpoint file:  "JID_712.chk"
 -----------------------------
 CID_54122550_JID_712_neutraal
 -----------------------------
 Charge =  0 Multiplicity = 1

 SCF Done:  E(RB3LYP) =  -497.209431661     A.U. after    1 cycles

  Exact polarizability:  86.694   9.017  90.710  -1.710   2.451  56.352
 Approx polarizability: 109.510  30.602 170.107   0.564  12.784  79.437

                      1                      2                      3
                      A                      A                      A
 Frequencies --     24.3498                52.4588                71.3505
 Red. masses --      5.7911                 3.4028                 6.6691
 Frc consts  --      0.0020                 0.0055                 0.0200
 IR Inten    --      2.5145                 0.0224                 4.6585

                      4                      5                      6
                      A                      A                      A
 Frequencies --    124.6038               146.9055               176.5812
 Red. masses --      3.1206                 2.3699                 3.7509
 Frc consts  --      0.0285                 0.0301                 0.0689
 IR Inten    --      0.6624                 0.0575                 4.8897

                      7                      8                      9
                      A                      A                      A
 Frequencies --    238.9456               287.4714               381.9579
 Red. masses --      4.7492                 3.1476                 3.2300
 Frc consts  --      0.1598                 0.1533                 0.2776
 IR Inten    --      4.0894                 4.9296                 1.5582

                     10                     11                     12
                      A                      A                      A
 Frequencies --    434.2583               467.5030               491.3682
 Red. masses --      4.4835                 1.7768                 2.5356
 Frc consts  --      0.4982                 0.2288                 0.3607
 IR Inten    --      8.4914                 5.7111                14.1268

                     13                     14                     15
                      A                      A                      A
 Frequencies --    543.9479               640.6459               692.4594
 Red. masses --      3.9969                 4.2917                 2.4042
 Frc consts  --      0.6968                 1.0378                 0.6792
 IR Inten    --      9.8170                 2.0018                 5.5215

                     16                     17                     18
                      A                      A                      A
 Frequencies --    730.8982               773.5294               841.4129
 Red. masses --      1.8333                 3.0630                 4.4916
 Frc consts  --      0.5770                 1.0798                 1.8736
 IR Inten    --      0.7426                 0.1748                16.5529

                     19                     20                     21
                      A                      A                      A
 Frequencies --    860.6376               912.8343               952.0384
 Red. masses --      3.5328                 1.3640                 2.2364
 Frc consts  --      1.5417                 0.6696                 1.1943
 IR Inten    --      0.7736                38.9274                 8.4899

                     22                     23                     24
                      A                      A                      A
 Frequencies --    985.6365              1003.1642              1004.4160
 Red. masses --      2.3802                 1.3217                 1.1109
 Frc consts  --      1.3624                 0.7837                 0.6603
 IR Inten    --     26.0581                38.1245                27.6539

                     25                     26                     27
                      A                      A                      A
 Frequencies --   1043.9021              1047.8036              1152.5965
 Red. masses --      1.1870                 1.5249                 1.6425
 Frc consts  --      0.7621                 0.9864                 1.2856
 IR Inten    --     26.4709                18.4447                60.4934

                     28                     29                     30
                      A                      A                      A
 Frequencies --   1206.7088              1240.9543              1302.7037
 Red. masses --      2.3654                 3.1622                 1.5581
 Frc consts  --      2.0294                 2.8692                 1.5579
 IR Inten    --     98.7083               432.5376                62.0756

                     31                     32                     33
                      A                      A                      A
 Frequencies --   1312.7752              1327.1862              1389.5801
 Red. masses --      1.8715                 1.5964                 1.2443
 Frc consts  --      1.9003                 1.6568                 1.4156
 IR Inten    --     90.6539                12.6748                49.5313

                     34                     35                     36
                      A                      A                      A
 Frequencies --   1443.2660              1474.8278              1492.2660
 Red. masses --      1.1867                 1.2500                 1.1057
 Frc consts  --      1.4564                 1.6019                 1.4507
 IR Inten    --     11.5761                24.3878                11.8046

                     37                     38                     39
                      A                      A                      A
 Frequencies --   1701.9375              1710.2574              1782.6517
 Red. masses --      3.9222                 4.4594                11.0907
 Frc consts  --      6.6937                 7.6850                20.7655
 IR Inten    --      5.2084                69.6712               271.8213

                     40                     41                     42
                      A                      A                      A
 Frequencies --   1825.9852              3102.6490              3162.1485
 Red. masses --     11.1651                 1.0577                 1.1074
 Frc consts  --     21.9334                 5.9988                 6.5238
 IR Inten    --     91.9764                 1.0396                 1.9939

                     43                     44                     45
                      A                      A                      A
 Frequencies --   3177.8056              3196.5638              3199.2327
 Red. masses --      1.0595                 1.0937                 1.0639
 Frc consts  --      6.3039                 6.5842                 6.4157
 IR Inten    --      4.3865                 7.7888                 2.2262

                     46                     47                     48
                      A                      A                      A
 Frequencies --   3235.9237              3263.4075              3325.6954
 Red. masses --      1.0962                 1.1159                 1.1107
 Frc consts  --      6.7631                 7.0021                 7.2377
 IR Inten    --     15.1393                 3.0239                 2.3088

 - Thermochemistry -
 -------------------
 Temperature   298.150 Kelvin.  Pressure   1.00000 Atm.
 Atom     1 has atomic number  6 and mass  12.00000

 Molecular mass:   140.04734 amu.
 Principal axes and moments of inertia in atomic units:
                           1         2         3
     Eigenvalues --   820.311642076.142582380.95731
           X            0.99967  -0.02372  -0.00956
           Y            0.02336   0.99908  -0.03600
           Z            0.01040   0.03576   0.99931
 This molecule is an asymmetric top.
 Rotational symmetry number  1.
 Warning -- assumption of classical behavior for rotation
           may cause significant error
 Rotational temperatures (Kelvin)      0.10559     0.04172     0.03638
 Rotational constants (GHZ):           2.20007     0.86928     0.75799
 Zero-point vibrational energy     364611.0 (Joules/Mol)
                                   87.14413 (Kcal/Mol)
 Warning -- explicit consideration of  13 degrees of freedom as
           vibrations may cause significant error
 Vibrational temperatures:     35.03    75.48   102.66   179.28   211.36
          (Kelvin)            254.06   343.79   413.61   549.55   624.80
                              672.63   706.97   782.62   921.75   996.29
                             1051.60  1112.94  1210.61  1238.27  1313.36
                             1369.77  1418.11  1443.33  1445.13  1501.94
                             1507.56  1658.33  1736.18  1785.46  1874.30
                             1888.79  1909.52  1999.30  2076.54  2121.95
                             2147.04  2448.71  2460.68  2564.84  2627.19
                             4464.02  4549.63  4572.15  4599.14  4602.98
                             4655.77  4695.32  4784.93

 Zero-point correction=                           0.138873 (Hartree/Particle)
 Thermal correction to Energy=                    0.149323
 Thermal correction to Enthalpy=                  0.150267
 Thermal correction to Gibbs Free Energy=         0.101161
 Sum of electronic and zero-point Energies=           -497.070559
 Sum of electronic and thermal Energies=              -497.060109
 Sum of electronic and thermal Enthalpies=            -497.059165
 Sum of electronic and thermal Free Energies=         -497.108271

                     E (Thermal)             CV                S
                      KCal/Mol        Cal/Mol-Kelvin    Cal/Mol-Kelvin
 Total                   93.701             36.359            103.353
 Electronic               0.000              0.000              0.000
 Translational            0.889              2.981             40.722
 Rotational               0.889              2.981             29.785
 Vibrational             91.924             30.398             32.846
 Vibration     1          0.593              1.985              6.244
 Vibration     2          0.596              1.977              4.722
 Vibration     3          0.598              1.968              4.116
 Vibration     4          0.610              1.928              3.028
 Vibration     5          0.617              1.906              2.712
 Vibration     6          0.628              1.871              2.364
 Vibration     7          0.657              1.781              1.811
 Vibration     8          0.685              1.697              1.489
 Vibration     9          0.751              1.509              1.031
 Vibration    10          0.795              1.396              0.845
 Vibration    11          0.825              1.322              0.745
 Vibration    12          0.847              1.269              0.680
 Vibration    13          0.899              1.153              0.557

                           ! Non-Optimized Parameters !
 Normal termination of Gaussian 16 at Tue Dec  8 12:50:30 2020.

 ----------------------------------------------------------------------
 # B3LYP/6-311++G(d,p) empiricaldispersion=gd3bj scf=xqc pop=npa geom=c
 heck
 ----------------------------------------------------------------------

 -------------------------------------
 CID_54122550_JID_712_Energie_neutraal
 -------------------------------------
 Structure from the checkpoint file:  "JID_712.chk"
 Charge =  0 Multiplicity = 1

 SCF Done:  E(RB3LYP) =  -497.359919907     A.U. after   14 cycles
 Normal termination of Gaussian 16 at Tue Dec  8 12:51:39 2020.

 ----------------------------------------------------------------------
 # B3LYP/6-311++G(d,p) empiricaldispersion=gd3bj scf=xqc pop=npa geom=c
 heck
 ----------------------------------------------------------------------

 -----------------------------------
 CID_54122550_JID_712_Energie_kation
 -----------------------------------
 Structure from the checkpoint file:  "JID_712.chk"
 Charge =  1 Multiplicity = 2

 SCF Done:  E(UB3LYP) =  -497.020689996     A.U. after   25 cycles
 Normal termination of Gaussian 16 at Tue Dec  8 13:04:42 2020.
 Gaussian 16:  ES64L-G16RevA.03 25-Dec-2016

 ----------------------------------------------------------------------
 # B3LYP/6-311++G(d,p) empiricaldispersion=gd3bj scf=xqc pop=npa geom=c
 heck
 ----------------------------------------------------------------------

 ----------------------------------
 CID_54122550_JID_712_Energie_anion
 ----------------------------------
 Structure from the checkpoint file:  "JID_712.chk"
 Charge = -1 Multiplicity = 2

                         Standard orientation:
 ---------------------------------------------------------------------
 Center     Atomic      Atomic             Coordinates (Angstroms)
 Number     Number       Type             X           Y           Z
 ---------------------------------------------------------------------
      1          6           0       -1.847637    1.838850   -0.567915
      2          6           0       -2.206258    0.568009   -0.786839
      3          6           0       -1.757741   -0.597148    0.011534
      4          8           0       -2.162631   -1.717621   -0.242748
      5          6           0       -0.783481   -0.370385    1.181213
      6          6           0        0.575869    0.117282    0.717916
      7          8           0        1.046684    1.204620    0.957347
      8          8           0        1.169861   -0.853247   -0.023011
      9          6           0        2.408979   -0.710464   -0.634245
     10          6           0        3.250867    0.319254   -0.607666
     11          1           0       -1.163451    2.128404    0.223499
     12          1           0       -2.223899    2.639687   -1.198132
     13          1           0       -2.884101    0.305296   -1.595490
     14          1           0       -1.180446    0.370002    1.879606
     15          1           0       -0.674987   -1.333594    1.684229
     16          1           0        2.612609   -1.625940   -1.177925
     17          1           0        4.177483    0.219065   -1.163403
     18          1           0        3.061889    1.234679   -0.069075
 ---------------------------------------------------------------------

 SCF Done:  E(UB3LYP) =  -497.374569584     A.U. after   27 cycles

 The electronic state is 2-A.
 Alpha  occ. eigenvalues --  -19.05196 -18.97499 -18.90805 -10.16111 -10.12090
 Alpha  occ. eigenvalues --  -10.05599 -10.04821 -10.03102  -9.99822  -9.99072
 Alpha  occ. eigenvalues --   -0.98434  -0.89647  -0.85172  -0.66748  -0.62349
 Alpha  occ. eigenvalues --   -0.59286  -0.53384  -0.45288  -0.41561  -0.38127
 Alpha  occ. eigenvalues --   -0.37281  -0.35425  -0.32702  -0.31788  -0.29904
 Alpha  occ. eigenvalues --   -0.28514  -0.27991  -0.25195  -0.24371  -0.23386
 Alpha  occ. eigenvalues --   -0.22496  -0.20769  -0.19491  -0.14398  -0.14223
 Alpha  occ. eigenvalues --   -0.11618  -0.07256   0.05240
 Alpha virt. eigenvalues --    0.08477   0.10064   0.10887   0.11098   0.11629
 Alpha virt. eigenvalues --    0.13205   0.13508   0.14093   0.14677   0.16233
 Alpha virt. eigenvalues --    0.16831   0.17333   0.18065   0.19025   0.19527

  Beta  occ. eigenvalues --  -19.05205 -18.97415 -18.90203 -10.15938 -10.12068
  Beta  occ. eigenvalues --  -10.05260 -10.04758 -10.03145  -9.99813  -9.98636
  Beta  occ. eigenvalues --   -0.98337  -0.89509  -0.84097  -0.66585  -0.61880
  Beta  occ. eigenvalues --   -0.58876  -0.53204  -0.44125  -0.41379  -0.38035
  Beta  occ. eigenvalues --   -0.36834  -0.35254  -0.32399  -0.31562  -0.29575
  Beta  occ. eigenvalues --   -0.28205  -0.27810  -0.24925  -0.24139  -0.22933
  Beta  occ. eigenvalues --   -0.21941  -0.19233  -0.18389  -0.14197  -0.13923
  Beta  occ. eigenvalues --   -0.09283  -0.06732
  Beta virt. eigenvalues --    0.08452   0.10289   0.10843   0.11102   0.11538
  Beta virt. eigenvalues --    0.12564   0.13194   0.13908   0.14072   0.15473
  Beta virt. eigenvalues --    0.16198   0.16908   0.17355   0.18085   0.19061

 Mulliken charges and spin densities:
               1          2
     1  C   -0.718527   0.439604
     2  C    0.217277  -0.053023
     3  C   -0.220274   0.272970
     4  O   -0.398672   0.203064
     5  C   -0.286531  -0.155589
     6  C    0.012015   0.119600
     7  O   -0.294233   0.038890
     8  O    0.002268  -0.012510
     9  C    0.077705   0.001689
    10  C   -0.332128   0.060358
    11  H    0.119827  -0.020863
    12  H    0.073441  -0.020890
    13  H    0.132992  -0.003761
    14  H    0.059117   0.100373
    15  H    0.132650   0.034193
    16  H    0.153765  -0.001661
    17  H    0.107368  -0.001593
    18  H    0.161939  -0.000851
 Sum of Mulliken charges =  -1.00000   1.00000

 Dipole moment (field-independent basis, Debye):
    X=              5.2960    Y=             -0.0443    Z=              0.1641  Tot=              5.2988
 Quadrupole moment (field-independent basis, Debye-Ang):
   XX=            -86.0327   YY=            -79.9592   ZZ=            -66.7167
   XY=             -7.1037   XZ=             -4.0840   YZ=             -1.7601

 Summary of Natural Population Analysis:

                                       Natural Population
                Natural  -----------------------------------------------
    Atom  No    Charge         Core      Valence    Rydberg      Total
 -----------------------------------------------------------------------
      C    1   -0.09138      0.99960     2.08413    0.00765     3.09138
      C    2   -0.15195      0.99954     2.14192    0.01049     3.15195
      C    3    0.29653      0.99964     1.68202    0.02181     2.70347
      O    4   -0.24364      0.99987     3.23678    0.00698     4.24364
      C    5   -0.27824      0.99956     2.26864    0.01004     3.27824
      C    6    0.43280      0.99969     1.54017    0.02734     2.56720
      O    7   -0.30275      0.99986     3.29743    0.00545     4.30275
      O    8   -0.27589      0.99985     3.26649    0.00955     4.27589
      C    9    0.08134      0.99947     1.90623    0.01296     2.91866
      C   10   -0.23053      0.99959     2.22389    0.00705     3.23053
      H   11    0.08831      0.00000     0.40977    0.00191     0.41169
      H   12    0.07639      0.00000     0.42238    0.00123     0.42361
      H   13    0.08891      0.00000     0.40923    0.00186     0.41109
      H   14    0.11066      0.00000     0.38763    0.00171     0.38934
      H   15    0.11354      0.00000     0.38418    0.00228     0.38646
      H   16    0.08307      0.00000     0.41587    0.00106     0.41693
      H   17    0.08916      0.00000     0.40988    0.00096     0.41084
      H   18    0.11364      0.00000     0.38535    0.00101     0.38636
 =======================================================================
   * Total *    0.00000      9.99667    26.87199    0.13134    37.00000

 Normal termination of Gaussian 16 at Tue Dec  8 13:08:54 2020.
