 Gaussian 16, Revision A.03,

 -----------------------------------------------------------
 # opt freq B3LYP/6-31G(d) empiricaldispersion=gd3bj scf=xqc
 -----------------------------------------------------------

 -------------------------------
 CID_108019810_JID_7356_neutraal
 -------------------------------
 Symbolic Z-matrix:
 Charge =  0 Multiplicity = 1

 SCF Done:  E(RB3LYP) =  -782.392068409     A.U. after   16 cycles
 SCF Done:  E(RB3LYP) =  -782.412943320     A.U. after   14 cycles
 SCF Done:  E(RB3LYP) =  -782.414034562     A.U. after   15 cycles
 SCF Done:  E(RB3LYP) =  -782.414750040     A.U. after   15 cycles
 SCF Done:  E(RB3LYP) =  -782.414469593     A.U. after   15 cycles
 SCF Done:  E(RB3LYP) =  -782.420978187     A.U. after   13 cycles
 SCF Done:  E(RB3LYP) =  -782.421384950     A.U. after   13 cycles
 SCF Done:  E(RB3LYP) =  -782.421416179     A.U. after   12 cycles
 SCF Done:  E(RB3LYP) =  -782.422188748     A.U. after   10 cycles
 SCF Done:  E(RB3LYP) =  -782.422386964     A.U. after   12 cycles
 SCF Done:  E(RB3LYP) =  -782.422939899     A.U. after    9 cycles
 SCF Done:  E(RB3LYP) =  -782.422940980     A.U. after    8 cycles
 SCF Done:  E(RB3LYP) =  -782.422941110     A.U. after    8 cycles
 SCF Done:  E(RB3LYP) =  -782.422941326     A.U. after    7 cycles
 SCF Done:  E(RB3LYP) =  -782.422941536     A.U. after    8 cycles
 SCF Done:  E(RB3LYP) =  -782.422941583     A.U. after    8 cycles
 Optimization completed.
    -- Stationary point found.
 Normal termination of Gaussian 16 at Mon Dec 14 13:22:13 2020.

 --------------------------------------------------------------------
 #N Geom=AllCheck Guess=TCheck SCRF=Check GenChk RB3LYP/6-31G(d) Freq
 --------------------------------------------------------------------

 Structure from the checkpoint file:  "JID_7356.chk"
 -------------------------------
 CID_108019810_JID_7356_neutraal
 -------------------------------
 Charge =  0 Multiplicity = 1

 SCF Done:  E(RB3LYP) =  -782.422941583     A.U. after    1 cycles

  Exact polarizability: 290.450   1.727 148.895  -6.940  -9.956  68.240
 Approx polarizability: 410.904   6.617 254.474 -15.656 -24.517 109.444

                      1                      2                      3
                      A                      A                      A
 Frequencies --     24.3154                39.3558                46.3629
 Red. masses --      7.1847                 7.0471                 5.4948
 Frc consts  --      0.0025                 0.0064                 0.0070
 IR Inten    --      2.2345                 1.2799                 0.8247

                      4                      5                      6
                      A                      A                      A
 Frequencies --     63.3371                80.6473                97.2818
 Red. masses --      5.0191                 6.3012                 5.9300
 Frc consts  --      0.0119                 0.0241                 0.0331
 IR Inten    --      2.4599                 1.3560                 0.8041

                      7                      8                      9
                      A                      A                      A
 Frequencies --    125.6463               138.9190               148.9469
 Red. masses --      3.7795                 4.5925                 4.6193
 Frc consts  --      0.0352                 0.0522                 0.0604
 IR Inten    --      0.2844                 1.4857                 0.1163

                     10                     11                     12
                      A                      A                      A
 Frequencies --    206.4882               232.8338               302.7822
 Red. masses --      7.5473                 4.2961                 6.5417
 Frc consts  --      0.1896                 0.1372                 0.3533
 IR Inten    --      0.7027                 1.7601                 1.0291

                     13                     14                     15
                      A                      A                      A
 Frequencies --    332.4618               354.6070               383.9866
 Red. masses --      4.6981                 2.9864                 4.2071
 Frc consts  --      0.3060                 0.2213                 0.3655
 IR Inten    --      2.0893                 7.7994                 4.3875

                     16                     17                     18
                      A                      A                      A
 Frequencies --    400.8073               425.8400               441.3848
 Red. masses --      5.8619                 3.2712                 5.5458
 Frc consts  --      0.5548                 0.3495                 0.6366
 IR Inten    --      8.0921                 1.5001                11.4099

                     19                     20                     21
                      A                      A                      A
 Frequencies --    501.3133               523.5660               541.4238
 Red. masses --      3.0693                 4.1429                 2.6567
 Frc consts  --      0.4545                 0.6691                 0.4589
 IR Inten    --      8.7812                 6.8897                 4.3406

                     22                     23                     24
                      A                      A                      A
 Frequencies --    586.1362               603.5556               612.5367
 Red. masses --      1.2242                 4.2747                 1.3366
 Frc consts  --      0.2478                 0.9175                 0.2955
 IR Inten    --     82.3431                35.2469                19.2311

                     25                     26                     27
                      A                      A                      A
 Frequencies --    615.6225               621.3401               652.0446
 Red. masses --      1.3572                 1.3388                 4.0512
 Frc consts  --      0.3031                 0.3045                 1.0148
 IR Inten    --     94.7505                99.4993                45.5531

                     28                     29                     30
                      A                      A                      A
 Frequencies --    669.0357               702.6738               710.0586
 Red. masses --      5.3756                 3.7362                 3.3979
 Frc consts  --      1.4177                 1.0869                 1.0094
 IR Inten    --      9.6435                32.7739                 8.7862

                     31                     32                     33
                      A                      A                      A
 Frequencies --    755.6466               830.4938               847.4946
 Red. masses --      4.6640                 2.0629                 2.1422
 Frc consts  --      1.5691                 0.8383                 0.9065
 IR Inten    --     11.0824                27.0136                10.0524

                     34                     35                     36
                      A                      A                      A
 Frequencies --    858.9182               875.6306               899.8379
 Red. masses --      1.7467                 4.5591                 1.9912
 Frc consts  --      0.7592                 2.0596                 0.9499
 IR Inten    --     43.4586                 4.1574                 0.9879

                     37                     38                     39
                      A                      A                      A
 Frequencies --    925.3426               933.4580               957.6848
 Red. masses --      4.5396                 4.4953                 1.3365
 Frc consts  --      2.2902                 2.3078                 0.7222
 IR Inten    --     18.3363                 3.7102                 0.7136

                     40                     41                     42
                      A                      A                      A
 Frequencies --    964.9282               981.1963               987.3809
 Red. masses --      1.9109                 1.8569                 1.9475
 Frc consts  --      1.0483                 1.0533                 1.1187
 IR Inten    --     12.8475                 7.1946                 2.1463

                     43                     44                     45
                      A                      A                      A
 Frequencies --   1029.9912              1039.5496              1157.3981
 Red. masses --      1.1523                 2.6653                 1.4448
 Frc consts  --      0.7203                 1.6970                 1.1403
 IR Inten    --     24.4423                 0.4492                42.6509

                     46                     47                     48
                      A                      A                      A
 Frequencies --   1197.1053              1202.3809              1225.4158
 Red. masses --      1.8060                 1.3999                 1.1844
 Frc consts  --      1.5249                 1.1924                 1.0479
 IR Inten    --    480.9396                60.9795                20.5340

                     49                     50                     51
                      A                      A                      A
 Frequencies --   1253.7971              1273.1644              1308.9914
 Red. masses --      1.6551                 2.3679                 1.7219
 Frc consts  --      1.5330                 2.2614                 1.7383
 IR Inten    --     30.9943                37.7754                40.5892

                     52                     53                     54
                      A                      A                      A
 Frequencies --   1324.9163              1343.8527              1363.2577
 Red. masses --      1.4641                 1.6042                 2.7884
 Frc consts  --      1.5143                 1.7069                 3.0533
 IR Inten    --     81.3397                 4.4705                30.4999

                     55                     56                     57
                      A                      A                      A
 Frequencies --   1374.3255              1376.5285              1403.0360
 Red. masses --      1.7940                 2.5139                 2.6814
 Frc consts  --      1.9964                 2.8065                 3.1099
 IR Inten    --     65.8624               422.2161                85.3130

                     58                     59                     60
                      A                      A                      A
 Frequencies --   1454.5694              1491.6762              1511.2825
 Red. masses --      2.2848                 1.0890                 2.1281
 Frc consts  --      2.8481                 1.4276                 2.8638
 IR Inten    --      4.5259                29.3026                78.4701

                     61                     62                     63
                      A                      A                      A
 Frequencies --   1569.4554              1626.3789              1668.9111
 Red. masses --      2.5989                 5.5193                 5.5456
 Frc consts  --      3.7718                 8.6015                 9.1005
 IR Inten    --    123.8034                 8.7703               207.4351

                     64                     65                     66
                      A                      A                      A
 Frequencies --   1700.9920              1802.7423              1817.1109
 Red. masses --      5.7616                 8.3666                 8.8852
 Frc consts  --      9.8219                16.0202                17.2854
 IR Inten    --     48.8658               693.3255               427.5393

                     67                     68                     69
                      A                      A                      A
 Frequencies --   2244.9758              3065.7310              3113.2326
 Red. masses --      5.9649                 1.0591                 1.1031
 Frc consts  --     17.7125                 5.8651                 6.2991
 IR Inten    --      1.0144                 5.5486                 3.3208

                     70                     71                     72
                      A                      A                      A
 Frequencies --   3188.4493              3189.9376              3193.9165
 Red. masses --      1.0896                 1.0889                 1.0898
 Frc consts  --      6.5267                 6.5283                 6.5500
 IR Inten    --      2.6029                11.8456                 8.3356

                     73                     74                     75
                      A                      A                      A
 Frequencies --   3212.9111              3224.5349              3232.8609
 Red. masses --      1.0929                 1.0893                 1.0930
 Frc consts  --      6.6469                 6.6730                 6.7303
 IR Inten    --      3.7216                 8.2956                 5.2719

                     76                     77                     78
                      A                      A                      A
 Frequencies --   3495.4070              3574.9897              3705.7374
 Red. masses --      1.1607                 1.0753                 1.0643
 Frc consts  --      8.3555                 8.0974                 8.6109
 IR Inten    --     65.8423                30.8817                86.6008

 - Thermochemistry -
 -------------------
 Temperature   298.150 Kelvin.  Pressure   1.00000 Atm.
 Atom     1 has atomic number  6 and mass  12.00000

 Molecular mass:   229.07389 amu.
 Principal axes and moments of inertia in atomic units:
                           1         2         3
     Eigenvalues --  1380.79411********************
           X            1.00000   0.00261   0.00142
           Y           -0.00260   0.99999  -0.00451
           Z           -0.00143   0.00451   0.99999
 This molecule is an asymmetric top.
 Rotational symmetry number  1.
 Warning -- assumption of classical behavior for rotation
           may cause significant error
 Rotational temperatures (Kelvin)      0.06273     0.00774     0.00701
 Rotational constants (GHZ):           1.30703     0.16118     0.14602
 Zero-point vibrational energy     562022.6 (Joules/Mol)
                                  134.32662 (Kcal/Mol)
 Warning -- explicit consideration of  25 degrees of freedom as
           vibrations may cause significant error
 Vibrational temperatures:     34.98    56.62    66.71    91.13   116.03
          (Kelvin)            139.97   180.78   199.87   214.30   297.09
                              335.00   435.64   478.34   510.20   552.47
                              576.67   612.69   635.05   721.28   753.29
                              778.99   843.32   868.38   881.30   885.74
                              893.97   938.15   962.59  1010.99  1021.62
                             1087.21  1194.90  1219.36  1235.79  1259.84
                             1294.67  1331.36  1343.04  1377.89  1388.32
                             1411.72  1420.62  1481.93  1495.68  1665.24
                             1722.37  1729.96  1763.10  1803.93  1831.80
                             1883.35  1906.26  1933.50  1961.42  1977.35
                             1980.52  2018.66  2092.80  2146.19  2174.40
                             2258.10  2340.00  2401.19  2447.35  2593.74
                             2614.42  3230.02  4410.90  4479.25  4587.47
                             4589.61  4595.33  4622.66  4639.39  4651.37
                             5029.11  5143.61  5331.73

 Zero-point correction=                           0.214063 (Hartree/Particle)
 Thermal correction to Energy=                    0.230005
 Thermal correction to Enthalpy=                  0.230950
 Thermal correction to Gibbs Free Energy=         0.168413
 Sum of electronic and zero-point Energies=           -782.208878
 Sum of electronic and thermal Energies=              -782.192936
 Sum of electronic and thermal Enthalpies=            -782.191992
 Sum of electronic and thermal Free Energies=         -782.254528

                     E (Thermal)             CV                S
                      KCal/Mol        Cal/Mol-Kelvin    Cal/Mol-Kelvin
 Total                  144.331             59.136            131.619
 Electronic               0.000              0.000              0.000
 Translational            0.889              2.981             42.189
 Rotational               0.889              2.981             33.613
 Vibrational            142.553             53.175             55.817
 Vibration     1          0.593              1.985              6.246
 Vibration     2          0.594              1.981              5.291
 Vibration     3          0.595              1.979              4.967
 Vibration     4          0.597              1.972              4.350
 Vibration     5          0.600              1.962              3.875
 Vibration     6          0.603              1.951              3.508
 Vibration     7          0.611              1.927              3.012
 Vibration     8          0.615              1.914              2.819
 Vibration     9          0.618              1.904              2.686
 Vibration    10          0.641              1.831              2.075
 Vibration    11          0.654              1.791              1.857
 Vibration    12          0.694              1.668              1.401
 Vibration    13          0.714              1.611              1.248
 Vibration    14          0.730              1.566              1.146
 Vibration    15          0.753              1.504              1.023
 Vibration    16          0.767              1.468              0.960
 Vibration    17          0.788              1.414              0.872
 Vibration    18          0.801              1.380              0.822
 Vibration    19          0.857              1.247              0.655
 Vibration    20          0.879              1.198              0.602
 Vibration    21          0.897              1.158              0.562
 Vibration    22          0.943              1.061              0.474
 Vibration    23          0.962              1.024              0.444
 Vibration    24          0.972              1.005              0.429
 Vibration    25          0.975              0.999              0.424

 Optimization completed.
    -- Stationary point found.
 Normal termination of Gaussian 16 at Mon Dec 14 13:30:22 2020.

 ----------------------------------------------------------------------
 # B3LYP/6-311++G(d,p) empiricaldispersion=gd3bj scf=xqc pop=npa geom=c
 heck
 ----------------------------------------------------------------------

 ---------------------------------------
 CID_108019810_JID_7356_Energie_neutraal
 ---------------------------------------
 Structure from the checkpoint file:  "JID_7356.chk"
 Charge =  0 Multiplicity = 1

 SCF Done:  E(RB3LYP) =  -782.656605062     A.U. after   16 cycles
 Normal termination of Gaussian 16 at Mon Dec 14 13:34:13 2020.

 ----------------------------------------------------------------------
 # B3LYP/6-311++G(d,p) empiricaldispersion=gd3bj scf=xqc pop=npa geom=c
 heck
 ----------------------------------------------------------------------

 -------------------------------------
 CID_108019810_JID_7356_Energie_kation
 -------------------------------------
 Structure from the checkpoint file:  "JID_7356.chk"
 Charge =  1 Multiplicity = 2

 SCF Done:  E(UB3LYP) =  -782.355077754     A.U. after   24 cycles
 Normal termination of Gaussian 16 at Mon Dec 14 13:42:30 2020.
 Gaussian 16:  ES64L-G16RevA.03 25-Dec-2016

 ----------------------------------------------------------------------
 # B3LYP/6-311++G(d,p) empiricaldispersion=gd3bj scf=xqc pop=npa geom=c
 heck
 ----------------------------------------------------------------------

 ------------------------------------
 CID_108019810_JID_7356_Energie_anion
 ------------------------------------
 Structure from the checkpoint file:  "JID_7356.chk"
 Charge = -1 Multiplicity = 2

                         Standard orientation:
 ---------------------------------------------------------------------
 Center     Atomic      Atomic             Coordinates (Angstroms)
 Number     Number       Type             X           Y           Z
 ---------------------------------------------------------------------
      1          6           0        4.275012    2.708396   -0.437153
      2          6           0        4.092556    1.726658    0.240619
      3          6           0        3.855286    0.524970    1.036512
      4          6           0        3.929380   -0.750193    0.183935
      5          8           0        4.984721   -1.330491    0.001401
      6          7           0        2.757362   -1.253943   -0.347447
      7          6           0        1.420806   -0.817041   -0.266092
      8          6           0        0.413323   -1.791340   -0.150908
      9          6           0       -0.920741   -1.425184   -0.092291
     10          6           0       -1.302946   -0.070421   -0.134608
     11          6           0       -0.285420    0.889379   -0.261078
     12          6           0        1.056178    0.533045   -0.343743
     13          6           0       -2.690563    0.374524   -0.063244
     14          6           0       -3.785437   -0.399968    0.058747
     15          6           0       -5.155173    0.126406    0.125385
     16          8           0       -6.149488   -0.565464    0.236145
     17          8           0       -5.227291    1.485411    0.051517
     18          1           0        4.457431    3.575751   -1.029932
     19          1           0        4.642616    0.414851    1.789215
     20          1           0        2.893333    0.597567    1.556481
     21          1           0        2.908505   -2.162848   -0.771443
     22          1           0        0.692130   -2.840123   -0.093933
     23          1           0       -1.675003   -2.199827   -0.000789
     24          1           0       -0.555331    1.940514   -0.318618
     25          1           0        1.809407    1.296456   -0.497386
     26          1           0       -2.839315    1.450680   -0.114486
     27          1           0       -3.735272   -1.481909    0.117630
     28          1           0       -6.177139    1.695453    0.106411
 ---------------------------------------------------------------------

 SCF Done:  E(UB3LYP) =  -782.691910770     A.U. after   24 cycles

 The electronic state is 2-A.
 Alpha  occ. eigenvalues --  -19.03080 -18.99394 -18.95725 -14.24802 -10.18129
 Alpha  occ. eigenvalues --  -10.14533 -10.11908 -10.10216 -10.08945 -10.08581
 Alpha  occ. eigenvalues --  -10.05969 -10.05291 -10.04914 -10.04785 -10.04526
 Alpha  occ. eigenvalues --  -10.02777 -10.01691  -0.96533  -0.95023  -0.87135
 Alpha  occ. eigenvalues --   -0.83510  -0.73304  -0.71511  -0.66261  -0.64090
 Alpha  occ. eigenvalues --   -0.63097  -0.61209  -0.53909  -0.51046  -0.48464
 Alpha  occ. eigenvalues --   -0.47700  -0.45531  -0.43750  -0.42828  -0.39999
 Alpha  occ. eigenvalues --   -0.39332  -0.36656  -0.35528  -0.34860  -0.33811
 Alpha  occ. eigenvalues --   -0.32851  -0.31987  -0.31396  -0.30916  -0.30539
 Alpha  occ. eigenvalues --   -0.29876  -0.26471  -0.26297  -0.25396  -0.23584
 Alpha  occ. eigenvalues --   -0.21851  -0.20951  -0.20821  -0.19566  -0.19069
 Alpha  occ. eigenvalues --   -0.16601  -0.15612  -0.14361  -0.13843  -0.09748
 Alpha  occ. eigenvalues --    0.02047
 Alpha virt. eigenvalues --    0.06892   0.07892   0.08367   0.08874   0.09295
 Alpha virt. eigenvalues --    0.09477   0.10003   0.10602   0.11363   0.11612
 Alpha virt. eigenvalues --    0.12226   0.12753   0.13115   0.13666   0.14179

  Beta  occ. eigenvalues --  -19.03048 -18.99276 -18.95453 -14.24865 -10.18022
  Beta  occ. eigenvalues --  -10.14405 -10.11917 -10.10210 -10.08620 -10.08572
  Beta  occ. eigenvalues --  -10.06053 -10.05319 -10.04804 -10.04623 -10.04438
  Beta  occ. eigenvalues --  -10.02499 -10.01477  -0.96340  -0.94819  -0.86752
  Beta  occ. eigenvalues --   -0.83363  -0.73034  -0.71480  -0.65694  -0.64022
  Beta  occ. eigenvalues --   -0.62898  -0.60733  -0.53375  -0.50819  -0.48286
  Beta  occ. eigenvalues --   -0.47527  -0.45449  -0.43387  -0.42685  -0.39899
  Beta  occ. eigenvalues --   -0.39221  -0.36474  -0.35283  -0.34771  -0.33642
  Beta  occ. eigenvalues --   -0.32717  -0.31743  -0.31262  -0.30429  -0.30027
  Beta  occ. eigenvalues --   -0.29561  -0.26251  -0.25531  -0.25149  -0.23367
  Beta  occ. eigenvalues --   -0.21684  -0.20786  -0.20225  -0.19303  -0.18129
  Beta  occ. eigenvalues --   -0.16505  -0.14419  -0.13730  -0.13557  -0.08258
  Beta virt. eigenvalues --    0.06837   0.07238   0.08133   0.08466   0.08887
  Beta virt. eigenvalues --    0.09483   0.09786   0.10178   0.11031   0.11452
  Beta virt. eigenvalues --    0.11835   0.12323   0.12757   0.13153   0.14047

 Mulliken charges and spin densities:
               1          2
     1  C   -1.319238  -0.003189
     2  C    1.179193   0.004277
     3  C   -0.164619  -0.002716
     4  C   -0.157910   0.052256
     5  O   -0.351288   0.041172
     6  N   -0.162859  -0.028144
     7  C   -0.351070   0.164371
     8  C   -0.722502  -0.034767
     9  C   -1.048064   0.143326
    10  C    1.205391   0.047436
    11  C    0.153476   0.120953
    12  C    0.146095   0.009175
    13  C   -0.337547   0.171232
    14  C   -0.329347   0.098293
    15  C    0.094288   0.139200
    16  O   -0.403936   0.088395
    17  O   -0.228814   0.007826
    18  H    0.144231  -0.000562
    19  H    0.220821   0.007079
    20  H    0.171263  -0.000901
    21  H    0.270667   0.013127
    22  H    0.134782   0.004893
    23  H    0.066989  -0.007748
    24  H    0.146671  -0.003154
    25  H    0.129153   0.003137
    26  H    0.130795  -0.018815
    27  H    0.128717  -0.016071
    28  H    0.254664  -0.000081
 Sum of Mulliken charges =  -1.00000   1.00000

 Dipole moment (field-independent basis, Debye):
    X=              5.8126    Y=              2.4611    Z=              0.3169  Tot=              6.3201
 Quadrupole moment (field-independent basis, Debye-Ang):
   XX=           -215.3309   YY=           -103.0768   ZZ=           -105.3348
   XY=             -2.0995   XZ=              3.9441   YZ=             -1.0304

 Summary of Natural Population Analysis:

                                       Natural Population
                Natural  -----------------------------------------------
    Atom  No    Charge         Core      Valence    Rydberg      Total
 -----------------------------------------------------------------------
      C    1   -0.12839      0.99925     2.12564    0.00350     3.12839
      C    2    0.00619      0.99937     1.98751    0.00694     2.99381
      C    3   -0.27482      0.99953     2.26783    0.00745     3.27482
      C    4    0.36271      0.99970     1.61584    0.02176     2.63729
      O    5   -0.31190      0.99987     3.30545    0.00658     4.31190
      N    6   -0.31280      0.99964     2.80316    0.01001     3.81280
      C    7    0.11730      0.99947     1.87373    0.00950     2.88270
      C    8   -0.13447      0.99954     2.12682    0.00811     3.13447
      C    9   -0.04932      0.99954     2.04175    0.00803     3.04932
      C   10   -0.03086      0.99951     2.02269    0.00867     3.03086
      C   11   -0.05798      0.99954     2.05022    0.00822     3.05798
      C   12   -0.13555      0.99953     2.12797    0.00805     3.13555
      C   13   -0.01730      0.99953     2.00861    0.00915     3.01730
      C   14   -0.12116      0.99949     2.11258    0.00909     3.12116
      C   15    0.39651      0.99969     1.57891    0.02489     2.60349
      O   16   -0.30698      0.99987     3.29937    0.00774     4.30698
      O   17   -0.35838      0.99988     3.35239    0.00611     4.35838
      H   18    0.11024      0.00000     0.38875    0.00100     0.38976
      H   19    0.12257      0.00000     0.37610    0.00133     0.37743
      H   20    0.12658      0.00000     0.37211    0.00131     0.37342
      H   21    0.19589      0.00000     0.30241    0.00170     0.30411
      H   22    0.09314      0.00000     0.40581    0.00105     0.40686
      H   23    0.09580      0.00000     0.40279    0.00141     0.40420
      H   24    0.09283      0.00000     0.40579    0.00138     0.40717
      H   25    0.10422      0.00000     0.39407    0.00171     0.39578
      H   26    0.09277      0.00000     0.40555    0.00168     0.40723
      H   27    0.09259      0.00000     0.40600    0.00141     0.40741
      H   28    0.23057      0.00000     0.26615    0.00328     0.26943
 =======================================================================
   * Total *    0.00000     16.99295    42.82599    0.18105    60.00000

 Normal termination of Gaussian 16 at Mon Dec 14 13:50:59 2020.
