 Gaussian 16, Revision A.03,

 -----------------------------------------------------------
 # opt freq B3LYP/6-31G(d) empiricaldispersion=gd3bj scf=xqc
 -----------------------------------------------------------

 -------------------------------
 CID_129933287_JID_4398_neutraal
 -------------------------------
 Symbolic Z-matrix:
 Charge =  0 Multiplicity = 1

 SCF Done:  E(RB3LYP) =  -562.863553138     A.U. after   13 cycles
 SCF Done:  E(RB3LYP) =  -562.866774839     A.U. after   12 cycles
 SCF Done:  E(RB3LYP) =  -562.866506381     A.U. after   11 cycles
 SCF Done:  E(RB3LYP) =  -562.866842660     A.U. after   11 cycles
 SCF Done:  E(RB3LYP) =  -562.867082035     A.U. after   10 cycles
 SCF Done:  E(RB3LYP) =  -562.867091963     A.U. after    9 cycles
 SCF Done:  E(RB3LYP) =  -562.867093677     A.U. after    8 cycles
 SCF Done:  E(RB3LYP) =  -562.867094449     A.U. after    8 cycles
 SCF Done:  E(RB3LYP) =  -562.867094717     A.U. after    7 cycles
 SCF Done:  E(RB3LYP) =  -562.867094867     A.U. after    7 cycles
 SCF Done:  E(RB3LYP) =  -562.867094904     A.U. after    6 cycles
 Optimization completed.
    -- Stationary point found.
 Normal termination of Gaussian 16 at Thu Dec 10 09:25:58 2020.

 --------------------------------------------------------------------
 #N Geom=AllCheck Guess=TCheck SCRF=Check GenChk RB3LYP/6-31G(d) Freq
 --------------------------------------------------------------------

 Structure from the checkpoint file:  "JID_4398.chk"
 -------------------------------
 CID_129933287_JID_4398_neutraal
 -------------------------------
 Charge =  0 Multiplicity = 1

 SCF Done:  E(RB3LYP) =  -562.867094904     A.U. after    1 cycles

  Exact polarizability: 167.682  -3.602 161.811   9.723   4.071 102.199
 Approx polarizability: 236.329  -8.437 252.111  21.371  14.298 144.784

                      1                      2                      3
                      A                      A                      A
 Frequencies --     28.9169                39.7870                62.7048
 Red. masses --      1.0120                 2.7746                 3.2760
 Frc consts  --      0.0005                 0.0026                 0.0076
 IR Inten    --      0.2752                 0.0539                 0.0463

                      4                      5                      6
                      A                      A                      A
 Frequencies --     83.3590               100.8898               140.3792
 Red. masses --      2.6232                 2.4481                 2.4858
 Frc consts  --      0.0107                 0.0147                 0.0289
 IR Inten    --      0.4507                 0.3397                 3.1301

                      7                      8                      9
                      A                      A                      A
 Frequencies --    171.8682               181.0847               196.7865
 Red. masses --      1.3010                 2.0203                 1.9388
 Frc consts  --      0.0226                 0.0390                 0.0442
 IR Inten    --      0.7417                 2.9646                 0.5587

                     10                     11                     12
                      A                      A                      A
 Frequencies --    216.5949               222.2752               248.7137
 Red. masses --      1.4454                 1.6627                 1.4657
 Frc consts  --      0.0400                 0.0484                 0.0534
 IR Inten    --      0.2632                 0.6359                 1.6356

                     13                     14                     15
                      A                      A                      A
 Frequencies --    269.8645               288.0276               304.0842
 Red. masses --      2.1528                 2.5939                 1.8559
 Frc consts  --      0.0924                 0.1268                 0.1011
 IR Inten    --      5.1021                 3.8183                 7.7373

                     16                     17                     18
                      A                      A                      A
 Frequencies --    319.3167               376.3575               390.5573
 Red. masses --      2.1172                 3.0140                 2.1186
 Frc consts  --      0.1272                 0.2515                 0.1904
 IR Inten    --      3.8277                 1.7341                 7.4067

                     19                     20                     21
                      A                      A                      A
 Frequencies --    423.1067               448.9862               476.0620
 Red. masses --      3.1478                 3.3349                 3.6928
 Frc consts  --      0.3320                 0.3961                 0.4931
 IR Inten    --      6.5886                 0.6275                 4.9319

                     22                     23                     24
                      A                      A                      A
 Frequencies --    496.6141               557.0576               589.4074
 Red. masses --      3.6303                 3.4733                 3.1304
 Frc consts  --      0.5275                 0.6350                 0.6407
 IR Inten    --      1.7198                 6.9310                 4.5403

                     25                     26                     27
                      A                      A                      A
 Frequencies --    622.2795               636.8460               676.6171
 Red. masses --      2.5936                 3.8212                 1.4879
 Frc consts  --      0.5917                 0.9131                 0.4013
 IR Inten    --      4.0355                 0.2015               242.1212

                     28                     29                     30
                      A                      A                      A
 Frequencies --    773.9626               781.6580               805.4321
 Red. masses --      4.0987                 2.1892                 1.3909
 Frc consts  --      1.4466                 0.7881                 0.5316
 IR Inten    --      4.2158                18.5413                 7.8521

                     31                     32                     33
                      A                      A                      A
 Frequencies --    822.4316               843.6342               882.3961
 Red. masses --      1.4395                 2.1213                 1.3209
 Frc consts  --      0.5737                 0.8895                 0.6060
 IR Inten    --      1.4697                 2.3249                13.0988

                     34                     35                     36
                      A                      A                      A
 Frequencies --    898.5018               908.8894               953.1092
 Red. masses --      2.2672                 1.3758                 2.7868
 Frc consts  --      1.0784                 0.6696                 1.4916
 IR Inten    --      1.0483                 0.3410                 0.8279

                     37                     38                     39
                      A                      A                      A
 Frequencies --    990.2098              1006.5288              1022.3952
 Red. masses --      1.2720                 2.2259                 1.6285
 Frc consts  --      0.7348                 1.3287                 1.0029
 IR Inten    --      1.7441                 3.8584                 6.1100

                     40                     41                     42
                      A                      A                      A
 Frequencies --   1035.4486              1050.9721              1074.3131
 Red. masses --      2.0676                 2.0362                 1.4818
 Frc consts  --      1.3061                 1.3251                 1.0077
 IR Inten    --      0.6311                 0.3520                10.4415

                     43                     44                     45
                      A                      A                      A
 Frequencies --   1084.1953              1098.1893              1106.3645
 Red. masses --      1.6952                 1.6040                 1.6748
 Frc consts  --      1.1740                 1.1397                 1.2079
 IR Inten    --     12.8828                 0.7177                12.3045

                     46                     47                     48
                      A                      A                      A
 Frequencies --   1127.7774              1181.7105              1192.9682
 Red. masses --      2.1887                 1.7640                 1.8590
 Frc consts  --      1.6402                 1.4514                 1.5588
 IR Inten    --      3.0490                 0.0900                 5.6605

                     49                     50                     51
                      A                      A                      A
 Frequencies --   1211.5619              1275.3994              1283.9052
 Red. masses --      1.8511                 1.6267                 1.8009
 Frc consts  --      1.6009                 1.5590                 1.7490
 IR Inten    --      2.2900                 5.8255                 5.6204

                     52                     53                     54
                      A                      A                      A
 Frequencies --   1309.1519              1318.2045              1332.7022
 Red. masses --      1.5942                 1.7625                 1.6724
 Frc consts  --      1.6098                 1.8045                 1.7501
 IR Inten    --      6.1337                 7.0034                 9.4075

                     55                     56                     57
                      A                      A                      A
 Frequencies --   1345.9058              1371.8188              1375.9832
 Red. masses --      1.2535                 3.5208                 1.5770
 Frc consts  --      1.3378                 3.9038                 1.7592
 IR Inten    --      5.7031                 2.3470                 5.7642

                     58                     59                     60
                      A                      A                      A
 Frequencies --   1398.4483              1408.6916              1437.8050
 Red. masses --      1.5302                 1.4082                 1.2234
 Frc consts  --      1.7632                 1.6465                 1.4901
 IR Inten    --      3.9953                 2.3775                 1.4278

                     61                     62                     63
                      A                      A                      A
 Frequencies --   1440.2275              1441.8089              1443.0699
 Red. masses --      1.2245                 1.2414                 1.2566
 Frc consts  --      1.4965                 1.5205                 1.5418
 IR Inten    --      0.9274                 4.1743                 4.2508

                     64                     65                     66
                      A                      A                      A
 Frequencies --   1475.8621              1513.2943              1517.3938
 Red. masses --      2.7248                 1.3922                 1.1147
 Frc consts  --      3.4968                 1.8785                 1.5122
 IR Inten    --      2.6417                36.9410                 8.4832

                     67                     68                     69
                      A                      A                      A
 Frequencies --   1517.8468              1523.6369              1525.6727
 Red. masses --      1.0671                 1.0409                 1.0603
 Frc consts  --      1.4485                 1.4237                 1.4542
 IR Inten    --     10.9717                 7.6861                 0.5112

                     70                     71                     72
                      A                      A                      A
 Frequencies --   1527.2444              1530.0847              1531.5473
 Red. masses --      1.0448                 1.0535                 1.1737
 Frc consts  --      1.4358                 1.4532                 1.6221
 IR Inten    --      2.8809                 6.6893                 4.6598

                     73                     74                     75
                      A                      A                      A
 Frequencies --   1536.4117              1539.2241              1543.7916
 Red. masses --      1.1215                 1.3142                 1.2415
 Frc consts  --      1.5598                 1.8345                 1.7433
 IR Inten    --     10.0776                 8.3155                20.3312

                     76                     77                     78
                      A                      A                      A
 Frequencies --   1645.3092              1671.7227              1706.7142
 Red. masses --      6.1372                 4.2937                 1.2039
 Frc consts  --      9.7885                 7.0698                 2.0661
 IR Inten    --      0.3141                 1.5201                61.9120

                     79                     80                     81
                      A                      A                      A
 Frequencies --   3025.3788              3034.1138              3037.7092
 Red. masses --      1.0838                 1.0413                 1.0648
 Frc consts  --      5.8449                 5.6478                 5.7894
 IR Inten    --      8.5676                54.8649                32.1430

                     82                     83                     84
                      A                      A                      A
 Frequencies --   3041.2155              3044.9484              3046.3519
 Red. masses --      1.0642                 1.0362                 1.0375
 Frc consts  --      5.7993                 5.6605                 5.6730
 IR Inten    --     28.8831                25.3197                64.2264

                     85                     86                     87
                      A                      A                      A
 Frequencies --   3047.7067              3080.0699              3087.4815
 Red. masses --      1.0389                 1.0986                 1.0942
 Frc consts  --      5.6853                 6.1409                 6.1457
 IR Inten    --     13.9325                 5.3423                 7.4054

                     88                     89                     90
                      A                      A                      A
 Frequencies --   3089.3439              3104.0348              3109.2188
 Red. masses --      1.0948                 1.1004                 1.1014
 Frc consts  --      6.1565                 6.2466                 6.2732
 IR Inten    --     26.1155                51.9171                54.4755

                     91                     92                     93
                      A                      A                      A
 Frequencies --   3112.2311              3117.1112              3123.2087
 Red. masses --      1.1005                 1.1023                 1.1022
 Frc consts  --      6.2802                 6.3103                 6.3345
 IR Inten    --     51.6207                19.1623                15.3221

                     94                     95                     96
                      A                      A                      A
 Frequencies --   3123.6882              3130.7500              3160.5732
 Red. masses --      1.1028                 1.1016                 1.0894
 Frc consts  --      6.3400                 6.3619                 6.4115
 IR Inten    --     44.9822                43.1242                33.0327

                     97                     98                     99
                      A                      A                      A
 Frequencies --   3163.3928              3582.4079              3678.3497
 Red. masses --      1.0894                 1.0490                 1.0951
 Frc consts  --      6.4229                 7.9320                 8.7299
 IR Inten    --     16.2120                 5.0784                15.8355

 - Thermochemistry -
 -------------------
 Temperature   298.150 Kelvin.  Pressure   1.00000 Atm.
 Atom     1 has atomic number  6 and mass  12.00000

 Molecular mass:   191.16740 amu.
 Principal axes and moments of inertia in atomic units:
                           1         2         3
     Eigenvalues --  2276.963503384.396874588.61276
           X            0.99994   0.01082  -0.00259
           Y           -0.01084   0.99988  -0.01072
           Z            0.00247   0.01075   0.99994
 This molecule is an asymmetric top.
 Rotational symmetry number  1.
 Warning -- assumption of classical behavior for rotation
           may cause significant error
 Rotational temperatures (Kelvin)      0.03804     0.02559     0.01888
 Rotational constants (GHZ):           0.79261     0.53325     0.39331
 Zero-point vibrational energy     830503.6 (Joules/Mol)
                                  198.49512 (Kcal/Mol)
 Warning -- explicit consideration of  24 degrees of freedom as
           vibrations may cause significant error
 Vibrational temperatures:     41.61    57.24    90.22   119.94   145.16
          (Kelvin)            201.97   247.28   260.54   283.13   311.63
                              319.80   357.84   388.27   414.41   437.51
                              459.43   541.49   561.92   608.76   645.99
                              684.95   714.52   801.48   848.03   895.32
                              916.28   973.50  1113.56  1124.63  1158.84
                             1183.30  1213.80  1269.57  1292.74  1307.69
                             1371.31  1424.69  1448.17  1471.00  1489.78
                             1512.11  1545.70  1559.92  1580.05  1591.81
                             1622.62  1700.22  1716.42  1743.17  1835.02
                             1847.25  1883.58  1896.60  1917.46  1936.46
                             1973.74  1979.73  2012.06  2026.79  2068.68
                             2072.17  2074.44  2076.26  2123.44  2177.29
                             2183.19  2183.84  2192.17  2195.10  2197.36
                             2201.45  2203.55  2210.55  2214.60  2221.17
                             2367.23  2405.24  2455.58  4352.85  4365.41
                             4370.59  4375.63  4381.00  4383.02  4384.97
                             4431.53  4442.20  4444.88  4466.01  4473.47
                             4477.81  4484.83  4493.60  4494.29  4504.45
                             4547.36  4551.42  5154.29  5292.32

 Zero-point correction=                           0.316322 (Hartree/Particle)
 Thermal correction to Energy=                    0.332438
 Thermal correction to Enthalpy=                  0.333382
 Thermal correction to Gibbs Free Energy=         0.272730
 Sum of electronic and zero-point Energies=           -562.550773
 Sum of electronic and thermal Energies=              -562.534657
 Sum of electronic and thermal Enthalpies=            -562.533713
 Sum of electronic and thermal Free Energies=         -562.594365

                     E (Thermal)             CV                S
                      KCal/Mol        Cal/Mol-Kelvin    Cal/Mol-Kelvin
 Total                  208.608             60.361            127.652
 Electronic               0.000              0.000              0.000
 Translational            0.889              2.981             41.650
 Rotational               0.889              2.981             31.936
 Vibrational            206.830             54.399             54.066
 Vibration     1          0.593              1.984              5.902
 Vibration     2          0.594              1.981              5.270
 Vibration     3          0.597              1.972              4.370
 Vibration     4          0.600              1.961              3.810
 Vibration     5          0.604              1.948              3.437
 Vibration     6          0.615              1.913              2.799
 Vibration     7          0.626              1.877              2.415
 Vibration     8          0.630              1.865              2.317
 Vibration     9          0.636              1.844              2.163
 Vibration    10          0.645              1.816              1.987
 Vibration    11          0.648              1.807              1.940
 Vibration    12          0.662              1.765              1.740
 Vibration    13          0.674              1.729              1.597
 Vibration    14          0.685              1.696              1.486
 Vibration    15          0.695              1.666              1.394
 Vibration    16          0.705              1.637              1.314
 Vibration    17          0.747              1.520              1.054
 Vibration    18          0.758              1.490              0.998
 Vibration    19          0.785              1.420              0.881
 Vibration    20          0.808              1.363              0.799
 Vibration    21          0.833              1.303              0.721
 Vibration    22          0.852              1.258              0.667
 Vibration    23          0.913              1.124              0.530
 Vibration    24          0.947              1.054              0.468

                           ! Non-Optimized Parameters !
 Normal termination of Gaussian 16 at Thu Dec 10 09:37:33 2020.

 ----------------------------------------------------------------------
 # B3LYP/6-311++G(d,p) empiricaldispersion=gd3bj scf=xqc pop=npa geom=c
 heck
 ----------------------------------------------------------------------

 ---------------------------------------
 CID_129933287_JID_4398_Energie_neutraal
 ---------------------------------------
 Structure from the checkpoint file:  "JID_4398.chk"
 Charge =  0 Multiplicity = 1

 SCF Done:  E(RB3LYP) =  -563.022354875     A.U. after   14 cycles
 Normal termination of Gaussian 16 at Thu Dec 10 09:43:04 2020.

 ----------------------------------------------------------------------
 # B3LYP/6-311++G(d,p) empiricaldispersion=gd3bj scf=xqc pop=npa geom=c
 heck
 ----------------------------------------------------------------------

 -------------------------------------
 CID_129933287_JID_4398_Energie_kation
 -------------------------------------
 Structure from the checkpoint file:  "JID_4398.chk"
 Charge =  1 Multiplicity = 2

 SCF Done:  E(UB3LYP) =  -562.758357601     A.U. after   20 cycles
 Normal termination of Gaussian 16 at Thu Dec 10 09:54:01 2020.
 Gaussian 16:  ES64L-G16RevA.03 25-Dec-2016

 ----------------------------------------------------------------------
 # B3LYP/6-311++G(d,p) empiricaldispersion=gd3bj scf=xqc pop=npa geom=c
 heck
 ----------------------------------------------------------------------

 ------------------------------------
 CID_129933287_JID_4398_Energie_anion
 ------------------------------------
 Structure from the checkpoint file:  "JID_4398.chk"
 Charge = -1 Multiplicity = 2

                         Standard orientation:
 ---------------------------------------------------------------------
 Center     Atomic      Atomic             Coordinates (Angstroms)
 Number     Number       Type             X           Y           Z
 ---------------------------------------------------------------------
      1          6           0       -3.148811   -2.158947    0.465845
      2          6           0       -2.564209   -1.410541   -0.746443
      3          6           0       -1.556288   -0.350291   -0.358990
      4          6           0       -0.216204   -0.693668   -0.072418
      5          6           0        0.700192    0.315598    0.301082
      6          6           0        0.237783    1.632355    0.389704
      7          6           0       -1.082188    1.997260    0.121680
      8          6           0       -1.960890    0.979947   -0.253059
      9          6           0       -1.530297    3.436613    0.195849
     10          6           0        2.169693    0.051924    0.613632
     11          6           0        2.375961   -0.738624    1.920515
     12          6           0        2.968489   -0.550295   -0.564087
     13          6           0        2.857671    0.274913   -1.847183
     14          7           0        0.194192   -2.030708   -0.238894
     15          1           0       -2.367650   -2.647806    1.060713
     16          1           0       -3.863555   -2.928068    0.151623
     17          1           0       -3.666037   -1.459580    1.131031
     18          1           0       -2.112600   -2.126954   -1.445432
     19          1           0       -3.386001   -0.934870   -1.293513
     20          1           0        0.947057    2.405164    0.680292
     21          1           0       -2.998536    1.224536   -0.474664
     22          1           0       -1.452275    3.936054   -0.779545
     23          1           0       -2.575478    3.514975    0.515368
     24          1           0       -0.919344    4.009119    0.902176
     25          1           0        2.611979    1.041170    0.792871
     26          1           0        1.992741   -1.764812    1.870622
     27          1           0        3.443223   -0.806258    2.161715
     28          1           0        1.865316   -0.244421    2.753245
     29          1           0        4.020420   -0.616707   -0.254239
     30          1           0        2.643972   -1.575778   -0.772236
     31          1           0        3.179332    1.310309   -1.679453
     32          1           0        3.482416   -0.146825   -2.642230
     33          1           0        1.823922    0.303137   -2.205282
     34          1           0       -0.542603   -2.708502   -0.096773
     35          1           0        1.008943   -2.286385    0.299211
 ---------------------------------------------------------------------

 SCF Done:  E(UB3LYP) =  -563.007494541     A.U. after   33 cycles
 SCF Done:  E(UB3LYP) =  -563.007494541     a.u. after    1 cycles

 The electronic state is 2-A.
 Alpha  occ. eigenvalues --  -14.20857 -10.10380 -10.07917 -10.07293 -10.07030
 Alpha  occ. eigenvalues --  -10.07000 -10.06956 -10.06925 -10.06651 -10.06251
 Alpha  occ. eigenvalues --  -10.06205 -10.06103 -10.06015 -10.05812  -0.81574
 Alpha  occ. eigenvalues --   -0.74381  -0.71359  -0.68344  -0.65173  -0.63142
 Alpha  occ. eigenvalues --   -0.61544  -0.57616  -0.53889  -0.53264  -0.50723
 Alpha  occ. eigenvalues --   -0.47223  -0.45674  -0.41346  -0.40227  -0.37130
 Alpha  occ. eigenvalues --   -0.34858  -0.34469  -0.33731  -0.33232  -0.32428
 Alpha  occ. eigenvalues --   -0.32289  -0.32085  -0.31472  -0.29650  -0.28904
 Alpha  occ. eigenvalues --   -0.28234  -0.27084  -0.26964  -0.25872  -0.25374
 Alpha  occ. eigenvalues --   -0.24452  -0.23576  -0.23150  -0.22165  -0.21495
 Alpha  occ. eigenvalues --   -0.19983  -0.13813  -0.09997   0.04469
 Alpha virt. eigenvalues --    0.06352   0.06565   0.07528   0.08265   0.08659
 Alpha virt. eigenvalues --    0.08950   0.09220   0.09679   0.09835   0.10497
 Alpha virt. eigenvalues --    0.10897   0.11232   0.12087   0.12138   0.12488

  Beta  occ. eigenvalues --  -14.20812 -10.10362 -10.07909 -10.07281 -10.07015
  Beta  occ. eigenvalues --  -10.07004 -10.06954 -10.06922 -10.06634 -10.06242
  Beta  occ. eigenvalues --  -10.06192 -10.06095 -10.05977 -10.05761  -0.81520
  Beta  occ. eigenvalues --   -0.74351  -0.71336  -0.68309  -0.65145  -0.63104
  Beta  occ. eigenvalues --   -0.61502  -0.57569  -0.53830  -0.53183  -0.50685
  Beta  occ. eigenvalues --   -0.47174  -0.45627  -0.41300  -0.40179  -0.37104
  Beta  occ. eigenvalues --   -0.34827  -0.34433  -0.33699  -0.33193  -0.32402
  Beta  occ. eigenvalues --   -0.32260  -0.32050  -0.31444  -0.29600  -0.28877
  Beta  occ. eigenvalues --   -0.28199  -0.27039  -0.26931  -0.25834  -0.25333
  Beta  occ. eigenvalues --   -0.24423  -0.23541  -0.23113  -0.22132  -0.21474
  Beta  occ. eigenvalues --   -0.19938  -0.13781  -0.09940
  Beta virt. eigenvalues --    0.06407   0.07099   0.07276   0.07816   0.08774
  Beta virt. eigenvalues --    0.09042   0.09109   0.09318   0.10037   0.10148
  Beta virt. eigenvalues --    0.10922   0.10997   0.11574   0.12287   0.12430

 Mulliken charges and spin densities:
               1          2
     1  C    1.254763  -1.855054
     2  C   -0.981463   0.547123
     3  C    0.281307   0.265996
     4  C    0.183144  -0.073571
     5  C    1.233671  -0.587316
     6  C   -0.659694   0.017367
     7  C    0.097083   0.106185
     8  C    0.057231  -0.707287
     9  C    0.692146  -1.169048
    10  C   -1.520392   1.400253
    11  C    1.040185  -1.693382
    12  C   -0.016646  -0.079315
    13  C   -0.389280  -0.306926
    14  N   -0.452076   0.117556
    15  H   -0.340667   0.476142
    16  H   -0.489790   0.624234
    17  H   -0.135476   0.277499
    18  H   -0.114479   0.283170
    19  H   -0.137288   0.285858
    20  H    0.127244   0.003539
    21  H   -0.001232   0.139558
    22  H    0.084125   0.072292
    23  H   -0.003353   0.140001
    24  H   -0.069406   0.212096
    25  H   -0.195897   0.347286
    26  H   -0.388275   0.521382
    27  H   -0.332447   0.476782
    28  H   -0.043500   0.200845
    29  H   -0.175566   0.335347
    30  H   -0.018068   0.135801
    31  H    0.064495   0.063494
    32  H    0.013339   0.117188
    33  H    0.141754   0.010810
    34  H    0.010286   0.251495
    35  H    0.184220   0.042601
 Sum of Mulliken charges =  -1.00000   1.00000

 Dipole moment (field-independent basis, Debye):
    X=              1.0182    Y=              5.0288    Z=             -2.6580  Tot=              5.7784
 Quadrupole moment (field-independent basis, Debye-Ang):
   XX=           -156.8779   YY=           -143.0904   ZZ=           -124.4658
   XY=             -8.1700   XZ=             -4.4081   YZ=              2.2689

 Summary of Natural Population Analysis:

                                       Natural Population
                Natural  -----------------------------------------------
    Atom  No    Charge         Core      Valence    Rydberg      Total
 -----------------------------------------------------------------------
      C    1   -0.28129      0.99966     2.27676    0.00487     3.28129
      C    2   -0.20183      0.99961     2.19232    0.00989     3.20183
      C    3   -0.02732      0.99948     2.01728    0.01056     3.02732
      C    4    0.08632      0.99939     1.90273    0.01157     2.91368
      C    5   -0.03037      0.99946     2.01912    0.01178     3.03037
      C    6   -0.09297      0.99948     2.08472    0.00877     3.09297
      C    7   -0.03348      0.99951     2.02590    0.00807     3.03348
      C    8   -0.09563      0.99947     2.08732    0.00884     3.09563
      C    9   -0.28829      0.99964     2.28386    0.00479     3.28829
      C   10   -0.11823      0.99958     2.10668    0.01198     3.11823
      C   11   -0.27803      0.99964     2.27284    0.00555     3.27803
      C   12   -0.18705      0.99962     2.17949    0.00794     3.18705
      C   13   -0.28455      0.99966     2.28066    0.00423     3.28455
      N   14   -0.40075      0.99972     2.89105    0.00998     3.90075
      H   15    0.09645      0.00000     0.40173    0.00182     0.40355
      H   16    0.09917      0.00000     0.39896    0.00186     0.40083
      H   17    0.09821      0.00000     0.40055    0.00124     0.40179
      H   18    0.10086      0.00000     0.39763    0.00151     0.39914
      H   19    0.09988      0.00000     0.39895    0.00118     0.40012
      H   20    0.09444      0.00000     0.40434    0.00123     0.40556
      H   21    0.09516      0.00000     0.40382    0.00102     0.40484
      H   22    0.09855      0.00000     0.40014    0.00131     0.40145
      H   23    0.10009      0.00000     0.39885    0.00105     0.39991
      H   24    0.10036      0.00000     0.39860    0.00104     0.39964
      H   25    0.09627      0.00000     0.40176    0.00197     0.40373
      H   26    0.09282      0.00000     0.40546    0.00172     0.40718
      H   27    0.09926      0.00000     0.39940    0.00134     0.40074
      H   28    0.10280      0.00000     0.39614    0.00106     0.39720
      H   29    0.09455      0.00000     0.40427    0.00118     0.40545
      H   30    0.09692      0.00000     0.40148    0.00160     0.40308
      H   31    0.09335      0.00000     0.40567    0.00098     0.40665
      H   32    0.09541      0.00000     0.40383    0.00076     0.40459
      H   33    0.10300      0.00000     0.39604    0.00096     0.39700
      H   34    0.18918      0.00000     0.30847    0.00235     0.31082
      H   35    0.18676      0.00000     0.31092    0.00232     0.31324
 =======================================================================
   * Total *   -0.00000     13.99391    38.85776    0.14833    53.00000

 Normal termination of Gaussian 16 at Thu Dec 10 10:12:24 2020.
