 Gaussian 16, Revision A.03,

 -----------------------------------------------------------
 # opt freq B3LYP/6-31G(d) empiricaldispersion=gd3bj scf=xqc
 -----------------------------------------------------------

 -------------------------------
 CID_114465205_JID_5450_neutraal
 -------------------------------
 Symbolic Z-matrix:
 Charge =  0 Multiplicity = 1

 SCF Done:  E(RB3LYP) =  -1139.04382957     A.U. after   14 cycles
 SCF Done:  E(RB3LYP) =  -1139.05687836     A.U. after   13 cycles
 SCF Done:  E(RB3LYP) =  -1139.05923478     A.U. after   12 cycles
 SCF Done:  E(RB3LYP) =  -1139.06005225     A.U. after   12 cycles
 SCF Done:  E(RB3LYP) =  -1139.06021404     A.U. after   12 cycles
 SCF Done:  E(RB3LYP) =  -1139.06078691     A.U. after   12 cycles
 SCF Done:  E(RB3LYP) =  -1139.06097775     A.U. after   11 cycles
 SCF Done:  E(RB3LYP) =  -1139.06109422     A.U. after   12 cycles
 SCF Done:  E(RB3LYP) =  -1139.06125327     A.U. after   11 cycles
 SCF Done:  E(RB3LYP) =  -1139.06141754     A.U. after   11 cycles
 SCF Done:  E(RB3LYP) =  -1139.06164658     A.U. after    8 cycles
 SCF Done:  E(RB3LYP) =  -1139.06164677     A.U. after    8 cycles
 SCF Done:  E(RB3LYP) =  -1139.06164697     A.U. after    8 cycles
 SCF Done:  E(RB3LYP) =  -1139.06164703     A.U. after    8 cycles
 SCF Done:  E(RB3LYP) =  -1139.06164705     A.U. after    7 cycles
 SCF Done:  E(RB3LYP) =  -1139.06164705     A.U. after    7 cycles
 Optimization completed.
    -- Stationary point found.
 Normal termination of Gaussian 16 at Thu Dec 10 16:25:20 2020.

 --------------------------------------------------------------------
 #N Geom=AllCheck Guess=TCheck SCRF=Check GenChk RB3LYP/6-31G(d) Freq
 --------------------------------------------------------------------

 Structure from the checkpoint file:  "JID_5450.chk"
 -------------------------------
 CID_114465205_JID_5450_neutraal
 -------------------------------
 Charge =  0 Multiplicity = 1

 SCF Done:  E(RB3LYP) =  -1139.06164705     A.U. after    1 cycles

  Exact polarizability: 138.831  -1.245 113.185  -1.911  -0.216 101.106
 Approx polarizability: 174.221  -2.482 173.759  -3.414  -0.329 153.117

                      1                      2                      3
                      A                      A                      A
 Frequencies --     18.9191                35.4775                47.5297
 Red. masses --      5.2028                 5.5075                 4.5763
 Frc consts  --      0.0011                 0.0041                 0.0061
 IR Inten    --      0.1296                 1.1061                 1.4080

                      4                      5                      6
                      A                      A                      A
 Frequencies --     60.1022                91.7626               101.9579
 Red. masses --      5.5026                 3.3799                 3.1468
 Frc consts  --      0.0117                 0.0168                 0.0193
 IR Inten    --      1.2087                 0.1214                 1.3593

                      7                      8                      9
                      A                      A                      A
 Frequencies --    111.6528               121.8125               163.9279
 Red. masses --      3.3604                 1.3346                 4.3807
 Frc consts  --      0.0247                 0.0117                 0.0694
 IR Inten    --      1.4264                 0.0080                 1.6845

                     10                     11                     12
                      A                      A                      A
 Frequencies --    186.0408               205.5985               238.1197
 Red. masses --      4.3625                 2.3843                 4.0161
 Frc consts  --      0.0890                 0.0594                 0.1342
 IR Inten    --      2.2145                20.9961                 1.1720

                     13                     14                     15
                      A                      A                      A
 Frequencies --    259.5778               277.2681               297.5368
 Red. masses --      1.4350                 3.1735                 1.9396
 Frc consts  --      0.0570                 0.1437                 0.1012
 IR Inten    --     29.7918                17.4395                11.4049

                     16                     17                     18
                      A                      A                      A
 Frequencies --    304.2388               328.1785               354.2088
 Red. masses --      3.2481                 4.0472                 4.0593
 Frc consts  --      0.1771                 0.2568                 0.3001
 IR Inten    --     11.9817                18.4175                 4.2349

                     19                     20                     21
                      A                      A                      A
 Frequencies --    379.7647               395.5929               443.6254
 Red. masses --      7.8569                 2.6545                 3.9196
 Frc consts  --      0.6676                 0.2448                 0.4545
 IR Inten    --      3.9879                48.3487                22.1116

                     22                     23                     24
                      A                      A                      A
 Frequencies --    504.5378               522.7160               529.0843
 Red. masses --      1.3185                 2.2248                 3.2922
 Frc consts  --      0.1978                 0.3582                 0.5430
 IR Inten    --     93.4062                11.0955                15.9168

                     25                     26                     27
                      A                      A                      A
 Frequencies --    575.5811               617.0034               715.6549
 Red. masses --      9.6093                 3.6363                 5.3958
 Frc consts  --      1.8757                 0.8156                 1.6282
 IR Inten    --    168.1800                14.0290                 7.4852

                     28                     29                     30
                      A                      A                      A
 Frequencies --    732.9133               762.0662               787.4424
 Red. masses --      2.1321                10.5552                 4.5142
 Frc consts  --      0.6748                 3.6116                 1.6492
 IR Inten    --      9.1190                24.7463                21.7227

                     31                     32                     33
                      A                      A                      A
 Frequencies --    812.4211               836.1467               845.8786
 Red. masses --      1.1203                 1.3873                 3.2816
 Frc consts  --      0.4357                 0.5715                 1.3834
 IR Inten    --      3.7638                34.0345               201.5980

                     34                     35                     36
                      A                      A                      A
 Frequencies --    892.4482               922.3961               938.1853
 Red. masses --      1.7830                 2.4310                 3.6105
 Frc consts  --      0.8367                 1.2186                 1.8724
 IR Inten    --    156.3188                 2.1712                12.5093

                     37                     38                     39
                      A                      A                      A
 Frequencies --    953.4269               988.4427              1062.6969
 Red. masses --      3.6316                 1.8336                 1.4853
 Frc consts  --      1.9450                 1.0555                 0.9883
 IR Inten    --    201.2539                44.3024                33.7277

                     40                     41                     42
                      A                      A                      A
 Frequencies --   1071.8340              1083.8874              1091.8811
 Red. masses --      1.6825                 2.1900                 1.3714
 Frc consts  --      1.1388                 1.5159                 0.9633
 IR Inten    --      3.4317                 3.1378                 3.3575

                     43                     44                     45
                      A                      A                      A
 Frequencies --   1111.5494              1115.6134              1134.0040
 Red. masses --      4.7469                 3.5502                10.8366
 Frc consts  --      3.4556                 2.6034                 8.2105
 IR Inten    --     96.8499                66.2824               179.1741

                     46                     47                     48
                      A                      A                      A
 Frequencies --   1152.1994              1189.3491              1192.5758
 Red. masses --      1.1328                 1.2642                 1.9390
 Frc consts  --      0.8860                 1.0536                 1.6248
 IR Inten    --      2.2246                 0.8822                 3.3414

                     49                     50                     51
                      A                      A                      A
 Frequencies --   1211.4928              1218.4426              1226.2785
 Red. masses --      1.3883                 1.4816                 1.4992
 Frc consts  --      1.2005                 1.2960                 1.3283
 IR Inten    --      0.0385                 2.6941                18.7730

                     52                     53                     54
                      A                      A                      A
 Frequencies --   1255.8335              1281.6766              1333.3252
 Red. masses --      1.7832                 1.3910                 4.9378
 Frc consts  --      1.6570                 1.3463                 5.1720
 IR Inten    --      1.3457                12.5830               143.4531

                     55                     56                     57
                      A                      A                      A
 Frequencies --   1362.4996              1375.8934              1396.5086
 Red. masses --      3.3445                 1.3366                 1.5058
 Frc consts  --      3.6581                 1.4908                 1.7302
 IR Inten    --    439.9393                34.0765                55.7530

                     58                     59                     60
                      A                      A                      A
 Frequencies --   1397.7202              1410.8432              1450.2991
 Red. masses --      1.5891                 1.3016                 1.4616
 Frc consts  --      1.8291                 1.5265                 1.8113
 IR Inten    --      6.3632                48.3704                38.7047

                     61                     62                     63
                      A                      A                      A
 Frequencies --   1461.7603              1499.7672              1501.3337
 Red. masses --      1.4042                 1.2444                 1.0952
 Frc consts  --      1.7677                 1.6491                 1.4544
 IR Inten    --     65.3543                55.3175                 7.3576

                     64                     65                     66
                      A                      A                      A
 Frequencies --   1512.4964              1513.0767              1526.4436
 Red. masses --      1.0850                 1.0493                 1.0531
 Frc consts  --      1.4624                 1.4153                 1.4457
 IR Inten    --     11.4414                 5.2015                 6.5579

                     67                     68                     69
                      A                      A                      A
 Frequencies --   1544.7101              1697.5791              1841.8716
 Red. masses --      1.3159                 1.0897                 9.9903
 Frc consts  --      1.8500                 1.8501                19.9686
 IR Inten    --      4.5280                20.2294               449.4335

                     70                     71                     72
                      A                      A                      A
 Frequencies --   3074.7235              3081.9990              3097.4156
 Red. masses --      1.0689                 1.0293                 1.0830
 Frc consts  --      5.9536                 5.7607                 6.1218
 IR Inten    --     13.8248                31.2873                12.0700

                     73                     74                     75
                      A                      A                      A
 Frequencies --   3130.8657              3142.0354              3144.6290
 Red. masses --      1.0872                 1.0580                 1.0970
 Frc consts  --      6.2790                 6.1542                 6.3915
 IR Inten    --     24.3910                13.3865                13.0407

                     76                     77                     78
                      A                      A                      A
 Frequencies --   3160.0803              3164.1560              3189.6146
 Red. masses --      1.1082                 1.0597                 1.1074
 Frc consts  --      6.5204                 6.2511                 6.6378
 IR Inten    --     16.8161                13.3210                12.9716

                     79                     80                     81
                      A                      A                      A
 Frequencies --   3215.4625              3248.5203              3454.5578
 Red. masses --      1.1158                 1.1128                 1.0509
 Frc consts  --      6.7973                 6.9190                 7.3890
 IR Inten    --     18.7547                10.7134                 1.5808

                     82                     83                     84
                      A                      A                      A
 Frequencies --   3546.0581              3614.9262              3628.2992
 Red. masses --      1.0908                 1.0774                 1.0769
 Frc consts  --      8.0817                 8.2951                 8.3528
 IR Inten    --      0.2244                87.9343                38.2711

 - Thermochemistry -
 -------------------
 Temperature   298.150 Kelvin.  Pressure   1.00000 Atm.
 Atom     1 has atomic number  6 and mass  12.00000

 Molecular mass:   237.07833 amu.
 Principal axes and moments of inertia in atomic units:
                           1         2         3
     Eigenvalues --  1850.675726156.527806388.85023
           X            0.99998  -0.00667  -0.00085
           Y            0.00667   0.99998   0.00021
           Z            0.00085  -0.00022   1.00000
 This molecule is an asymmetric top.
 Rotational symmetry number  1.
 Warning -- assumption of classical behavior for rotation
           may cause significant error
 Rotational temperatures (Kelvin)      0.04680     0.01407     0.01356
 Rotational constants (GHZ):           0.97518     0.29314     0.28248
 Zero-point vibrational energy     642861.3 (Joules/Mol)
                                  153.64755 (Kcal/Mol)
 Warning -- explicit consideration of  26 degrees of freedom as
           vibrations may cause significant error
 Vibrational temperatures:     27.22    51.04    68.38    86.47   132.03
          (Kelvin)            146.69   160.64   175.26   235.86   267.67
                              295.81   342.60   373.47   398.93   428.09
                              437.73   472.18   509.63   546.40   569.17
                              638.28   725.92   752.07   761.23   828.13
                              887.73  1029.67  1054.50  1096.44  1132.95
                             1168.89  1203.03  1217.03  1284.03  1327.12
                             1349.84  1371.77  1422.15  1528.98  1542.13
                             1559.47  1570.97  1599.27  1605.12  1631.58
                             1657.76  1711.21  1715.85  1743.07  1753.07
                             1764.34  1806.86  1844.05  1918.36  1960.33
                             1979.60  2009.26  2011.01  2029.89  2086.66
                             2103.15  2157.83  2160.08  2176.14  2176.98
                             2196.21  2222.49  2442.44  2650.04  4423.84
                             4434.31  4456.49  4504.62  4520.69  4524.42
                             4546.65  4552.51  4589.14  4626.33  4673.90
                             4970.34  5101.99  5201.07  5220.31

 Zero-point correction=                           0.244853 (Hartree/Particle)
 Thermal correction to Energy=                    0.261845
 Thermal correction to Enthalpy=                  0.262789
 Thermal correction to Gibbs Free Energy=         0.198280
 Sum of electronic and zero-point Energies=          -1138.816794
 Sum of electronic and thermal Energies=             -1138.799802
 Sum of electronic and thermal Enthalpies=           -1138.798858
 Sum of electronic and thermal Free Energies=        -1138.863367

                     E (Thermal)             CV                S
                      KCal/Mol        Cal/Mol-Kelvin    Cal/Mol-Kelvin
 Total                  164.310             60.986            135.771
 Electronic               0.000              0.000              0.000
 Translational            0.889              2.981             42.291
 Rotational               0.889              2.981             32.654
 Vibrational            162.533             55.024             60.826
 Vibration     1          0.593              1.986              6.745
 Vibration     2          0.594              1.982              5.497
 Vibration     3          0.595              1.979              4.918
 Vibration     4          0.597              1.973              4.454
 Vibration     5          0.602              1.955              3.622
 Vibration     6          0.604              1.948              3.417
 Vibration     7          0.607              1.940              3.240
 Vibration     8          0.609              1.931              3.071
 Vibration     9          0.623              1.887              2.504
 Vibration    10          0.632              1.859              2.267
 Vibration    11          0.640              1.832              2.082
 Vibration    12          0.656              1.782              1.817
 Vibration    13          0.668              1.747              1.665
 Vibration    14          0.678              1.715              1.550
 Vibration    15          0.691              1.678              1.431
 Vibration    16          0.695              1.666              1.393
 Vibration    17          0.711              1.619              1.269
 Vibration    18          0.730              1.567              1.147
 Vibration    19          0.750              1.513              1.040
 Vibration    20          0.762              1.480              0.979
 Vibration    21          0.803              1.375              0.815
 Vibration    22          0.860              1.240              0.647
 Vibration    23          0.878              1.200              0.604
 Vibration    24          0.884              1.186              0.589
 Vibration    25          0.932              1.084              0.494
 Vibration    26          0.977              0.996              0.421

                           ! Non-Optimized Parameters !
 Normal termination of Gaussian 16 at Thu Dec 10 16:35:03 2020.

 ----------------------------------------------------------------------
 # B3LYP/6-311++G(d,p) empiricaldispersion=gd3bj scf=xqc pop=npa geom=c
 heck
 ----------------------------------------------------------------------

 ---------------------------------------
 CID_114465205_JID_5450_Energie_neutraal
 ---------------------------------------
 Structure from the checkpoint file:  "JID_5450.chk"
 Charge =  0 Multiplicity = 1

 SCF Done:  E(RB3LYP) =  -1139.32279883     A.U. after   14 cycles
 Normal termination of Gaussian 16 at Thu Dec 10 16:39:55 2020.

 ----------------------------------------------------------------------
 # B3LYP/6-311++G(d,p) empiricaldispersion=gd3bj scf=xqc pop=npa geom=c
 heck
 ----------------------------------------------------------------------

 -------------------------------------
 CID_114465205_JID_5450_Energie_kation
 -------------------------------------
 Structure from the checkpoint file:  "JID_5450.chk"
 Charge =  1 Multiplicity = 2

 SCF Done:  E(UB3LYP) =  -1138.99440473     A.U. after   26 cycles
 Normal termination of Gaussian 16 at Thu Dec 10 16:52:41 2020.
 Gaussian 16:  ES64L-G16RevA.03 25-Dec-2016

 ----------------------------------------------------------------------
 # B3LYP/6-311++G(d,p) empiricaldispersion=gd3bj scf=xqc pop=npa geom=c
 heck
 ----------------------------------------------------------------------

 ------------------------------------
 CID_114465205_JID_5450_Energie_anion
 ------------------------------------
 Structure from the checkpoint file:  "JID_5450.chk"
 Charge = -1 Multiplicity = 2

                         Standard orientation:
 ---------------------------------------------------------------------
 Center     Atomic      Atomic             Coordinates (Angstroms)
 Number     Number       Type             X           Y           Z
 ---------------------------------------------------------------------
      1          6           0       -3.723312    1.792489    0.935260
      2          8           0       -2.660519    0.948722    0.463655
      3          6           0       -2.990161   -0.346500    0.335146
      4          8           0       -4.060067   -0.838874    0.618203
      5          7           0       -1.918563   -1.092371   -0.141375
      6         16           0       -0.508102   -0.506866   -0.902819
      7          8           0        0.168596   -1.749325   -1.260062
      8          8           0       -0.852573    0.511624   -1.885886
      9          7           0        0.283909    0.271079    0.306481
     10          6           0        1.276818   -0.396151    1.147851
     11          6           0        2.640786   -0.721584    0.510219
     12          6           0        3.402569    0.450853   -0.110352
     13          6           0        2.863030    1.404935   -1.147573
     14          6           0        3.159324    1.899376    0.250059
     15          7           0        3.405368   -1.382523    1.582319
     16          1           0       -3.300602    2.796483    0.963729
     17          1           0       -4.045632    1.479252    1.931096
     18          1           0       -4.573756    1.752262    0.250803
     19          1           0       -2.126725   -2.059623   -0.361285
     20          1           0        0.360035    1.263584    0.129334
     21          1           0        1.417158    0.247523    2.023115
     22          1           0        0.847796   -1.330995    1.513777
     23          1           0        2.464423   -1.471349   -0.267292
     24          1           0        4.450478    0.191085   -0.259171
     25          1           0        3.540026    1.708250   -1.941205
     26          1           0        1.833123    1.316917   -1.474078
     27          1           0        2.321998    2.137915    0.902001
     28          1           0        4.013617    2.553620    0.398772
     29          1           0        4.213773   -1.856123    1.183403
     30          1           0        3.781111   -0.669928    2.209185
 ---------------------------------------------------------------------

 SCF Done:  E(UB3LYP) =  -1139.31418999     A.U. after   32 cycles

 The electronic state is 2-A.
 Alpha  occ. eigenvalues --  -89.01536 -19.09504 -19.04972 -19.04802 -19.03555
 Alpha  occ. eigenvalues --  -14.28791 -14.26409 -14.20412 -10.25985 -10.14162
 Alpha  occ. eigenvalues --  -10.12458 -10.11283 -10.08606 -10.07942 -10.07911
 Alpha  occ. eigenvalues --   -8.07354  -6.03655  -6.03577  -6.03554  -1.06612
 Alpha  occ. eigenvalues --   -1.04252  -0.95493  -0.94667  -0.86354  -0.85038
 Alpha  occ. eigenvalues --   -0.80301  -0.75872  -0.66166  -0.65242  -0.59517
 Alpha  occ. eigenvalues --   -0.56000  -0.52677  -0.51164  -0.49174  -0.47901
 Alpha  occ. eigenvalues --   -0.45994  -0.44517  -0.42454  -0.41618  -0.41018
 Alpha  occ. eigenvalues --   -0.39541  -0.38953  -0.37819  -0.36761  -0.35840
 Alpha  occ. eigenvalues --   -0.33959  -0.33555  -0.32671  -0.30257  -0.29202
 Alpha  occ. eigenvalues --   -0.28364  -0.27949  -0.27446  -0.26360  -0.25576
 Alpha  occ. eigenvalues --   -0.24504  -0.23479  -0.22762  -0.21684  -0.21591
 Alpha  occ. eigenvalues --   -0.19977  -0.18335  -0.15591   0.03888
 Alpha virt. eigenvalues --    0.05517   0.07123   0.07261   0.07509   0.08759
 Alpha virt. eigenvalues --    0.08975   0.09309   0.10217   0.10666   0.10861
 Alpha virt. eigenvalues --    0.11312   0.11673   0.12376   0.12443   0.13624

  Beta  occ. eigenvalues --  -89.01535 -19.09499 -19.04965 -19.04799 -19.03549
  Beta  occ. eigenvalues --  -14.28783 -14.26393 -14.20380 -10.25985 -10.14115
  Beta  occ. eigenvalues --  -10.12435 -10.11281 -10.08593 -10.07917 -10.07885
  Beta  occ. eigenvalues --   -8.07352  -6.03654  -6.03576  -6.03552  -1.06597
  Beta  occ. eigenvalues --   -1.04242  -0.95482  -0.94654  -0.86335  -0.85015
  Beta  occ. eigenvalues --   -0.80256  -0.75838  -0.66122  -0.65189  -0.59485
  Beta  occ. eigenvalues --   -0.55954  -0.52631  -0.51096  -0.49140  -0.47850
  Beta  occ. eigenvalues --   -0.45979  -0.44500  -0.42420  -0.41596  -0.40979
  Beta  occ. eigenvalues --   -0.39520  -0.38908  -0.37787  -0.36718  -0.35794
  Beta  occ. eigenvalues --   -0.33929  -0.33510  -0.32640  -0.30226  -0.29172
  Beta  occ. eigenvalues --   -0.28344  -0.27925  -0.27410  -0.26348  -0.25555
  Beta  occ. eigenvalues --   -0.24494  -0.23461  -0.22750  -0.21671  -0.21563
  Beta  occ. eigenvalues --   -0.19948  -0.18315  -0.15561
  Beta virt. eigenvalues --    0.06244   0.06632   0.07348   0.07869   0.08100
  Beta virt. eigenvalues --    0.08988   0.09464   0.09760   0.10641   0.11066
  Beta virt. eigenvalues --    0.11301   0.11559   0.11862   0.12575   0.12664

 Mulliken charges and spin densities:
               1          2
     1  C    0.802202  -1.066567
     2  O   -0.233850   0.059989
     3  C    0.276536  -0.005228
     4  O   -0.298759   0.012410
     5  N   -0.656625  -0.003402
     6  S    0.719048  -0.076005
     7  O   -0.104538   0.002305
     8  O   -0.272853   0.014974
     9  N   -0.544019   0.164083
    10  C    0.421753  -1.006894
    11  C    0.637593  -1.239524
    12  C   -0.889065   1.206911
    13  C    0.338817  -0.837283
    14  C    0.712017  -1.082872
    15  N   -0.353691   0.105820
    16  H   -0.487188   0.648041
    17  H   -0.182992   0.370028
    18  H   -0.143986   0.319628
    19  H    0.296378   0.073210
    20  H    0.458435  -0.163058
    21  H   -0.491681   0.723137
    22  H    0.294813  -0.066406
    23  H    0.214399   0.012164
    24  H   -0.560922   0.816616
    25  H    0.102686   0.049408
    26  H   -0.021573   0.145570
    27  H   -0.374880   0.525464
    28  H   -0.661909   0.842909
    29  H   -0.038946   0.271493
    30  H    0.042799   0.183079
 Sum of Mulliken charges =  -1.00000   1.00000

 Dipole moment (field-independent basis, Debye):
    X=             -3.2893    Y=             -4.4290    Z=             -3.3558  Tot=              6.4574
 Quadrupole moment (field-independent basis, Debye-Ang):
   XX=           -187.9107   YY=           -143.2778   ZZ=           -136.6821
   XY=             -0.4853   XZ=             -3.7950   YZ=             -4.3766

 Summary of Natural Population Analysis:

                                       Natural Population
                Natural  -----------------------------------------------
    Atom  No    Charge         Core      Valence    Rydberg      Total
 -----------------------------------------------------------------------
      C    1   -0.10054      0.99959     2.09208    0.00886     3.10054
      O    2   -0.27454      0.99986     3.26581    0.00887     4.27454
      C    3    0.46625      0.99971     1.50905    0.02499     2.53375
      O    4   -0.31478      0.99987     3.30928    0.00564     4.31478
      N    5   -0.43844      0.99967     2.92843    0.01034     3.93844
      S    6    1.17609      4.99932     1.71745    0.10714     6.82391
      O    7   -0.45781      0.99990     3.45270    0.00521     4.45781
      O    8   -0.44757      0.99990     3.44217    0.00551     4.44757
      N    9   -0.43812      0.99973     2.92614    0.01225     3.93812
      C   10   -0.09543      0.99959     2.08013    0.01572     3.09543
      C   11   -0.02401      0.99957     2.01174    0.01270     3.02401
      C   12   -0.12435      0.99958     2.11083    0.01394     3.12435
      C   13   -0.19980      0.99961     2.19139    0.00881     3.19980
      C   14   -0.19985      0.99962     2.18989    0.01034     3.19985
      N   15   -0.42042      0.99977     2.91102    0.00963     3.92042
      H   16    0.09868      0.00000     0.39921    0.00211     0.40132
      H   17    0.09332      0.00000     0.40533    0.00135     0.40668
      H   18    0.09132      0.00000     0.40757    0.00111     0.40868
      H   19    0.21247      0.00000     0.28602    0.00151     0.28753
      H   20    0.21127      0.00000     0.28589    0.00283     0.28873
      H   21    0.10672      0.00000     0.39185    0.00144     0.39328
      H   22    0.10887      0.00000     0.38975    0.00138     0.39113
      H   23    0.10198      0.00000     0.39658    0.00144     0.39802
      H   24    0.10497      0.00000     0.39327    0.00176     0.39503
      H   25    0.10149      0.00000     0.39771    0.00080     0.39851
      H   26    0.10314      0.00000     0.39544    0.00142     0.39686
      H   27    0.09967      0.00000     0.39843    0.00190     0.40033
      H   28    0.10730      0.00000     0.39062    0.00207     0.39270
      H   29    0.17683      0.00000     0.32144    0.00173     0.32317
      H   30    0.17530      0.00000     0.32233    0.00238     0.32470
 =======================================================================
   * Total *   -0.00000     18.99530    43.71952    0.28519    63.00000

 Normal termination of Gaussian 16 at Thu Dec 10 17:07:18 2020.
