 Gaussian 16, Revision A.03,

 -----------------------------------------------------------
 # opt freq B3LYP/6-31G(d) empiricaldispersion=gd3bj scf=xqc
 -----------------------------------------------------------

 -------------------------------
 CID_154161246_JID_3495_neutraal
 -------------------------------
 Symbolic Z-matrix:
 Charge =  0 Multiplicity = 1

 SCF Done:  E(RB3LYP) =  -1028.40378853     A.U. after   14 cycles
 SCF Done:  E(RB3LYP) =  -1028.40984648     A.U. after   13 cycles
 SCF Done:  E(RB3LYP) =  -1028.41096039     A.U. after   12 cycles
 SCF Done:  E(RB3LYP) =  -1028.40850890     A.U. after   13 cycles
 SCF Done:  E(RB3LYP) =  -1028.40931396     A.U. after   13 cycles
 SCF Done:  E(RB3LYP) =  -1028.41139877     A.U. after   10 cycles
 SCF Done:  E(RB3LYP) =  -1028.41173694     A.U. after   11 cycles
 SCF Done:  E(RB3LYP) =  -1028.41186836     A.U. after   12 cycles
 SCF Done:  E(RB3LYP) =  -1028.41188715     A.U. after   11 cycles
 SCF Done:  E(RB3LYP) =  -1028.41190882     A.U. after   10 cycles
 SCF Done:  E(RB3LYP) =  -1028.41191336     A.U. after   10 cycles
 SCF Done:  E(RB3LYP) =  -1028.41191537     A.U. after    8 cycles
 SCF Done:  E(RB3LYP) =  -1028.41191574     A.U. after    7 cycles
 SCF Done:  E(RB3LYP) =  -1028.41191587     A.U. after    7 cycles
 Optimization completed.
    -- Stationary point found.
 Normal termination of Gaussian 16 at Wed Dec  9 23:27:52 2020.

 --------------------------------------------------------------------
 #N Geom=AllCheck Guess=TCheck SCRF=Check GenChk RB3LYP/6-31G(d) Freq
 --------------------------------------------------------------------

 Structure from the checkpoint file:  "JID_3495.chk"
 -------------------------------
 CID_154161246_JID_3495_neutraal
 -------------------------------
 Charge =  0 Multiplicity = 1

 SCF Done:  E(RB3LYP) =  -1028.41191587     A.U. after    1 cycles

  Exact polarizability: 123.811  -3.248 102.429  -8.340   0.718  85.695
 Approx polarizability: 167.128  -2.569 141.909 -15.305   4.219 141.082

                      1                      2                      3
                      A                      A                      A
 Frequencies --     44.4512                58.5311                82.0312
 Red. masses --      6.2342                 5.4474                 5.3584
 Frc consts  --      0.0073                 0.0110                 0.0212
 IR Inten    --      3.0120                 3.4221                 2.2725

                      4                      5                      6
                      A                      A                      A
 Frequencies --     92.6299               119.4047               173.1889
 Red. masses --      4.6457                 5.0112                 4.2191
 Frc consts  --      0.0235                 0.0421                 0.0746
 IR Inten    --      8.8378                 0.6155                 1.4343

                      7                      8                      9
                      A                      A                      A
 Frequencies --    199.7351               210.4208               228.9832
 Red. masses --      2.9887                 2.5947                 1.2478
 Frc consts  --      0.0702                 0.0677                 0.0385
 IR Inten    --      8.2269                 5.3691                 3.6795

                     10                     11                     12
                      A                      A                      A
 Frequencies --    262.1890               297.2983               320.5751
 Red. masses --      2.2430                 3.3019                 3.3740
 Frc consts  --      0.0908                 0.1719                 0.2043
 IR Inten    --      3.5420                 5.8794                 5.6388

                     13                     14                     15
                      A                      A                      A
 Frequencies --    339.9206               411.2242               456.0362
 Red. masses --      2.7915                 4.0754                 3.4236
 Frc consts  --      0.1900                 0.4060                 0.4195
 IR Inten    --      2.4601                 4.1065                22.1711

                     16                     17                     18
                      A                      A                      A
 Frequencies --    485.9981               489.7642               521.2386
 Red. masses --      3.6297                 3.2516                 5.0859
 Frc consts  --      0.5051                 0.4595                 0.8141
 IR Inten    --     38.5895                 2.5215                23.7547

                     19                     20                     21
                      A                      A                      A
 Frequencies --    547.4401               577.7936               685.9850
 Red. masses --      1.6991                 2.8860                 3.4591
 Frc consts  --      0.3000                 0.5677                 0.9591
 IR Inten    --     85.9884                19.2112                16.6076

                     22                     23                     24
                      A                      A                      A
 Frequencies --    690.8966               710.5485               773.2026
 Red. masses --      4.7460                 5.3814                 5.1857
 Frc consts  --      1.3348                 1.6008                 1.8266
 IR Inten    --     60.7595                 8.5205                47.2063

                     25                     26                     27
                      A                      A                      A
 Frequencies --    801.1299               868.3040               905.2714
 Red. masses --      3.2847                 2.0181                 2.0205
 Frc consts  --      1.2421                 0.8965                 0.9756
 IR Inten    --     39.3759                18.9177                45.9756

                     28                     29                     30
                      A                      A                      A
 Frequencies --    948.8816               961.2024               988.6375
 Red. masses --      2.6117                 2.4918                 1.6381
 Frc consts  --      1.3854                 1.3564                 0.9433
 IR Inten    --     45.5916                25.0008                41.8952

                     31                     32                     33
                      A                      A                      A
 Frequencies --   1015.8057              1031.0114              1046.5698
 Red. masses --      1.4576                 1.3997                 2.8637
 Frc consts  --      0.8861                 0.8767                 1.8480
 IR Inten    --     34.2171                48.5430                65.5405

                     34                     35                     36
                      A                      A                      A
 Frequencies --   1070.5296              1102.1395              1129.8369
 Red. masses --      2.1206                 2.5005                 2.5296
 Frc consts  --      1.4319                 1.7896                 1.9025
 IR Inten    --     17.3309                20.4220                18.9431

                     37                     38                     39
                      A                      A                      A
 Frequencies --   1143.2851              1155.8953              1211.9812
 Red. masses --      3.2087                 4.2140                 1.3117
 Frc consts  --      2.4711                 3.3173                 1.1352
 IR Inten    --     34.0883                92.5225                 9.8640

                     40                     41                     42
                      A                      A                      A
 Frequencies --   1237.8223              1261.5782              1276.4419
 Red. masses --      1.2677                 1.2383                 2.0158
 Frc consts  --      1.1444                 1.1612                 1.9350
 IR Inten    --      0.4475                30.2389               121.6826

                     43                     44                     45
                      A                      A                      A
 Frequencies --   1300.5486              1329.3658              1339.5439
 Red. masses --      1.2650                 7.0160                 1.1894
 Frc consts  --      1.2606                 7.3052                 1.2575
 IR Inten    --      2.6496               241.1421                 9.8721

                     46                     47                     48
                      A                      A                      A
 Frequencies --   1349.5172              1366.6134              1388.3280
 Red. masses --      1.4841                 1.3509                 1.2234
 Frc consts  --      1.5924                 1.4865                 1.3894
 IR Inten    --     30.3138                 7.0870                25.3817

                     49                     50                     51
                      A                      A                      A
 Frequencies --   1394.7870              1424.5738              1439.3906
 Red. masses --      1.6031                 1.5119                 1.2747
 Frc consts  --      1.8375                 1.8078                 1.5560
 IR Inten    --     10.0034                 3.6419                18.1944

                     52                     53                     54
                      A                      A                      A
 Frequencies --   1465.7787              1478.3880              1495.6931
 Red. masses --      2.0670                 1.0494                 1.0866
 Frc consts  --      2.6166                 1.3513                 1.4322
 IR Inten    --     45.6410                 1.3848                 4.3684

                     55                     56                     57
                      A                      A                      A
 Frequencies --   1505.2083              1524.6461              1525.6671
 Red. masses --      1.0498                 1.1108                 1.0865
 Frc consts  --      1.4013                 1.5213                 1.4900
 IR Inten    --      6.0550                 4.9783                 2.7317

                     58                     59                     60
                      A                      A                      A
 Frequencies --   1558.7343              1815.4888              3023.7997
 Red. masses --      1.0973                 9.8825                 1.0701
 Frc consts  --      1.5708                19.1913                 5.7646
 IR Inten    --      4.1109               422.1056                58.4547

                     61                     62                     63
                      A                      A                      A
 Frequencies --   3040.6552              3056.8348              3067.6635
 Red. masses --      1.0654                 1.0732                 1.0753
 Frc consts  --      5.8038                 5.9084                 5.9618
 IR Inten    --     13.9933                13.7691                12.5698

                     64                     65                     66
                      A                      A                      A
 Frequencies --   3081.2815              3089.2217              3096.5106
 Red. masses --      1.0615                 1.0286                 1.0946
 Frc consts  --      5.9381                 5.7833                 6.1835
 IR Inten    --     26.1126                21.4241                43.8810

                     67                     68                     69
                      A                      A                      A
 Frequencies --   3098.4456              3125.4114              3134.2727
 Red. masses --      1.0943                 1.1017                 1.1097
 Frc consts  --      6.1896                 6.3404                 6.4231
 IR Inten    --     15.1572                25.6090                19.5514

                     70                     71                     72
                      A                      A                      A
 Frequencies --   3192.9731              3206.3527              3630.9374
 Red. masses --      1.1066                 1.1096                 1.0778
 Frc consts  --      6.6472                 6.7211                 8.3718
 IR Inten    --      1.2755                30.4669                29.2926

 - Thermochemistry -
 -------------------
 Temperature   298.150 Kelvin.  Pressure   1.00000 Atm.
 Atom     1 has atomic number  6 and mass  12.00000

 Molecular mass:   207.05653 amu.
 Principal axes and moments of inertia in atomic units:
                           1         2         3
     Eigenvalues --  1291.462774042.108154489.40051
           X            0.99972  -0.01747  -0.01595
           Y            0.01730   0.99979  -0.01067
           Z            0.01614   0.01039   0.99982
 This molecule is an asymmetric top.
 Rotational symmetry number  1.
 Warning -- assumption of classical behavior for rotation
           may cause significant error
 Rotational temperatures (Kelvin)      0.06707     0.02143     0.01929
 Rotational constants (GHZ):           1.39744     0.44649     0.40200
 Zero-point vibrational energy     559149.2 (Joules/Mol)
                                  133.63986 (Kcal/Mol)
 Warning -- explicit consideration of  20 degrees of freedom as
           vibrations may cause significant error
 Vibrational temperatures:     63.96    84.21   118.02   133.27   171.80
          (Kelvin)            249.18   287.37   302.75   329.46   377.23
                              427.75   461.24   489.07   591.66   656.13
                              699.24   704.66   749.95   787.64   831.32
                              986.98   994.05  1022.32  1112.47  1152.65
                             1249.30  1302.48  1365.23  1382.96  1422.43
                             1461.52  1483.40  1505.78  1540.25  1585.73
                             1625.58  1644.93  1663.08  1743.77  1780.95
                             1815.13  1836.52  1871.20  1912.66  1927.30
                             1941.65  1966.25  1997.49  2006.79  2049.64
                             2070.96  2108.93  2127.07  2151.97  2165.66
                             2193.63  2195.09  2242.67  2612.08  4350.57
                             4374.82  4398.10  4413.68  4433.28  4444.70
                             4455.19  4457.97  4496.77  4509.52  4593.98
                             4613.23  5224.11

 Zero-point correction=                           0.212969 (Hartree/Particle)
 Thermal correction to Energy=                    0.226294
 Thermal correction to Enthalpy=                  0.227238
 Thermal correction to Gibbs Free Energy=         0.172482
 Sum of electronic and zero-point Energies=          -1028.198947
 Sum of electronic and thermal Energies=             -1028.185622
 Sum of electronic and thermal Enthalpies=           -1028.184677
 Sum of electronic and thermal Free Energies=        -1028.239434

                     E (Thermal)             CV                S
                      KCal/Mol        Cal/Mol-Kelvin    Cal/Mol-Kelvin
 Total                  142.002             49.332            115.244
 Electronic               0.000              0.000              0.000
 Translational            0.889              2.981             41.887
 Rotational               0.889              2.981             31.528
 Vibrational            140.224             43.371             41.829
 Vibration     1          0.595              1.980              5.050
 Vibration     2          0.596              1.974              4.506
 Vibration     3          0.600              1.961              3.842
 Vibration     4          0.602              1.954              3.604
 Vibration     5          0.609              1.933              3.110
 Vibration     6          0.627              1.875              2.401
 Vibration     7          0.638              1.840              2.136
 Vibration     8          0.643              1.825              2.040
 Vibration     9          0.652              1.797              1.887
 Vibration    10          0.669              1.742              1.647
 Vibration    11          0.691              1.679              1.432
 Vibration    12          0.706              1.634              1.307
 Vibration    13          0.720              1.596              1.213
 Vibration    14          0.775              1.446              0.922
 Vibration    15          0.814              1.348              0.778
 Vibration    16          0.842              1.281              0.694
 Vibration    17          0.846              1.273              0.684
 Vibration    18          0.876              1.203              0.607
 Vibration    19          0.903              1.145              0.550
 Vibration    20          0.934              1.079              0.489

                           ! Non-Optimized Parameters !
 Normal termination of Gaussian 16 at Wed Dec  9 23:34:28 2020.

 ----------------------------------------------------------------------
 # B3LYP/6-311++G(d,p) empiricaldispersion=gd3bj scf=xqc pop=npa geom=c
 heck
 ----------------------------------------------------------------------

 ---------------------------------------
 CID_154161246_JID_3495_Energie_neutraal
 ---------------------------------------
 Structure from the checkpoint file:  "JID_3495.chk"
 Charge =  0 Multiplicity = 1

 SCF Done:  E(RB3LYP) =  -1028.62670987     A.U. after   15 cycles
 Normal termination of Gaussian 16 at Wed Dec  9 23:37:01 2020.

 ----------------------------------------------------------------------
 # B3LYP/6-311++G(d,p) empiricaldispersion=gd3bj scf=xqc pop=npa geom=c
 heck
 ----------------------------------------------------------------------

 -------------------------------------
 CID_154161246_JID_3495_Energie_kation
 -------------------------------------
 Structure from the checkpoint file:  "JID_3495.chk"
 Charge =  1 Multiplicity = 2

 SCF Done:  E(UB3LYP) =  -1028.28983313     A.U. after   31 cycles
 Normal termination of Gaussian 16 at Wed Dec  9 23:44:05 2020.
 Gaussian 16:  ES64L-G16RevA.03 25-Dec-2016

 ----------------------------------------------------------------------
 # B3LYP/6-311++G(d,p) empiricaldispersion=gd3bj scf=xqc pop=npa geom=c
 heck
 ----------------------------------------------------------------------

 ------------------------------------
 CID_154161246_JID_3495_Energie_anion
 ------------------------------------
 Structure from the checkpoint file:  "JID_3495.chk"
 Charge = -1 Multiplicity = 2

                         Standard orientation:
 ---------------------------------------------------------------------
 Center     Atomic      Atomic             Coordinates (Angstroms)
 Number     Number       Type             X           Y           Z
 ---------------------------------------------------------------------
      1          6           0        2.248964   -1.727714   -0.506039
      2         16           0        2.165091   -0.164296    0.355844
      3          8           0        1.228933   -0.252904    1.482109
      4          8           0        3.509354    0.356012    0.597806
      5          8           0        1.465826    0.686322   -0.856775
      6          6           0        0.683021    1.851779   -0.496689
      7          6           0       -0.792849    1.631037   -0.801338
      8          6           0       -1.511697    0.632652    0.120744
      9          6           0       -2.969446    0.992251    0.462342
     10          6           0       -3.615414   -0.365206    0.799524
     11          7           0       -2.849464   -1.271189   -0.044356
     12          6           0       -1.636534   -0.788464   -0.447021
     13          8           0       -0.825325   -1.399518   -1.128486
     14          1           0        2.701870   -2.442286    0.184171
     15          1           0        2.876373   -1.595758   -1.388586
     16          1           0        1.228645   -2.001874   -0.777331
     17          1           0        0.832347    2.094184    0.559638
     18          1           0        1.085070    2.669550   -1.100503
     19          1           0       -1.277986    2.612516   -0.709301
     20          1           0       -0.895407    1.321236   -1.847391
     21          1           0       -0.937606    0.519426    1.049329
     22          1           0       -3.054224    1.711079    1.281684
     23          1           0       -3.460687    1.420690   -0.419788
     24          1           0       -3.499137   -0.612215    1.864805
     25          1           0       -4.681844   -0.401012    0.555418
     26          1           0       -3.079190   -2.245779   -0.181537
 ---------------------------------------------------------------------

 SCF Done:  E(UB3LYP) =  -1028.61531611     A.U. after   33 cycles
 SCF Done:  E(UB3LYP) =  -1028.61531611     a.u. after    1 cycles

 The electronic state is 2-A.
 Alpha  occ. eigenvalues --  -88.98970 -19.07784 -19.03606 -19.03592 -18.98961
 Alpha  occ. eigenvalues --  -14.23302 -10.16907 -10.14581 -10.12074 -10.10413
 Alpha  occ. eigenvalues --  -10.08364 -10.08332 -10.07428  -8.05070  -6.01459
 Alpha  occ. eigenvalues --   -6.01258  -6.01111  -1.05665  -0.95274  -0.93836
 Alpha  occ. eigenvalues --   -0.92656  -0.83701  -0.72165  -0.69593  -0.65601
 Alpha  occ. eigenvalues --   -0.61424  -0.56198  -0.51295  -0.50657  -0.47165
 Alpha  occ. eigenvalues --   -0.45088  -0.41781  -0.40482  -0.40287  -0.38948
 Alpha  occ. eigenvalues --   -0.37420  -0.36545  -0.34835  -0.34635  -0.33678
 Alpha  occ. eigenvalues --   -0.32284  -0.31208  -0.30096  -0.29121  -0.28279
 Alpha  occ. eigenvalues --   -0.27422  -0.26678  -0.24990  -0.24299  -0.23754
 Alpha  occ. eigenvalues --   -0.23210  -0.22980  -0.19928  -0.15917  -0.15375
 Alpha  occ. eigenvalues --    0.04392
 Alpha virt. eigenvalues --    0.06490   0.06678   0.08134   0.08489   0.09338
 Alpha virt. eigenvalues --    0.10039   0.10337   0.10900   0.11352   0.11926
 Alpha virt. eigenvalues --    0.12217   0.12374   0.12771   0.13969   0.14371

  Beta  occ. eigenvalues --  -88.98968 -19.07780 -19.03601 -19.03586 -18.98953
  Beta  occ. eigenvalues --  -14.23269 -10.16906 -10.14565 -10.12062 -10.10367
  Beta  occ. eigenvalues --  -10.08347 -10.08322 -10.07393  -8.05066  -6.01457
  Beta  occ. eigenvalues --   -6.01256  -6.01109  -1.05651  -0.95263  -0.93821
  Beta  occ. eigenvalues --   -0.92640  -0.83655  -0.72134  -0.69566  -0.65550
  Beta  occ. eigenvalues --   -0.61362  -0.56155  -0.51240  -0.50570  -0.47112
  Beta  occ. eigenvalues --   -0.45067  -0.41766  -0.40464  -0.40223  -0.38908
  Beta  occ. eigenvalues --   -0.37386  -0.36521  -0.34807  -0.34605  -0.33652
  Beta  occ. eigenvalues --   -0.32247  -0.31180  -0.30061  -0.29052  -0.28232
  Beta  occ. eigenvalues --   -0.27379  -0.26657  -0.24978  -0.24268  -0.23738
  Beta  occ. eigenvalues --   -0.23188  -0.22963  -0.19914  -0.15869  -0.15344
  Beta virt. eigenvalues --    0.06506   0.07292   0.07837   0.08959   0.09321
  Beta virt. eigenvalues --    0.09849   0.10497   0.10851   0.11142   0.11468
  Beta virt. eigenvalues --    0.12282   0.12610   0.12735   0.13060   0.14136

 Mulliken charges and spin densities:
               1          2
     1  C   -0.377739  -0.199789
     2  S    0.134671   0.020101
     3  O   -0.247455   0.004104
     4  O   -0.113058   0.012226
     5  O   -0.105900   0.025559
     6  C    0.278825  -0.752212
     7  C   -0.230998  -0.242788
     8  C    0.261322   0.276416
     9  C   -0.259154  -0.185217
    10  C    2.531210  -2.920755
    11  N   -0.418603   0.248142
    12  C   -0.254881   0.127928
    13  O   -0.409243   0.025739
    14  H    0.089797   0.097153
    15  H    0.120498   0.082339
    16  H    0.232972   0.056281
    17  H    0.077764   0.127185
    18  H   -0.138266   0.342123
    19  H   -0.412131   0.570964
    20  H    0.057112   0.171162
    21  H    0.301475  -0.039082
    22  H   -0.453910   0.615667
    23  H   -0.128064   0.305993
    24  H   -0.232318   0.407232
    25  H   -1.043063   1.245983
    26  H   -0.260864   0.577548
 Sum of Mulliken charges =  -1.00000   1.00000

 Dipole moment (field-independent basis, Debye):
    X=              8.8561    Y=             -1.0759    Z=             -1.9437  Tot=              9.1305
 Quadrupole moment (field-independent basis, Debye-Ang):
   XX=           -176.1707   YY=           -122.6043   ZZ=           -117.2319
   XY=             -7.4628   XZ=              2.6053   YZ=             -0.7232

 Summary of Natural Population Analysis:

                                       Natural Population
                Natural  -----------------------------------------------
    Atom  No    Charge         Core      Valence    Rydberg      Total
 -----------------------------------------------------------------------
      C    1   -0.39407      0.99959     2.38539    0.00909     3.39407
      S    2    1.12444      4.99939     1.77692    0.09925     6.87556
      O    3   -0.45635      0.99990     3.45073    0.00572     4.45635
      O    4   -0.45668      0.99990     3.45131    0.00546     4.45668
      O    5   -0.37328      0.99990     3.36441    0.00897     4.37328
      C    6   -0.01137      0.99956     1.99904    0.01277     3.01137
      C    7   -0.19931      0.99960     2.18936    0.01035     3.19931
      C    8   -0.15999      0.99954     2.14887    0.01157     3.15999
      C    9   -0.18529      0.99963     2.17664    0.00902     3.18529
      C   10   -0.08170      0.99964     2.07112    0.01095     3.08170
      N   11   -0.31332      0.99967     2.80321    0.01044     3.81332
      C   12    0.35353      0.99964     1.62240    0.02443     2.64647
      O   13   -0.33831      0.99986     3.33200    0.00644     4.33831
      H   14    0.11306      0.00000     0.38587    0.00108     0.38694
      H   15    0.11597      0.00000     0.38301    0.00101     0.38403
      H   16    0.14257      0.00000     0.35620    0.00124     0.35743
      H   17    0.09440      0.00000     0.40410    0.00150     0.40560
      H   18    0.09382      0.00000     0.40500    0.00118     0.40618
      H   19    0.10633      0.00000     0.39215    0.00153     0.39367
      H   20    0.10730      0.00000     0.39139    0.00131     0.39270
      H   21    0.12201      0.00000     0.37589    0.00210     0.37799
      H   22    0.10583      0.00000     0.39218    0.00199     0.39417
      H   23    0.09912      0.00000     0.39883    0.00205     0.40088
      H   24    0.08973      0.00000     0.40798    0.00229     0.41027
      H   25    0.10222      0.00000     0.39166    0.00612     0.39778
      H   26    0.19936      0.00000     0.29566    0.00498     0.30064
 =======================================================================
   * Total *   -0.00000     16.99583    37.75131    0.25285    55.00000

 Normal termination of Gaussian 16 at Wed Dec  9 23:51:40 2020.
