 Gaussian 16, Revision A.03,

 -----------------------------------------------------------
 # opt freq B3LYP/6-31G(d) empiricaldispersion=gd3bj scf=xqc
 -----------------------------------------------------------

 --------------------------------
 CID_115127510_JID_10916_neutraal
 --------------------------------
 Symbolic Z-matrix:
 Charge =  0 Multiplicity = 1

 SCF Done:  E(RB3LYP) =  -823.569872191     A.U. after   15 cycles
 SCF Done:  E(RB3LYP) =  -823.574249440     A.U. after   15 cycles
 SCF Done:  E(RB3LYP) =  -823.573530682     A.U. after   14 cycles
 SCF Done:  E(RB3LYP) =  -823.575152336     A.U. after   13 cycles
 SCF Done:  E(RB3LYP) =  -823.576585881     A.U. after   15 cycles
 SCF Done:  E(RB3LYP) =  -823.578922694     A.U. after   13 cycles
 SCF Done:  E(RB3LYP) =  -823.579486835     A.U. after   13 cycles
 SCF Done:  E(RB3LYP) =  -823.579621492     A.U. after   13 cycles
 SCF Done:  E(RB3LYP) =  -823.579853969     A.U. after   12 cycles
 SCF Done:  E(RB3LYP) =  -823.579925700     A.U. after   12 cycles
 SCF Done:  E(RB3LYP) =  -823.579973043     A.U. after   10 cycles
 SCF Done:  E(RB3LYP) =  -823.579975424     A.U. after    9 cycles
 SCF Done:  E(RB3LYP) =  -823.579977211     A.U. after    9 cycles
 SCF Done:  E(RB3LYP) =  -823.579978239     A.U. after    8 cycles
 SCF Done:  E(RB3LYP) =  -823.579978428     A.U. after    8 cycles
 Optimization completed.
    -- Stationary point found.
 Normal termination of Gaussian 16 at Sat Dec 12 16:53:16 2020.

 --------------------------------------------------------------------
 #N Geom=AllCheck Guess=TCheck SCRF=Check GenChk RB3LYP/6-31G(d) Freq
 --------------------------------------------------------------------

 Structure from the checkpoint file:  "JID_10916.chk"
 --------------------------------
 CID_115127510_JID_10916_neutraal
 --------------------------------
 Charge =  0 Multiplicity = 1

 SCF Done:  E(RB3LYP) =  -823.579978428     A.U. after    1 cycles

  Exact polarizability: 217.609  41.622 189.720 -25.374  29.387 145.272
 Approx polarizability: 351.656  85.291 304.745 -53.112  73.154 256.830

                      1                      2                      3
                      A                      A                      A
 Frequencies --     26.0750                38.9904                59.2815
 Red. masses --      4.3628                 7.2718                 3.6971
 Frc consts  --      0.0017                 0.0065                 0.0077
 IR Inten    --      0.2503                 0.9951                 0.3433

                      4                      5                      6
                      A                      A                      A
 Frequencies --     69.2470                81.2698               115.5078
 Red. masses --      3.4747                 4.7721                 3.8530
 Frc consts  --      0.0098                 0.0186                 0.0303
 IR Inten    --      0.5178                 0.5953                 1.8294

                      7                      8                      9
                      A                      A                      A
 Frequencies --    131.3707               139.5245               163.8697
 Red. masses --      1.5186                 3.5974                 3.7366
 Frc consts  --      0.0154                 0.0413                 0.0591
 IR Inten    --      0.1284                 2.6508                 3.1523

                     10                     11                     12
                      A                      A                      A
 Frequencies --    187.5352               202.8175               234.7210
 Red. masses --      3.4352                 2.9397                 1.5743
 Frc consts  --      0.0712                 0.0712                 0.0511
 IR Inten    --      0.2094                 0.8540                 1.2984

                     13                     14                     15
                      A                      A                      A
 Frequencies --    241.1641               280.0547               289.2549
 Red. masses --      2.4213                 3.3165                 2.1824
 Frc consts  --      0.0830                 0.1533                 0.1076
 IR Inten    --      1.0122                 0.3618                 4.1381

                     16                     17                     18
                      A                      A                      A
 Frequencies --    341.1758               347.8649               373.3474
 Red. masses --      3.4642                 2.5605                 3.1542
 Frc consts  --      0.2376                 0.1826                 0.2590
 IR Inten    --      7.1495                 1.1701                 4.6717

                     19                     20                     21
                      A                      A                      A
 Frequencies --    408.7791               432.6978               437.2074
 Red. masses --      2.8577                 2.8100                 1.3095
 Frc consts  --      0.2814                 0.3100                 0.1475
 IR Inten    --      0.5587                 7.9077                42.2007

                     22                     23                     24
                      A                      A                      A
 Frequencies --    449.8232               472.2734               482.4797
 Red. masses --      3.0355                 3.7011                 2.8544
 Frc consts  --      0.3619                 0.4864                 0.3915
 IR Inten    --      5.4133                 4.2616                 4.9893

                     25                     26                     27
                      A                      A                      A
 Frequencies --    489.4881               511.1873               526.2285
 Red. masses --      4.0512                 4.1428                 4.1396
 Frc consts  --      0.5719                 0.6378                 0.6754
 IR Inten    --     21.1204                 1.8883                 6.5714

                     28                     29                     30
                      A                      A                      A
 Frequencies --    551.2291               577.4583               598.1274
 Red. masses --      7.0552                 3.6126                 3.8285
 Frc consts  --      1.2631                 0.7098                 0.8070
 IR Inten    --      1.0567                 3.1836                 1.4134

                     31                     32                     33
                      A                      A                      A
 Frequencies --    613.3702               638.1651               667.7276
 Red. masses --      4.6452                 3.2993                 4.6497
 Frc consts  --      1.0297                 0.7916                 1.2214
 IR Inten    --      8.2709                11.6876                 7.5498

                     34                     35                     36
                      A                      A                      A
 Frequencies --    713.8375               738.2027               746.7324
 Red. masses --      1.6480                 3.8039                 2.8203
 Frc consts  --      0.4948                 1.2213                 0.9266
 IR Inten    --    230.7793                 2.3219                 7.4427

                     37                     38                     39
                      A                      A                      A
 Frequencies --    751.0476               766.5172               772.0178
 Red. masses --      4.3597                 1.4595                 2.4856
 Frc consts  --      1.4489                 0.5052                 0.8728
 IR Inten    --     14.9330                38.6593                52.9271

                     40                     41                     42
                      A                      A                      A
 Frequencies --    822.5787               832.9934               867.6176
 Red. masses --      1.6235                 3.7704                 1.5063
 Frc consts  --      0.6472                 1.5414                 0.6681
 IR Inten    --     13.8899                 0.6546                31.8416

                     43                     44                     45
                      A                      A                      A
 Frequencies --    872.7355               888.5384               934.6631
 Red. masses --      1.7134                 1.6362                 1.3134
 Frc consts  --      0.7689                 0.7611                 0.6760
 IR Inten    --      5.6798                 4.3292                 0.3477

                     46                     47                     48
                      A                      A                      A
 Frequencies --    946.0863               979.0029               982.0881
 Red. masses --      1.3694                 2.7415                 2.6722
 Frc consts  --      0.7222                 1.5481                 1.5185
 IR Inten    --      1.4655                 4.7025                 5.7191

                     49                     50                     51
                      A                      A                      A
 Frequencies --    982.3783              1016.2096              1019.7215
 Red. masses --      1.2874                 2.5049                 1.5730
 Frc consts  --      0.7320                 1.5241                 0.9637
 IR Inten    --      0.2428                18.3605                 1.4523

                     52                     53                     54
                      A                      A                      A
 Frequencies --   1057.6423              1075.0998              1088.8583
 Red. masses --      2.2670                 1.6281                 2.1262
 Frc consts  --      1.4941                 1.1087                 1.4853
 IR Inten    --      8.6189                 1.5823                 3.2783

                     55                     56                     57
                      A                      A                      A
 Frequencies --   1107.8495              1127.0208              1148.2174
 Red. masses --      1.8117                 2.2448                 1.7791
 Frc consts  --      1.3100                 1.6799                 1.3820
 IR Inten    --      4.8161                24.0481                14.6224

                     58                     59                     60
                      A                      A                      A
 Frequencies --   1162.3881              1177.2590              1195.1043
 Red. masses --      1.4599                 1.4651                 1.6921
 Frc consts  --      1.1622                 1.1963                 1.4240
 IR Inten    --     23.5361                23.0166                 1.8891

                     61                     62                     63
                      A                      A                      A
 Frequencies --   1198.2531              1205.4289              1216.6952
 Red. masses --      1.1054                 1.8203                 2.3916
 Frc consts  --      0.9351                 1.5584                 2.0860
 IR Inten    --      0.1956                11.9963                 6.3515

                     64                     65                     66
                      A                      A                      A
 Frequencies --   1237.3304              1259.4766              1286.8229
 Red. masses --      1.4887                 2.2813                 1.6536
 Frc consts  --      1.3429                 2.1321                 1.6134
 IR Inten    --      5.2214                 1.9017                11.3710

                     67                     68                     69
                      A                      A                      A
 Frequencies --   1316.9321              1334.1356              1335.9077
 Red. masses --      2.3985                 1.4330                 1.6420
 Frc consts  --      2.4509                 1.5027                 1.7266
 IR Inten    --     13.6542                 2.1651                 9.4403

                     70                     71                     72
                      A                      A                      A
 Frequencies --   1347.6119              1361.6332              1373.4401
 Red. masses --      2.8419                 3.5858                 4.1468
 Frc consts  --      3.0408                 3.9170                 4.6088
 IR Inten    --     58.4209                 6.7528                 0.9543

                     73                     74                     75
                      A                      A                      A
 Frequencies --   1390.7804              1423.4652              1446.5166
 Red. masses --      1.3854                 1.3667                 1.2392
 Frc consts  --      1.5789                 1.6316                 1.5276
 IR Inten    --      6.4359                20.7320                 3.1709

                     76                     77                     78
                      A                      A                      A
 Frequencies --   1480.8450              1484.1736              1494.0345
 Red. masses --      2.3923                 1.4363                 1.7278
 Frc consts  --      3.0909                 1.8641                 2.2723
 IR Inten    --     14.3337                 6.7182                 0.1268

                     79                     80                     81
                      A                      A                      A
 Frequencies --   1509.1133              1520.5970              1524.0440
 Red. masses --      1.1466                 1.0915                 1.0501
 Frc consts  --      1.5386                 1.4869                 1.4371
 IR Inten    --      2.4474                12.0674                15.4811

                     82                     83                     84
                      A                      A                      A
 Frequencies --   1527.7656              1529.6816              1543.2588
 Red. masses --      1.2339                 1.1036                 1.1218
 Frc consts  --      1.6969                 1.5215                 1.5741
 IR Inten    --      6.4880                11.6414                 3.8318

                     85                     86                     87
                      A                      A                      A
 Frequencies --   1546.1125              1560.9613              1618.0009
 Red. masses --      2.1885                 2.4798                 3.8360
 Frc consts  --      3.0823                 3.5600                 5.9167
 IR Inten    --      8.5161                63.5930                 6.1944

                     88                     89                     90
                      A                      A                      A
 Frequencies --   1640.5863              1647.4991              1670.0815
 Red. masses --      5.7886                 2.0787                 5.7028
 Frc consts  --      9.1795                 3.3243                 9.3716
 IR Inten    --      0.1319                37.9928                 2.8252

                     91                     92                     93
                      A                      A                      A
 Frequencies --   1677.3312              2346.1821              2989.6606
 Red. masses --      2.2922                12.6792                 1.0552
 Frc consts  --      3.7997                41.1210                 5.5566
 IR Inten    --     91.6375                59.6510                56.9145

                     94                     95                     96
                      A                      A                      A
 Frequencies --   2999.0968              3041.7606              3048.5663
 Red. masses --      1.0691                 1.0395                 1.0605
 Frc consts  --      5.6655                 5.6666                 5.8068
 IR Inten    --     65.9807                28.8089                31.0167

                     97                     98                     99
                      A                      A                      A
 Frequencies --   3083.3864              3089.3908              3091.1597
 Red. masses --      1.0898                 1.0995                 1.0829
 Frc consts  --      6.1048                 6.1831                 6.0965
 IR Inten    --     25.8161                24.2039                57.3015

                    100                    101                    102
                      A                      A                      A
 Frequencies --   3093.1248              3126.8220              3145.4671
 Red. masses --      1.1022                 1.0997                 1.1016
 Frc consts  --      6.2130                 6.3351                 6.4216
 IR Inten    --     29.2166                17.7054                15.6401

                    103                    104                    105
                      A                      A                      A
 Frequencies --   3175.2055              3178.9057              3196.2739
 Red. masses --      1.0864                 1.0887                 1.0912
 Frc consts  --      6.4536                 6.4821                 6.5680
 IR Inten    --     18.9097                 1.3719                21.6098

                    106                    107                    108
                      A                      A                      A
 Frequencies --   3200.8486              3211.5514              3215.8627
 Red. masses --      1.0911                 1.0974                 1.0872
 Frc consts  --      6.5863                 6.6686                 6.6248
 IR Inten    --      7.0419                16.5736                 6.1167

                    109                    110                    111
                      A                      A                      A
 Frequencies --   3232.4357              3512.4909              3633.9556
 Red. masses --      1.0949                 1.0491                 1.0960
 Frc consts  --      6.7403                 7.6263                 8.5276
 IR Inten    --      4.9828                14.7228                18.7638

 - Thermochemistry -
 -------------------
 Temperature   298.150 Kelvin.  Pressure   1.00000 Atm.
 Atom     1 has atomic number  6 and mass  12.00000

 Molecular mass:   265.15790 amu.
 Principal axes and moments of inertia in atomic units:
                           1         2         3
     Eigenvalues --  4169.584575095.869457444.23281
           X            0.99968  -0.00508  -0.02470
           Y            0.00534   0.99993   0.01016
           Z            0.02464  -0.01029   0.99964
 This molecule is an asymmetric top.
 Rotational symmetry number  1.
 Warning -- assumption of classical behavior for rotation
           may cause significant error
 Rotational temperatures (Kelvin)      0.02077     0.01700     0.01164
 Rotational constants (GHZ):           0.43283     0.35416     0.24243
 Zero-point vibrational energy     862940.5 (Joules/Mol)
                                  206.24773 (Kcal/Mol)
 Warning -- explicit consideration of  31 degrees of freedom as
           vibrations may cause significant error
 Vibrational temperatures:     37.52    56.10    85.29    99.63   116.93
          (Kelvin)            166.19   189.01   200.74   235.77   269.82
                              291.81   337.71   346.98   402.94   416.17
                              490.88   500.50   537.16   588.14   622.56
                              629.04   647.20   679.50   694.18   704.26
                              735.48   757.13   793.10   830.83   860.57
                              882.50   918.18   960.71  1027.05  1062.11
                             1074.38  1080.59  1102.85  1110.76  1183.51
                             1198.49  1248.31  1255.67  1278.41  1344.77
                             1361.21  1408.57  1413.01  1413.42  1462.10
                             1467.15  1521.71  1546.83  1566.62  1593.95
                             1621.53  1652.03  1672.42  1693.81  1719.49
                             1724.02  1734.34  1750.55  1780.24  1812.11
                             1851.45  1894.77  1919.52  1922.07  1938.91
                             1959.09  1976.07  2001.02  2048.05  2081.21
                             2130.61  2135.39  2149.58  2171.28  2187.80
                             2192.76  2198.11  2200.87  2220.41  2224.51
                             2245.88  2327.94  2360.44  2370.38  2402.87
                             2413.31  3375.63  4301.45  4315.03  4376.42
                             4386.21  4436.31  4444.94  4447.49  4450.32
                             4498.80  4525.63  4568.41  4573.74  4598.73
                             4605.31  4620.71  4626.91  4650.75  5053.69
                             5228.45

 Zero-point correction=                           0.328677 (Hartree/Particle)
 Thermal correction to Energy=                    0.347192
 Thermal correction to Enthalpy=                  0.348136
 Thermal correction to Gibbs Free Energy=         0.281903
 Sum of electronic and zero-point Energies=           -823.251302
 Sum of electronic and thermal Energies=              -823.232786
 Sum of electronic and thermal Enthalpies=            -823.231842
 Sum of electronic and thermal Free Energies=         -823.298076

                     E (Thermal)             CV                S
                      KCal/Mol        Cal/Mol-Kelvin    Cal/Mol-Kelvin
 Total                  217.866             72.413            139.400
 Electronic               0.000              0.000              0.000
 Translational            0.889              2.981             42.625
 Rotational               0.889              2.981             33.425
 Vibrational            216.089             66.451             63.351
 Vibration     1          0.593              1.985              6.108
 Vibration     2          0.594              1.981              5.310
 Vibration     3          0.597              1.974              4.481
 Vibration     4          0.598              1.969              4.175
 Vibration     5          0.600              1.962              3.860
 Vibration     6          0.608              1.937              3.174
 Vibration     7          0.612              1.922              2.926
 Vibration     8          0.615              1.914              2.810
 Vibration     9          0.623              1.887              2.505
 Vibration    10          0.632              1.857              2.252
 Vibration    11          0.639              1.836              2.107
 Vibration    12          0.655              1.788              1.843
 Vibration    13          0.658              1.777              1.794
 Vibration    14          0.680              1.710              1.533
 Vibration    15          0.686              1.694              1.478
 Vibration    16          0.721              1.593              1.207
 Vibration    17          0.725              1.580              1.176
 Vibration    18          0.745              1.527              1.066
 Vibration    19          0.773              1.451              0.931
 Vibration    20          0.794              1.399              0.850
 Vibration    21          0.798              1.389              0.835
 Vibration    22          0.809              1.361              0.796
 Vibration    23          0.829              1.312              0.731
 Vibration    24          0.839              1.289              0.703
 Vibration    25          0.845              1.273              0.685
 Vibration    26          0.866              1.225              0.631
 Vibration    27          0.881              1.192              0.596
 Vibration    28          0.907              1.137              0.542
 Vibration    29          0.934              1.080              0.490
 Vibration    30          0.956              1.036              0.453
 Vibration    31          0.973              1.004              0.427

 Optimization completed.
    -- Stationary point found.
 Normal termination of Gaussian 16 at Sat Dec 12 17:20:58 2020.

 ----------------------------------------------------------------------
 # B3LYP/6-311++G(d,p) empiricaldispersion=gd3bj scf=xqc pop=npa geom=c
 heck
 ----------------------------------------------------------------------

 ----------------------------------------
 CID_115127510_JID_10916_Energie_neutraal
 ----------------------------------------
 Structure from the checkpoint file:  "JID_10916.chk"
 Charge =  0 Multiplicity = 1

 SCF Done:  E(RB3LYP) =  -823.799719345     A.U. after   16 cycles
 Normal termination of Gaussian 16 at Sat Dec 12 17:33:23 2020.

 ----------------------------------------------------------------------
 # B3LYP/6-311++G(d,p) empiricaldispersion=gd3bj scf=xqc pop=npa geom=c
 heck
 ----------------------------------------------------------------------

 --------------------------------------
 CID_115127510_JID_10916_Energie_kation
 --------------------------------------
 Structure from the checkpoint file:  "JID_10916.chk"
 Charge =  1 Multiplicity = 2

 SCF Done:  E(UB3LYP) =  -823.526554085     A.U. after   24 cycles
 Normal termination of Gaussian 16 at Sat Dec 12 18:00:08 2020.
 Gaussian 16:  ES64L-G16RevA.03 25-Dec-2016

 ----------------------------------------------------------------------
 # B3LYP/6-311++G(d,p) empiricaldispersion=gd3bj scf=xqc pop=npa geom=c
 heck
 ----------------------------------------------------------------------

 -------------------------------------
 CID_115127510_JID_10916_Energie_anion
 -------------------------------------
 Structure from the checkpoint file:  "JID_10916.chk"
 Charge = -1 Multiplicity = 2

                         Standard orientation:
 ---------------------------------------------------------------------
 Center     Atomic      Atomic             Coordinates (Angstroms)
 Number     Number       Type             X           Y           Z
 ---------------------------------------------------------------------
      1          6           0        3.055999   -1.924861   -1.181394
      2          6           0        1.926095   -1.894983   -0.178964
      3          6           0        1.007593   -2.949981   -0.144510
      4          6           0       -0.057084   -2.961198    0.755060
      5          6           0       -0.201414   -1.912592    1.661152
      6          6           0        0.713705   -0.863272    1.643947
      7          6           0        1.764248   -0.823254    0.721817
      8          6           0        2.663438    0.392302    0.676874
      9          6           0        2.324695    1.430985   -0.410903
     10          7           0        1.059205    2.130535   -0.177661
     11          6           0        0.999746    3.438393   -0.843507
     12          6           0       -0.148550    1.385022   -0.361423
     13          6           0       -1.210713    1.674379    0.530448
     14          6           0       -2.399734    0.949922    0.435070
     15          6           0       -2.536739   -0.060454   -0.527165
     16          6           0       -1.491162   -0.340422   -1.417377
     17          6           0       -0.315591    0.397022   -1.330872
     18          6           0       -3.744460   -0.826988   -0.579343
     19          7           0       -4.722770   -1.455996   -0.617297
     20          7           0       -1.034911    2.683298    1.473470
     21          1           0        4.034036   -1.806070   -0.698926
     22          1           0        3.067794   -2.874673   -1.723935
     23          1           0        2.972302   -1.123294   -1.925838
     24          1           0        1.129279   -3.775156   -0.842222
     25          1           0       -0.765053   -3.784865    0.750334
     26          1           0       -1.024291   -1.906832    2.369750
     27          1           0        0.594984   -0.033995    2.336814
     28          1           0        2.627612    0.908445    1.642822
     29          1           0        3.705500    0.088398    0.517625
     30          1           0        3.105666    2.198517   -0.388890
     31          1           0        2.375162    0.975845   -1.413058
     32          1           0        1.043017    3.354020   -1.942203
     33          1           0        0.066736    3.937982   -0.571290
     34          1           0        1.837281    4.058644   -0.507031
     35          1           0       -3.213320    1.147871    1.126267
     36          1           0       -1.600259   -1.127899   -2.153711
     37          1           0        0.500173    0.168995   -2.007061
     38          1           0       -0.052005    2.826221    1.688673
     39          1           0       -1.615700    2.602871    2.298838
 ---------------------------------------------------------------------

 SCF Done:  E(UB3LYP) =  -823.798596082     A.U. after   33 cycles
 SCF Done:  E(UB3LYP) =  -823.798596082     a.u. after    1 cycles

 The electronic state is 2-A.
 Alpha  occ. eigenvalues --  -14.21532 -14.20952 -14.18018 -10.10222 -10.09963
 Alpha  occ. eigenvalues --  -10.08924 -10.08603 -10.08174 -10.08165 -10.08134
 Alpha  occ. eigenvalues --  -10.08063 -10.07751 -10.07663 -10.07570 -10.07507
 Alpha  occ. eigenvalues --  -10.07266 -10.07125 -10.06144 -10.05764 -10.05480
 Alpha  occ. eigenvalues --   -0.84251  -0.80250  -0.78157  -0.76491  -0.73104
 Alpha  occ. eigenvalues --   -0.69049  -0.67461  -0.64878  -0.63062  -0.62061
 Alpha  occ. eigenvalues --   -0.59536  -0.57076  -0.54759  -0.50587  -0.49875
 Alpha  occ. eigenvalues --   -0.49067  -0.47014  -0.43856  -0.41352  -0.40678
 Alpha  occ. eigenvalues --   -0.40123  -0.38214  -0.36604  -0.36145  -0.35235
 Alpha  occ. eigenvalues --   -0.34198  -0.33785  -0.32646  -0.32278  -0.31760
 Alpha  occ. eigenvalues --   -0.31627  -0.30937  -0.30115  -0.29468  -0.28543
 Alpha  occ. eigenvalues --   -0.27762  -0.27053  -0.26722  -0.25282  -0.24990
 Alpha  occ. eigenvalues --   -0.24262  -0.24107  -0.23748  -0.23234  -0.20980
 Alpha  occ. eigenvalues --   -0.19717  -0.15831  -0.15207  -0.14536  -0.12157
 Alpha  occ. eigenvalues --   -0.09775   0.03922
 Alpha virt. eigenvalues --    0.05854   0.06458   0.07001   0.07521   0.08322
 Alpha virt. eigenvalues --    0.08446   0.08764   0.09209   0.09960   0.10017
 Alpha virt. eigenvalues --    0.10310   0.10771   0.11094   0.11334   0.12258

  Beta  occ. eigenvalues --  -14.21552 -14.20934 -14.17851 -10.10201 -10.10019
  Beta  occ. eigenvalues --  -10.08874 -10.08601 -10.08164 -10.08125 -10.08047
  Beta  occ. eigenvalues --  -10.07973 -10.07737 -10.07571 -10.07497 -10.07495
  Beta  occ. eigenvalues --  -10.07253 -10.07117 -10.06150 -10.05714 -10.05306
  Beta  occ. eigenvalues --   -0.84153  -0.80212  -0.77898  -0.76475  -0.72877
  Beta  occ. eigenvalues --   -0.69016  -0.67434  -0.64566  -0.62974  -0.61873
  Beta  occ. eigenvalues --   -0.59500  -0.56943  -0.54572  -0.50524  -0.49819
  Beta  occ. eigenvalues --   -0.48924  -0.46940  -0.43747  -0.41267  -0.40649
  Beta  occ. eigenvalues --   -0.40045  -0.38162  -0.36537  -0.36049  -0.35185
  Beta  occ. eigenvalues --   -0.34147  -0.33737  -0.32560  -0.32211  -0.31737
  Beta  occ. eigenvalues --   -0.31569  -0.30812  -0.30081  -0.29342  -0.28335
  Beta  occ. eigenvalues --   -0.27665  -0.26841  -0.26656  -0.25158  -0.24828
  Beta  occ. eigenvalues --   -0.24192  -0.23784  -0.23474  -0.23195  -0.20875
  Beta  occ. eigenvalues --   -0.19341  -0.15448  -0.14983  -0.14393  -0.11619
  Beta  occ. eigenvalues --   -0.09281
  Beta virt. eigenvalues --    0.06084   0.06852   0.07296   0.07635   0.07784
  Beta virt. eigenvalues --    0.08454   0.08857   0.08968   0.09371   0.09994
  Beta virt. eigenvalues --    0.10195   0.10393   0.10898   0.11231   0.11411

 Mulliken charges and spin densities:
               1          2
     1  C    0.280590  -0.776557
     2  C   -0.422114   0.847949
     3  C   -0.018826  -0.324200
     4  C   -0.068786  -0.281865
     5  C   -0.027550  -0.234196
     6  C    0.080473  -0.247427
     7  C   -0.552785   1.058580
     8  C   -0.244613  -0.583550
     9  C    0.627307  -0.759472
    10  N    0.182821   0.107457
    11  C    0.487566  -0.691382
    12  C   -0.309387   0.259507
    13  C   -0.099368  -0.073556
    14  C   -0.518565   0.155513
    15  C    1.544878   0.082889
    16  C   -0.275953  -0.068292
    17  C   -0.127688  -0.010052
    18  C   -1.240347  -0.270818
    19  N   -0.289524   0.098790
    20  N   -0.357063   0.013094
    21  H    0.003145   0.159188
    22  H    0.053310   0.090859
    23  H    0.026330   0.113446
    24  H    0.068945   0.062364
    25  H    0.142101   0.009961
    26  H    0.039826   0.127626
    27  H    0.019881   0.165858
    28  H   -0.175773   0.347044
    29  H   -0.040802   0.191768
    30  H   -0.274846   0.420297
    31  H    0.130389  -0.016746
    32  H    0.038659   0.083235
    33  H    0.104552   0.044611
    34  H   -0.366392   0.522470
    35  H    0.126153   0.025378
    36  H    0.174344   0.005890
    37  H    0.095642   0.006472
    38  H    0.164642   0.115608
    39  H    0.018827   0.222256
 Sum of Mulliken charges =  -1.00000   1.00000

 Dipole moment (field-independent basis, Debye):
    X=              3.7892    Y=             -1.9748    Z=             -0.5167  Tot=              4.3041
 Quadrupole moment (field-independent basis, Debye-Ang):
   XX=           -198.6642   YY=           -166.1296   ZZ=           -141.1119
   XY=            -18.4261   XZ=             -9.0139   YZ=             -0.1802

 Summary of Natural Population Analysis:

                                       Natural Population
                Natural  -----------------------------------------------
    Atom  No    Charge         Core      Valence    Rydberg      Total
 -----------------------------------------------------------------------
      C    1   -0.29391      0.99964     2.28860    0.00567     3.29391
      C    2   -0.01991      0.99946     2.01093    0.00952     3.01991
      C    3   -0.09892      0.99952     2.09098    0.00842     3.09892
      C    4   -0.10161      0.99956     2.09305    0.00900     3.10161
      C    5   -0.09600      0.99956     2.08645    0.01000     3.09600
      C    6   -0.09069      0.99951     2.08112    0.01006     3.09069
      C    7   -0.01330      0.99946     2.00286    0.01098     3.01330
      C    8   -0.20192      0.99959     2.19199    0.01033     3.20192
      C    9   -0.07166      0.99959     2.06079    0.01127     3.07166
      N   10   -0.29018      0.99969     2.77524    0.01526     3.79018
      C   11   -0.17055      0.99963     2.16334    0.00758     3.17055
      C   12    0.10079      0.99942     1.88673    0.01305     2.89921
      C   13    0.07045      0.99944     1.91882    0.01129     2.92955
      C   14   -0.07049      0.99950     2.06199    0.00901     3.07049
      C   15   -0.06662      0.99942     2.05833    0.00886     3.06662
      C   16   -0.09175      0.99954     2.08261    0.00961     3.09175
      C   17   -0.10180      0.99951     2.09395    0.00834     3.10180
      C   18    0.15535      0.99963     1.82652    0.01849     2.84465
      N   19   -0.18009      0.99979     2.66985    0.01045     3.68009
      N   20   -0.40385      0.99971     2.89437    0.00978     3.90385
      H   21    0.10309      0.00000     0.39597    0.00094     0.39691
      H   22    0.09988      0.00000     0.39936    0.00076     0.40012
      H   23    0.10254      0.00000     0.39646    0.00100     0.39746
      H   24    0.09505      0.00000     0.40401    0.00093     0.40495
      H   25    0.09953      0.00000     0.39964    0.00083     0.40047
      H   26    0.10170      0.00000     0.39740    0.00090     0.39830
      H   27    0.10124      0.00000     0.39681    0.00195     0.39876
      H   28    0.10437      0.00000     0.39375    0.00188     0.39563
      H   29    0.10189      0.00000     0.39695    0.00116     0.39811
      H   30    0.09759      0.00000     0.40082    0.00159     0.40241
      H   31    0.08009      0.00000     0.41837    0.00154     0.41991
      H   32    0.08160      0.00000     0.41739    0.00100     0.41840
      H   33    0.10301      0.00000     0.39599    0.00100     0.39699
      H   34    0.09404      0.00000     0.40438    0.00158     0.40596
      H   35    0.09747      0.00000     0.40148    0.00105     0.40253
      H   36    0.10020      0.00000     0.39892    0.00088     0.39980
      H   37    0.09872      0.00000     0.39986    0.00142     0.40128
      H   38    0.19185      0.00000     0.30591    0.00224     0.30815
      H   39    0.18280      0.00000     0.31581    0.00139     0.31720
 =======================================================================
   * Total *   -0.00000     19.99114    50.77781    0.23104    71.00000

 Normal termination of Gaussian 16 at Sat Dec 12 18:36:45 2020.
