 Gaussian 16, Revision A.03,

 -----------------------------------------------------------
 # opt freq B3LYP/6-31G(d) empiricaldispersion=gd3bj scf=xqc
 -----------------------------------------------------------

 -------------------------------
 CID_114201253_JID_7014_neutraal
 -------------------------------
 Symbolic Z-matrix:
 Charge =  0 Multiplicity = 1

 SCF Done:  E(RB3LYP) =  -1150.94918963     A.U. after   14 cycles
 SCF Done:  E(RB3LYP) =  -1150.95663076     A.U. after   13 cycles
 SCF Done:  E(RB3LYP) =  -1150.95802433     A.U. after   12 cycles
 SCF Done:  E(RB3LYP) =  -1150.95828194     A.U. after   12 cycles
 SCF Done:  E(RB3LYP) =  -1150.95596462     A.U. after   13 cycles
 SCF Done:  E(RB3LYP) =  -1150.95835932     A.U. after   12 cycles
 SCF Done:  E(RB3LYP) =  -1150.95970983     A.U. after    9 cycles
 SCF Done:  E(RB3LYP) =  -1150.96014098     A.U. after   11 cycles
 SCF Done:  E(RB3LYP) =  -1150.96002574     A.U. after   12 cycles
 SCF Done:  E(RB3LYP) =  -1150.96009451     A.U. after   11 cycles
 SCF Done:  E(RB3LYP) =  -1150.96029500     A.U. after   10 cycles
 SCF Done:  E(RB3LYP) =  -1150.96030610     A.U. after    9 cycles
 SCF Done:  E(RB3LYP) =  -1150.96031188     A.U. after    9 cycles
 SCF Done:  E(RB3LYP) =  -1150.96031549     A.U. after    8 cycles
 SCF Done:  E(RB3LYP) =  -1150.96031730     A.U. after    8 cycles
 SCF Done:  E(RB3LYP) =  -1150.96031774     A.U. after    7 cycles
 Optimization completed.
    -- Stationary point found.
 Normal termination of Gaussian 16 at Sun Dec 13 16:15:51 2020.

 --------------------------------------------------------------------
 #N Geom=AllCheck Guess=TCheck SCRF=Check GenChk RB3LYP/6-31G(d) Freq
 --------------------------------------------------------------------

 Structure from the checkpoint file:  "JID_7014.chk"
 -------------------------------
 CID_114201253_JID_7014_neutraal
 -------------------------------
 Charge =  0 Multiplicity = 1

 SCF Done:  E(RB3LYP) =  -1150.96031774     A.U. after    1 cycles

  Exact polarizability: 170.576   0.686 152.389   1.202  -0.644 139.430
 Approx polarizability: 221.215   4.475 225.596   8.101   1.339 221.480

                      1                      2                      3
                      A                      A                      A
 Frequencies --     35.0138                52.6875                82.7971
 Red. masses --      4.5800                 2.8856                 3.5587
 Frc consts  --      0.0033                 0.0047                 0.0144
 IR Inten    --      0.2642                 0.7204                 0.4973

                      4                      5                      6
                      A                      A                      A
 Frequencies --     84.9669               106.8760               126.5279
 Red. masses --      3.7361                 3.2571                 3.1671
 Frc consts  --      0.0159                 0.0219                 0.0299
 IR Inten    --      3.7294                 3.9725                 3.2281

                      7                      8                      9
                      A                      A                      A
 Frequencies --    150.6723               164.3425               190.0728
 Red. masses --      3.1156                 3.6144                 2.8326
 Frc consts  --      0.0417                 0.0575                 0.0603
 IR Inten    --      3.0883                 4.3637                 6.8836

                     10                     11                     12
                      A                      A                      A
 Frequencies --    202.5556               219.3485               229.5567
 Red. masses --      3.1695                 2.4325                 1.2497
 Frc consts  --      0.0766                 0.0690                 0.0388
 IR Inten    --      1.1784                 0.3870                23.3681

                     13                     14                     15
                      A                      A                      A
 Frequencies --    235.5445               250.6150               260.0376
 Red. masses --      1.0658                 1.5266                 1.2678
 Frc consts  --      0.0348                 0.0565                 0.0505
 IR Inten    --      0.1545                 1.3114                 0.1619

                     16                     17                     18
                      A                      A                      A
 Frequencies --    280.1512               298.9710               313.4126
 Red. masses --      2.3890                 3.3845                 3.6780
 Frc consts  --      0.1105                 0.1782                 0.2129
 IR Inten    --     15.1138                 2.6753                 1.2383

                     19                     20                     21
                      A                      A                      A
 Frequencies --    323.3466               350.3467               360.0090
 Red. masses --      2.2964                 2.7480                 3.0177
 Frc consts  --      0.1415                 0.1987                 0.2304
 IR Inten    --      4.4340                 0.9994                 8.0141

                     22                     23                     24
                      A                      A                      A
 Frequencies --    380.9928               398.0902               403.5088
 Red. masses --      3.3291                 3.0980                 2.6114
 Frc consts  --      0.2847                 0.2893                 0.2505
 IR Inten    --      1.5547                 9.0345                 2.7300

                     25                     26                     27
                      A                      A                      A
 Frequencies --    424.4579               436.0079               464.4069
 Red. masses --      3.6882                 2.5648                 3.0106
 Frc consts  --      0.3915                 0.2873                 0.3826
 IR Inten    --     11.9435                 5.8868                22.7812

                     28                     29                     30
                      A                      A                      A
 Frequencies --    509.4816               515.5447               562.7588
 Red. masses --      2.7919                 2.9475                 4.4275
 Frc consts  --      0.4270                 0.4616                 0.8261
 IR Inten    --      6.3311                 5.3675                 4.7220

                     31                     32                     33
                      A                      A                      A
 Frequencies --    583.9738               612.6133               682.8018
 Red. masses --      4.3732                 3.1686                 2.0378
 Frc consts  --      0.8787                 0.7006                 0.5598
 IR Inten    --     21.5780                 4.6040                76.3106

                     34                     35                     36
                      A                      A                      A
 Frequencies --    702.8411               763.0728               782.4286
 Red. masses --      1.5189                 2.7749                 2.0440
 Frc consts  --      0.4421                 0.9520                 0.7373
 IR Inten    --    139.5329                21.6555                28.9661

                     37                     38                     39
                      A                      A                      A
 Frequencies --    815.7970               832.9842               847.8408
 Red. masses --      2.2409                 2.3740                 1.4201
 Frc consts  --      0.8787                 0.9705                 0.6014
 IR Inten    --      0.2862                11.9430                78.7528

                     40                     41                     42
                      A                      A                      A
 Frequencies --    861.5096               886.2430               918.4943
 Red. masses --      1.9777                 2.1445                 1.5033
 Frc consts  --      0.8648                 0.9924                 0.7472
 IR Inten    --     20.4406                28.1819                 1.8091

                     43                     44                     45
                      A                      A                      A
 Frequencies --    939.2503               944.4649               962.3769
 Red. masses --      1.8859                 1.1987                 1.7932
 Frc consts  --      0.9802                 0.6300                 0.9785
 IR Inten    --     15.3624                 2.4614                 3.2115

                     46                     47                     48
                      A                      A                      A
 Frequencies --    973.9013               980.0435               991.8966
 Red. masses --      1.7647                 1.4693                 1.8067
 Frc consts  --      0.9861                 0.8315                 1.0473
 IR Inten    --      4.5512                 1.5104                21.7011

                     49                     50                     51
                      A                      A                      A
 Frequencies --   1015.6328              1043.4047              1050.0070
 Red. masses --      2.3131                 1.5984                 3.1792
 Frc consts  --      1.4058                 1.0253                 2.0652
 IR Inten    --      7.5002                 3.1054                25.3836

                     52                     53                     54
                      A                      A                      A
 Frequencies --   1061.2181              1070.6758              1085.3487
 Red. masses --      2.0781                 3.2662                 3.1492
 Frc consts  --      1.3788                 2.2060                 2.1857
 IR Inten    --     20.9926                35.9448                39.3852

                     55                     56                     57
                      A                      A                      A
 Frequencies --   1093.5002              1106.1219              1125.9056
 Red. masses --      3.1330                 1.8508                 2.6743
 Frc consts  --      2.2072                 1.3342                 1.9974
 IR Inten    --     66.2430                 3.8601                22.1810

                     58                     59                     60
                      A                      A                      A
 Frequencies --   1146.7619              1166.6715              1172.5500
 Red. masses --      1.3400                 2.2140                 1.4950
 Frc consts  --      1.0383                 1.7755                 1.2110
 IR Inten    --     21.5441                 3.8378                 6.3391

                     61                     62                     63
                      A                      A                      A
 Frequencies --   1201.7672              1204.4883              1208.8337
 Red. masses --      1.9720                 1.6801                 1.7949
 Frc consts  --      1.6780                 1.4362                 1.5453
 IR Inten    --      4.4009                30.9019                 3.2260

                     64                     65                     66
                      A                      A                      A
 Frequencies --   1253.4322              1259.3772              1263.2307
 Red. masses --      1.4644                 1.5365                 1.4383
 Frc consts  --      1.3555                 1.4358                 1.3522
 IR Inten    --      1.8663                 1.8867                 6.0497

                     67                     68                     69
                      A                      A                      A
 Frequencies --   1271.1735              1304.2657              1311.9845
 Red. masses --      1.4781                 3.6363                 1.4536
 Frc consts  --      1.4072                 3.6445                 1.4742
 IR Inten    --     13.3431               162.9205                24.5073

                     70                     71                     72
                      A                      A                      A
 Frequencies --   1313.5702              1344.4278              1354.0067
 Red. masses --      1.3706                 1.2909                 1.2454
 Frc consts  --      1.3934                 1.3747                 1.3452
 IR Inten    --      5.7975                 3.5419                 5.3987

                     73                     74                     75
                      A                      A                      A
 Frequencies --   1375.1663              1379.7593              1389.0238
 Red. masses --      1.3180                 1.3334                 1.3459
 Frc consts  --      1.4685                 1.4956                 1.5300
 IR Inten    --      6.5049                 5.7359                 1.0715

                     76                     77                     78
                      A                      A                      A
 Frequencies --   1398.7150              1407.5961              1422.3944
 Red. masses --      1.2808                 1.3733                 1.4217
 Frc consts  --      1.4763                 1.6032                 1.6947
 IR Inten    --      3.4409                 5.3891                 2.2208

                     79                     80                     81
                      A                      A                      A
 Frequencies --   1431.0771              1435.4328              1445.8886
 Red. masses --      1.2613                 1.2380                 1.3396
 Frc consts  --      1.5219                 1.5030                 1.6501
 IR Inten    --      4.9061                 9.0243                13.7067

                     82                     83                     84
                      A                      A                      A
 Frequencies --   1449.8723              1475.8387              1487.1739
 Red. masses --      1.2364                 1.1289                 1.0990
 Frc consts  --      1.5313                 1.4488                 1.4320
 IR Inten    --      5.9874                38.9261                12.2721

                     85                     86                     87
                      A                      A                      A
 Frequencies --   1489.5383              1514.8122              1518.5556
 Red. masses --      1.1158                 1.0690                 1.0789
 Frc consts  --      1.4586                 1.4452                 1.4659
 IR Inten    --      2.6871                 0.5469                 3.1961

                     88                     89                     90
                      A                      A                      A
 Frequencies --   1521.2181              1524.5736              1528.6834
 Red. masses --      1.0637                 1.0565                 1.0568
 Frc consts  --      1.4503                 1.4469                 1.4550
 IR Inten    --      4.0048                 5.9243                 1.1419

                     91                     92                     93
                      A                      A                      A
 Frequencies --   1535.3457              1541.0478              1541.5679
 Red. masses --      1.0541                 1.0510                 1.0601
 Frc consts  --      1.4640                 1.4706                 1.4843
 IR Inten    --      3.3816                 2.7570                20.4717

                     94                     95                     96
                      A                      A                      A
 Frequencies --   1547.2597              1699.2954              2947.6442
 Red. masses --      1.0672                 1.0890                 1.0757
 Frc consts  --      1.5053                 1.8528                 5.5069
 IR Inten    --      1.1055                38.1934                76.4566

                     97                     98                     99
                      A                      A                      A
 Frequencies --   3020.2216              3030.8561              3035.0084
 Red. masses --      1.0628                 1.0715                 1.0420
 Frc consts  --      5.7119                 5.7994                 5.6549
 IR Inten    --     23.6277                 5.0974                34.8421

                    100                    101                    102
                      A                      A                      A
 Frequencies --   3038.5457              3043.6599              3051.2475
 Red. masses --      1.0567                 1.0659                 1.0490
 Frc consts  --      5.7480                 5.8176                 5.7539
 IR Inten    --      9.4909                11.7613                22.1752

                    103                    104                    105
                      A                      A                      A
 Frequencies --   3053.0572              3069.2502              3090.0114
 Red. masses --      1.0689                 1.0974                 1.0654
 Frc consts  --      5.8704                 6.0911                 5.9934
 IR Inten    --     32.4059                43.3783                 7.8723

                    106                    107                    108
                      A                      A                      A
 Frequencies --   3096.3934              3097.6815              3104.5090
 Red. masses --      1.0866                 1.0987                 1.0995
 Frc consts  --      6.1383                 6.2115                 6.2433
 IR Inten    --      7.0422                18.5949                75.1287

                    109                    110                    111
                      A                      A                      A
 Frequencies --   3111.1957              3119.9389              3120.2466
 Red. masses --      1.1018                 1.0944                 1.0606
 Frc consts  --      6.2835                 6.2766                 6.0838
 IR Inten    --     43.6292                49.2922                 4.3420

                    112                    113                    114
                      A                      A                      A
 Frequencies --   3123.0710              3145.5206              3156.2219
 Red. masses --      1.1000                 1.0955                 1.0854
 Frc consts  --      6.3212                 6.3862                 6.3702
 IR Inten    --     30.2971                 5.0058                14.1673

                    115                    116                    117
                      A                      A                      A
 Frequencies --   3160.7182              3179.3923              3192.6694
 Red. masses --      1.0990                 1.0992                 1.1079
 Frc consts  --      6.4687                 6.5466                 6.6536
 IR Inten    --     13.9846                 0.8896                 0.9656

                    118                    119                    120
                      A                      A                      A
 Frequencies --   3489.0331              3573.2628              3620.7148
 Red. masses --      1.0499                 1.0930                 1.0662
 Frc consts  --      7.5301                 8.2223                 8.2353
 IR Inten    --      0.2053                 0.2817               116.7407

 - Thermochemistry -
 -------------------
 Temperature   298.150 Kelvin.  Pressure   1.00000 Atm.
 Atom     1 has atomic number  6 and mass  12.00000

 Molecular mass:   263.15552 amu.
 Principal axes and moments of inertia in atomic units:
                           1         2         3
     Eigenvalues --  3186.725726187.985517080.76068
           X            0.99916  -0.03980  -0.00954
           Y            0.03947   0.99867  -0.03306
           Z            0.01084   0.03266   0.99941
 This molecule is an asymmetric top.
 Rotational symmetry number  1.
 Warning -- assumption of classical behavior for rotation
           may cause significant error
 Rotational temperatures (Kelvin)      0.02718     0.01400     0.01223
 Rotational constants (GHZ):           0.56633     0.29165     0.25488
 Zero-point vibrational energy     984849.0 (Joules/Mol)
                                  235.38457 (Kcal/Mol)
 Warning -- explicit consideration of  32 degrees of freedom as
           vibrations may cause significant error
 Vibrational temperatures:     50.38    75.81   119.13   122.25   153.77
          (Kelvin)            182.05   216.78   236.45   273.47   291.43
                              315.59   330.28   338.90   360.58   374.14
                              403.08   430.15   450.93   465.22   504.07
                              517.97   548.16   572.76   580.56   610.70
                              627.32   668.18   733.03   741.75   809.68
                              840.21   881.41   982.40  1011.23  1097.89
                             1125.74  1173.75  1198.48  1219.85  1239.52
                             1275.11  1321.51  1351.37  1358.87  1384.65
                             1401.23  1410.06  1427.12  1461.27  1501.23
                             1510.73  1526.86  1540.46  1561.57  1573.30
                             1591.46  1619.93  1649.93  1678.58  1687.04
                             1729.08  1732.99  1739.24  1803.41  1811.96
                             1817.51  1828.94  1876.55  1887.65  1889.93
                             1934.33  1948.11  1978.56  1985.17  1998.50
                             2012.44  2025.22  2046.51  2059.00  2065.27
                             2080.31  2086.04  2123.40  2139.71  2143.11
                             2179.48  2184.86  2188.69  2193.52  2199.43
                             2209.02  2217.22  2217.97  2226.16  2444.91
                             4241.00  4345.43  4360.73  4366.70  4371.79
                             4379.15  4390.06  4392.67  4415.97  4445.84
                             4455.02  4456.87  4466.70  4476.32  4488.90
                             4489.34  4493.40  4525.70  4541.10  4547.57
                             4574.44  4593.54  5019.94  5141.13  5209.40

 Zero-point correction=                           0.375109 (Hartree/Particle)
 Thermal correction to Energy=                    0.394176
 Thermal correction to Enthalpy=                  0.395121
 Thermal correction to Gibbs Free Energy=         0.329173
 Sum of electronic and zero-point Energies=          -1150.585209
 Sum of electronic and thermal Energies=             -1150.566141
 Sum of electronic and thermal Enthalpies=           -1150.565197
 Sum of electronic and thermal Free Energies=        -1150.631145

                     E (Thermal)             CV                S
                      KCal/Mol        Cal/Mol-Kelvin    Cal/Mol-Kelvin
 Total                  247.349             74.326            138.799
 Electronic               0.000              0.000              0.000
 Translational            0.889              2.981             42.602
 Rotational               0.889              2.981             33.301
 Vibrational            245.572             68.364             62.896
 Vibration     1          0.594              1.982              5.523
 Vibration     2          0.596              1.977              4.714
 Vibration     3          0.600              1.961              3.823
 Vibration     4          0.601              1.960              3.773
 Vibration     5          0.606              1.944              3.325
 Vibration     6          0.611              1.927              2.998
 Vibration     7          0.618              1.902              2.664
 Vibration     8          0.623              1.886              2.499
 Vibration     9          0.633              1.854              2.227
 Vibration    10          0.639              1.836              2.110
 Vibration    11          0.647              1.812              1.964
 Vibration    12          0.652              1.796              1.882
 Vibration    13          0.655              1.786              1.836
 Vibration    14          0.663              1.762              1.726
 Vibration    15          0.668              1.746              1.662
 Vibration    16          0.680              1.710              1.533
 Vibration    17          0.692              1.676              1.423
 Vibration    18          0.701              1.648              1.344
 Vibration    19          0.708              1.629              1.293
 Vibration    20          0.727              1.575              1.165
 Vibration    21          0.735              1.555              1.122
 Vibration    22          0.751              1.511              1.035
 Vibration    23          0.764              1.474              0.970
 Vibration    24          0.769              1.463              0.950
 Vibration    25          0.786              1.417              0.877
 Vibration    26          0.796              1.392              0.839
 Vibration    27          0.822              1.329              0.753
 Vibration    28          0.865              1.229              0.635
 Vibration    29          0.871              1.216              0.620
 Vibration    30          0.918              1.112              0.518
 Vibration    31          0.941              1.066              0.478
 Vibration    32          0.972              1.005              0.428

                           ! Non-Optimized Parameters !
 Normal termination of Gaussian 16 at Sun Dec 13 16:37:39 2020.

 ----------------------------------------------------------------------
 # B3LYP/6-311++G(d,p) empiricaldispersion=gd3bj scf=xqc pop=npa geom=c
 heck
 ----------------------------------------------------------------------

 ---------------------------------------
 CID_114201253_JID_7014_Energie_neutraal
 ---------------------------------------
 Structure from the checkpoint file:  "JID_7014.chk"
 Charge =  0 Multiplicity = 1

 SCF Done:  E(RB3LYP) =  -1151.21809339     A.U. after   15 cycles
 Normal termination of Gaussian 16 at Sun Dec 13 16:48:50 2020.

 ----------------------------------------------------------------------
 # B3LYP/6-311++G(d,p) empiricaldispersion=gd3bj scf=xqc pop=npa geom=c
 heck
 ----------------------------------------------------------------------

 -------------------------------------
 CID_114201253_JID_7014_Energie_kation
 -------------------------------------
 Structure from the checkpoint file:  "JID_7014.chk"
 Charge =  1 Multiplicity = 2

 SCF Done:  E(UB3LYP) =  -1150.88926928     A.U. after   27 cycles
 Normal termination of Gaussian 16 at Sun Dec 13 17:16:55 2020.
 Gaussian 16:  ES64L-G16RevA.03 25-Dec-2016

 ----------------------------------------------------------------------
 # B3LYP/6-311++G(d,p) empiricaldispersion=gd3bj scf=xqc pop=npa geom=c
 heck
 ----------------------------------------------------------------------

 ------------------------------------
 CID_114201253_JID_7014_Energie_anion
 ------------------------------------
 Structure from the checkpoint file:  "JID_7014.chk"
 Charge = -1 Multiplicity = 2

                         Standard orientation:
 ---------------------------------------------------------------------
 Center     Atomic      Atomic             Coordinates (Angstroms)
 Number     Number       Type             X           Y           Z
 ---------------------------------------------------------------------
      1          6           0        3.286927   -2.047731   -0.437358
      2          6           0        3.575565   -0.555869   -0.229669
      3          6           0        4.473764   -0.018947   -1.351340
      4          6           0        2.281637    0.276904   -0.157305
      5          6           0        1.283349   -0.120367    0.945632
      6          6           0        1.969548   -0.122055    2.322149
      7          6           0        0.021076    0.778633    1.027702
      8          6           0       -0.804010    1.008449   -0.289229
      9          6           0       -2.273471    1.413218    0.075574
     10          6           0       -3.149279    0.180623    0.345908
     11         16           0       -2.264853   -1.245216   -0.395723
     12          8           0       -3.083490   -1.923991   -1.410533
     13          8           0       -1.648875   -2.042985    0.694060
     14          6           0       -0.956069   -0.244874   -1.166979
     15          6           0       -0.206003    2.157681   -1.142040
     16          7           0       -0.132439    3.407222   -0.385442
     17          8           0       -0.822527    0.298326    2.078606
     18          1           0        2.706422   -2.206455   -1.356272
     19          1           0        2.718759   -2.478199    0.393406
     20          1           0        4.218449   -2.616921   -0.533379
     21          1           0        4.120868   -0.439468    0.715724
     22          1           0        3.983110   -0.122035   -2.328219
     23          1           0        4.704679    1.042792   -1.204043
     24          1           0        5.421738   -0.567031   -1.397216
     25          1           0        2.551113    1.334470   -0.023119
     26          1           0        1.806542    0.201539   -1.143473
     27          1           0        0.929487   -1.141427    0.745766
     28          1           0        2.451480    0.845983    2.511025
     29          1           0        1.240054   -0.294457    3.115111
     30          1           0        2.738152   -0.897657    2.385913
     31          1           0        0.322328    1.780508    1.347595
     32          1           0       -2.694659    1.963473   -0.774711
     33          1           0       -2.274635    2.070892    0.946199
     34          1           0       -4.130427    0.224201   -0.130283
     35          1           0       -3.249494   -0.039851    1.407792
     36          1           0       -0.070863   -0.875181   -1.248435
     37          1           0       -1.314909    0.008724   -2.169803
     38          1           0        0.807183    1.907521   -1.456645
     39          1           0       -0.812027    2.232003   -2.063589
     40          1           0        0.442908    4.081356   -0.883788
     41          1           0       -1.055485    3.825642   -0.293668
     42          1           0       -0.975115   -0.652306    1.912447
 ---------------------------------------------------------------------

 SCF Done:  E(UB3LYP) =  -1151.21273841     A.U. after   28 cycles

 The electronic state is 2-A.
 Alpha  occ. eigenvalues --  -88.95928 -19.03541 -19.03393 -19.02241 -14.19661
 Alpha  occ. eigenvalues --  -10.12766 -10.12339 -10.12307 -10.11433 -10.10267
 Alpha  occ. eigenvalues --  -10.09740 -10.08909 -10.08760 -10.07740 -10.07589
 Alpha  occ. eigenvalues --  -10.07120 -10.06819  -8.02500  -5.98776  -5.98624
 Alpha  occ. eigenvalues --   -5.98583  -1.02348  -0.93222  -0.91924  -0.79924
 Alpha  occ. eigenvalues --   -0.76126  -0.73696  -0.69312  -0.67331  -0.64669
 Alpha  occ. eigenvalues --   -0.60247  -0.59307  -0.58046  -0.56496  -0.51861
 Alpha  occ. eigenvalues --   -0.49898  -0.48012  -0.46824  -0.43036  -0.41930
 Alpha  occ. eigenvalues --   -0.40417  -0.39669  -0.39501  -0.38423  -0.37866
 Alpha  occ. eigenvalues --   -0.36688  -0.35895  -0.35110  -0.34135  -0.33544
 Alpha  occ. eigenvalues --   -0.32812  -0.32661  -0.31592  -0.30582  -0.30305
 Alpha  occ. eigenvalues --   -0.29590  -0.29306  -0.28456  -0.26813  -0.26670
 Alpha  occ. eigenvalues --   -0.26189  -0.26029  -0.25156  -0.24416  -0.24105
 Alpha  occ. eigenvalues --   -0.23266  -0.22872  -0.22437  -0.20991  -0.20217
 Alpha  occ. eigenvalues --   -0.18387  -0.14881   0.03779
 Alpha virt. eigenvalues --    0.05675   0.06833   0.07290   0.08018   0.08099
 Alpha virt. eigenvalues --    0.08469   0.09501   0.09907   0.10214   0.10291
 Alpha virt. eigenvalues --    0.10856   0.11083   0.12053   0.12264   0.12708

  Beta  occ. eigenvalues --  -88.95928 -19.03540 -19.03390 -19.02240 -14.19602
  Beta  occ. eigenvalues --  -10.12758 -10.12330 -10.12297 -10.11435 -10.10231
  Beta  occ. eigenvalues --  -10.09703 -10.08904 -10.08758 -10.07728 -10.07577
  Beta  occ. eigenvalues --  -10.07095 -10.06814  -8.02500  -5.98776  -5.98624
  Beta  occ. eigenvalues --   -5.98584  -1.02344  -0.93219  -0.91921  -0.79851
  Beta  occ. eigenvalues --   -0.76078  -0.73681  -0.69292  -0.67307  -0.64626
  Beta  occ. eigenvalues --   -0.60216  -0.59278  -0.58016  -0.56402  -0.51840
  Beta  occ. eigenvalues --   -0.49862  -0.47974  -0.46790  -0.43016  -0.41901
  Beta  occ. eigenvalues --   -0.40385  -0.39634  -0.39475  -0.38400  -0.37842
  Beta  occ. eigenvalues --   -0.36666  -0.35859  -0.35081  -0.34063  -0.33523
  Beta  occ. eigenvalues --   -0.32777  -0.32637  -0.31561  -0.30552  -0.30284
  Beta  occ. eigenvalues --   -0.29556  -0.29288  -0.28430  -0.26791  -0.26654
  Beta  occ. eigenvalues --   -0.26155  -0.26008  -0.25138  -0.24403  -0.24091
  Beta  occ. eigenvalues --   -0.23257  -0.22854  -0.22415  -0.20981  -0.20203
  Beta  occ. eigenvalues --   -0.18376  -0.14820
  Beta virt. eigenvalues --    0.05827   0.06865   0.07416   0.07508   0.08370
  Beta virt. eigenvalues --    0.08455   0.08927   0.09841   0.10096   0.10440
  Beta virt. eigenvalues --    0.10561   0.10900   0.11439   0.12285   0.12428

 Mulliken charges and spin densities:
               1          2
     1  C   -0.372915  -0.316667
     2  C   -0.807885   1.007129
     3  C    0.264464  -0.895771
     4  C   -0.965544   0.285311
     5  C    0.773124  -0.568868
     6  C   -0.175912  -0.412383
     7  C   -0.102944  -0.132184
     8  C   -0.232659   0.814701
     9  C    1.002305  -0.903635
    10  C   -0.803143  -0.197981
    11  S    0.123771   0.041726
    12  O   -0.024425   0.002644
    13  O   -0.227535  -0.000960
    14  C   -0.361560  -0.652741
    15  C    1.096043  -1.667738
    16  N   -0.562235   0.244879
    17  O   -0.111722   0.008140
    18  H    0.062705   0.080689
    19  H    0.097236   0.041417
    20  H   -0.008389   0.162302
    21  H    0.093115   0.066228
    22  H   -0.096021   0.240779
    23  H   -0.252317   0.391997
    24  H   -0.122931   0.268477
    25  H    0.334927  -0.155014
    26  H    0.328154  -0.269777
    27  H    0.298965  -0.086220
    28  H    0.059552   0.091835
    29  H    0.128049   0.019524
    30  H    0.114849   0.032372
    31  H    0.343309  -0.041930
    32  H   -0.450897   0.668824
    33  H    0.037776   0.179141
    34  H    0.054406   0.194402
    35  H    0.262017  -0.009796
    36  H    0.260100   0.058777
    37  H    0.028315   0.263102
    38  H   -0.406448   0.607151
    39  H   -0.376234   0.548320
    40  H   -0.366085   0.625540
    41  H   -0.109452   0.350280
    42  H    0.174072   0.015976
 Sum of Mulliken charges =  -1.00000   1.00000

 Dipole moment (field-independent basis, Debye):
    X=              0.2810    Y=             -5.9533    Z=              4.5413  Tot=              7.4930
 Quadrupole moment (field-independent basis, Debye-Ang):
   XX=           -180.0558   YY=           -188.3689   ZZ=           -158.0147
   XY=             -2.3855   XZ=             -1.7624   YZ=              9.9284

 Summary of Natural Population Analysis:

                                       Natural Population
                Natural  -----------------------------------------------
    Atom  No    Charge         Core      Valence    Rydberg      Total
 -----------------------------------------------------------------------
      C    1   -0.28632      0.99965     2.28185    0.00482     3.28632
      C    2   -0.11383      0.99962     2.10545    0.00877     3.11383
      C    3   -0.28234      0.99965     2.27699    0.00571     3.28234
      C    4   -0.19026      0.99960     2.18081    0.00985     3.19026
      C    5   -0.12733      0.99958     2.11822    0.00953     3.12733
      C    6   -0.28611      0.99965     2.28132    0.00514     3.28611
      C    7    0.06325      0.99948     1.92004    0.01723     2.93675
      C    8   -0.05600      0.99954     2.03925    0.01722     3.05600
      C    9   -0.20151      0.99959     2.18970    0.01223     3.20151
      C   10   -0.28260      0.99959     2.27271    0.01030     3.28260
      S   11    1.01296      4.99927     1.89599    0.09178     6.98704
      O   12   -0.46160      0.99991     3.45614    0.00555     4.46160
      O   13   -0.48245      0.99990     3.47731    0.00524     4.48245
      C   14   -0.29131      0.99953     2.27790    0.01388     3.29131
      C   15   -0.08537      0.99955     2.07197    0.01384     3.08537
      N   16   -0.42509      0.99976     2.91473    0.01060     3.92509
      O   17   -0.38719      0.99990     3.38120    0.00610     4.38719
      H   18    0.09636      0.00000     0.40278    0.00086     0.40364
      H   19    0.09962      0.00000     0.39966    0.00072     0.40038
      H   20    0.09858      0.00000     0.40070    0.00073     0.40142
      H   21    0.09283      0.00000     0.40548    0.00169     0.40717
      H   22    0.09709      0.00000     0.40194    0.00098     0.40291
      H   23    0.10155      0.00000     0.39750    0.00095     0.39845
      H   24    0.09718      0.00000     0.40200    0.00082     0.40282
      H   25    0.10321      0.00000     0.39539    0.00139     0.39679
      H   26    0.09373      0.00000     0.40397    0.00229     0.40627
      H   27    0.09839      0.00000     0.39948    0.00213     0.40161
      H   28    0.09725      0.00000     0.40194    0.00080     0.40275
      H   29    0.10846      0.00000     0.39067    0.00086     0.39154
      H   30    0.09637      0.00000     0.40292    0.00072     0.40363
      H   31    0.10532      0.00000     0.39246    0.00222     0.39468
      H   32    0.10840      0.00000     0.38925    0.00235     0.39160
      H   33    0.11877      0.00000     0.38007    0.00116     0.38123
      H   34    0.11670      0.00000     0.38214    0.00117     0.38330
      H   35    0.12040      0.00000     0.37849    0.00111     0.37960
      H   36    0.12268      0.00000     0.37622    0.00110     0.37732
      H   37    0.12241      0.00000     0.37624    0.00136     0.37759
      H   38    0.09939      0.00000     0.39847    0.00214     0.40061
      H   39    0.08516      0.00000     0.41089    0.00395     0.41484
      H   40    0.18512      0.00000     0.31045    0.00443     0.31488
      H   41    0.17878      0.00000     0.31736    0.00386     0.32122
      H   42    0.23936      0.00000     0.25793    0.00271     0.26064
 =======================================================================
   * Total *    0.00000     20.99376    50.71596    0.29028    72.00000

 Normal termination of Gaussian 16 at Sun Dec 13 17:44:15 2020.
