 Gaussian 16, Revision A.03,

 -----------------------------------------------------------
 # opt freq B3LYP/6-31G(d) empiricaldispersion=gd3bj scf=xqc
 -----------------------------------------------------------

 ------------------------------
 CID_62353401_JID_5895_neutraal
 ------------------------------
 Symbolic Z-matrix:
 Charge =  0 Multiplicity = 1

 SCF Done:  E(RB3LYP) =  -673.943673994     A.U. after   14 cycles
 SCF Done:  E(RB3LYP) =  -673.946969665     A.U. after   12 cycles
 SCF Done:  E(RB3LYP) =  -673.943651332     A.U. after   14 cycles
 SCF Done:  E(RB3LYP) =  -673.947353579     A.U. after   12 cycles
 SCF Done:  E(RB3LYP) =  -673.948325156     A.U. after   12 cycles
 SCF Done:  E(RB3LYP) =  -673.948800285     A.U. after   11 cycles
 SCF Done:  E(RB3LYP) =  -673.948925224     A.U. after   11 cycles
 SCF Done:  E(RB3LYP) =  -673.948986184     A.U. after   11 cycles
 SCF Done:  E(RB3LYP) =  -673.949026127     A.U. after   10 cycles
 SCF Done:  E(RB3LYP) =  -673.949045663     A.U. after   10 cycles
 SCF Done:  E(RB3LYP) =  -673.949181627     A.U. after   11 cycles
 SCF Done:  E(RB3LYP) =  -673.949182100     A.U. after   10 cycles
 SCF Done:  E(RB3LYP) =  -673.949182232     A.U. after   10 cycles
 SCF Done:  E(RB3LYP) =  -673.949182276     A.U. after    7 cycles
 SCF Done:  E(RB3LYP) =  -673.949182227     A.U. after    7 cycles
 Optimization completed.
    -- Stationary point found.
 Normal termination of Gaussian 16 at Thu Dec 10 17:46:15 2020.

 --------------------------------------------------------------------
 #N Geom=AllCheck Guess=TCheck SCRF=Check GenChk RB3LYP/6-31G(d) Freq
 --------------------------------------------------------------------

 Structure from the checkpoint file:  "JID_5895.chk"
 ------------------------------
 CID_62353401_JID_5895_neutraal
 ------------------------------
 Charge =  0 Multiplicity = 1

 SCF Done:  E(RB3LYP) =  -673.949182227     A.U. after    1 cycles

  Exact polarizability: 157.851  20.213 133.347 -15.270  11.213 113.063
 Approx polarizability: 205.314  34.900 205.180 -27.453  29.533 184.986

                      1                      2                      3
                      A                      A                      A
 Frequencies --     20.1395                33.7021                39.4702
 Red. masses --      4.3230                 3.7324                 4.0105
 Frc consts  --      0.0010                 0.0025                 0.0037
 IR Inten    --      0.0866                 0.5153                 3.1154

                      4                      5                      6
                      A                      A                      A
 Frequencies --     67.4948                79.2961               138.2997
 Red. masses --      4.0383                 2.4657                 2.9311
 Frc consts  --      0.0108                 0.0091                 0.0330
 IR Inten    --      1.5015                 5.6689                 7.5666

                      7                      8                      9
                      A                      A                      A
 Frequencies --    173.1427               216.3675               223.1344
 Red. masses --      3.8404                 1.2402                 3.9703
 Frc consts  --      0.0678                 0.0342                 0.1165
 IR Inten    --      5.7819                13.7662                 0.4240

                     10                     11                     12
                      A                      A                      A
 Frequencies --    230.6351               240.7591               267.7006
 Red. masses --      1.4242                 1.5273                 1.1856
 Frc consts  --      0.0446                 0.0522                 0.0501
 IR Inten    --      3.3235                14.7282                 3.7404

                     13                     14                     15
                      A                      A                      A
 Frequencies --    301.9462               334.8735               363.6099
 Red. masses --      2.8669                 2.2602                 2.6591
 Frc consts  --      0.1540                 0.1493                 0.2071
 IR Inten    --      1.9801                 8.0844                 1.3412

                     16                     17                     18
                      A                      A                      A
 Frequencies --    373.7849               397.0617               426.0526
 Red. masses --      2.6635                 3.0398                 3.2078
 Frc consts  --      0.2193                 0.2824                 0.3431
 IR Inten    --      0.7252                 2.6713                 0.9424

                     19                     20                     21
                      A                      A                      A
 Frequencies --    427.0876               496.0540               515.9335
 Red. masses --      3.3346                 2.5734                 3.0974
 Frc consts  --      0.3584                 0.3731                 0.4858
 IR Inten    --      2.2790                 2.1831                 4.9516

                     22                     23                     24
                      A                      A                      A
 Frequencies --    536.5374               563.1069               566.0778
 Red. masses --      2.6047                 3.2010                 4.6465
 Frc consts  --      0.4418                 0.5980                 0.8773
 IR Inten    --      7.4801                 6.8866                11.5878

                     25                     26                     27
                      A                      A                      A
 Frequencies --    631.4263               702.3849               741.1885
 Red. masses --      6.3494                 2.4913                 3.1551
 Frc consts  --      1.4915                 0.7242                 1.0212
 IR Inten    --      1.2956                13.7935                 7.5573

                     28                     29                     30
                      A                      A                      A
 Frequencies --    764.8895               787.8999               837.0732
 Red. masses --      1.5443                 4.2366                 1.2499
 Frc consts  --      0.5323                 1.5496                 0.5160
 IR Inten    --     58.1360                 8.9517                 3.1937

                     31                     32                     33
                      A                      A                      A
 Frequencies --    854.3620               863.8275               897.6027
 Red. masses --      1.2631                 2.2112                 1.4429
 Frc consts  --      0.5432                 0.9721                 0.6850
 IR Inten    --     85.5005                20.5833                18.7037

                     34                     35                     36
                      A                      A                      A
 Frequencies --    913.3501               917.2329               944.9998
 Red. masses --      2.0294                 2.3361                 1.5650
 Frc consts  --      0.9974                 1.1580                 0.8234
 IR Inten    --      4.0872                25.8415                13.7941

                     37                     38                     39
                      A                      A                      A
 Frequencies --    958.1220               972.2709               978.2496
 Red. masses --      1.3229                 2.1806                 1.2182
 Frc consts  --      0.7155                 1.2145                 0.6868
 IR Inten    --      0.4165                59.9687                 2.9619

                     40                     41                     42
                      A                      A                      A
 Frequencies --   1017.3842              1018.7535              1043.2746
 Red. masses --      1.3998                 5.3871                 1.4162
 Frc consts  --      0.8537                 3.2941                 0.9082
 IR Inten    --      4.8558                 0.3285                 4.6630

                     43                     44                     45
                      A                      A                      A
 Frequencies --   1056.8577              1088.8314              1097.7296
 Red. masses --      2.3227                 3.2803                 2.5928
 Frc consts  --      1.5285                 2.2913                 1.8408
 IR Inten    --      0.6136                45.9723                 7.3250

                     46                     47                     48
                      A                      A                      A
 Frequencies --   1114.1629              1134.2601              1151.2418
 Red. masses --      1.6037                 1.9820                 2.8687
 Frc consts  --      1.1730                 1.5024                 2.2401
 IR Inten    --      9.4948                41.9317                56.2080

                     49                     50                     51
                      A                      A                      A
 Frequencies --   1162.6670              1188.8830              1211.6762
 Red. masses --      1.7284                 1.0967                 1.1690
 Frc consts  --      1.3766                 0.9133                 1.0112
 IR Inten    --      1.3546                 2.2016                17.2063

                     52                     53                     54
                      A                      A                      A
 Frequencies --   1214.2328              1255.6595              1273.1176
 Red. masses --      2.1714                 2.1573                 2.0645
 Frc consts  --      1.8862                 2.0040                 1.9715
 IR Inten    --     44.7129                69.8776               117.9942

                     55                     56                     57
                      A                      A                      A
 Frequencies --   1292.2736              1309.7284              1326.7431
 Red. masses --      1.4648                 2.1521                 1.4109
 Frc consts  --      1.4413                 2.1750                 1.4632
 IR Inten    --     66.2288                 7.2303                34.7775

                     58                     59                     60
                      A                      A                      A
 Frequencies --   1342.5137              1355.4062              1376.3953
 Red. masses --      1.4618                 1.6380                 2.4266
 Frc consts  --      1.5523                 1.7730                 2.7085
 IR Inten    --     25.3018                39.0977                22.6787

                     61                     62                     63
                      A                      A                      A
 Frequencies --   1419.5011              1425.6793              1436.7804
 Red. masses --      1.2859                 1.3034                 1.3528
 Frc consts  --      1.5266                 1.5609                 1.6454
 IR Inten    --      6.6712                13.0243                 8.9498

                     64                     65                     66
                      A                      A                      A
 Frequencies --   1441.2710              1457.4820              1505.1287
 Red. masses --      1.3645                 1.3276                 2.1324
 Frc consts  --      1.6700                 1.6615                 2.8461
 IR Inten    --      6.5074                14.6047                 0.1660

                     67                     68                     69
                      A                      A                      A
 Frequencies --   1505.7494              1518.9420              1522.4269
 Red. masses --      1.0736                 1.0529                 1.0888
 Frc consts  --      1.4342                 1.4313                 1.4869
 IR Inten    --      0.2428                 2.1902                 4.5270

                     70                     71                     72
                      A                      A                      A
 Frequencies --   1523.9220              1539.0257              1539.1964
 Red. masses --      1.1060                 1.0674                 1.0836
 Frc consts  --      1.5133                 1.4896                 1.5125
 IR Inten    --      5.2492                 1.8259                 5.1609

                     73                     74                     75
                      A                      A                      A
 Frequencies --   1548.8326              1549.9142              1645.9601
 Red. masses --      1.0754                 2.1875                 5.8727
 Frc consts  --      1.5200                 3.0961                 9.3741
 IR Inten    --     15.3484                89.9804                14.2421

                     76                     77                     78
                      A                      A                      A
 Frequencies --   1665.4063              1696.2511              2956.5150
 Red. masses --      5.6063                 1.0880                 1.0743
 Frc consts  --      9.1616                 1.8444                 5.5327
 IR Inten    --     75.5497                35.6724                72.1765

                     79                     80                     81
                      A                      A                      A
 Frequencies --   3037.6512              3056.8839              3059.0489
 Red. masses --      1.0587                 1.0374                 1.0580
 Frc consts  --      5.7555                 5.7114                 5.8335
 IR Inten    --     24.1015                17.5847                45.1892

                     82                     83                     84
                      A                      A                      A
 Frequencies --   3061.8821              3068.2636              3085.4054
 Red. masses --      1.0394                 1.0852                 1.1013
 Frc consts  --      5.7415                 6.0191                 6.1773
 IR Inten    --     10.3219                38.9424                43.1330

                     85                     86                     87
                      A                      A                      A
 Frequencies --   3108.8781              3123.4959              3129.7531
 Red. masses --      1.1079                 1.1004                 1.1025
 Frc consts  --      6.3091                 6.3254                 6.3628
 IR Inten    --     30.9290                24.1977                31.0190

                     88                     89                     90
                      A                      A                      A
 Frequencies --   3136.6492              3147.8448              3180.9978
 Red. masses --      1.1028                 1.1019                 1.0853
 Frc consts  --      6.3925                 6.4333                 6.4704
 IR Inten    --     23.2487                21.4481                 2.0524

                     91                     92                     93
                      A                      A                      A
 Frequencies --   3188.8320              3206.6586              3215.3276
 Red. masses --      1.0895                 1.0934                 1.0956
 Frc consts  --      6.5274                 6.6244                 6.6734
 IR Inten    --     20.4785                31.9276                11.7129

                     94                     95                     96
                      A                      A                      A
 Frequencies --   3258.5736              3477.0797              3560.6882
 Red. masses --      1.0911                 1.0496                 1.0923
 Frc consts  --      6.8261                 7.4769                 8.1597
 IR Inten    --      0.7653                 1.6246                 0.0457

 - Thermochemistry -
 -------------------
 Temperature   298.150 Kelvin.  Pressure   1.00000 Atm.
 Atom     1 has atomic number  6 and mass  12.00000

 Molecular mass:   209.14158 amu.
 Principal axes and moments of inertia in atomic units:
                           1         2         3
     Eigenvalues --  1597.523785141.263515796.72367
           X            1.00000  -0.00083   0.00152
           Y            0.00083   1.00000  -0.00011
           Z           -0.00152   0.00011   1.00000
 This molecule is an asymmetric top.
 Rotational symmetry number  1.
 Warning -- assumption of classical behavior for rotation
           may cause significant error
 Rotational temperatures (Kelvin)      0.05422     0.01685     0.01494
 Rotational constants (GHZ):           1.12971     0.35103     0.31134
 Zero-point vibrational energy     782542.2 (Joules/Mol)
                                  187.03207 (Kcal/Mol)
 Warning -- explicit consideration of  24 degrees of freedom as
           vibrations may cause significant error
 Vibrational temperatures:     28.98    48.49    56.79    97.11   114.09
          (Kelvin)            198.98   249.11   311.30   321.04   331.83
                              346.40   385.16   434.43   481.81   523.15
                              537.79   571.28   612.99   614.48   713.71
                              742.31   771.96   810.19   814.46   908.48
                             1010.58  1066.40  1100.51  1133.61  1204.36
                             1229.24  1242.86  1291.45  1314.11  1319.69
                             1359.64  1378.52  1398.88  1407.48  1463.79
                             1465.76  1501.04  1520.58  1566.59  1579.39
                             1603.03  1631.95  1656.38  1672.82  1710.54
                             1743.33  1747.01  1806.61  1831.73  1859.29
                             1884.41  1908.89  1931.58  1950.13  1980.33
                             2042.35  2051.23  2067.21  2073.67  2096.99
                             2165.54  2166.44  2185.42  2190.43  2192.58
                             2214.31  2214.56  2228.42  2229.98  2368.17
                             2396.15  2440.53  4253.77  4370.50  4398.17
                             4401.29  4405.37  4414.55  4439.21  4472.98
                             4494.01  4503.02  4512.94  4529.05  4576.75
                             4588.02  4613.67  4626.14  4688.36  5002.74
                             5123.04

 Zero-point correction=                           0.298055 (Hartree/Particle)
 Thermal correction to Energy=                    0.313773
 Thermal correction to Enthalpy=                  0.314717
 Thermal correction to Gibbs Free Energy=         0.253622
 Sum of electronic and zero-point Energies=           -673.651128
 Sum of electronic and thermal Energies=              -673.635410
 Sum of electronic and thermal Enthalpies=            -673.634466
 Sum of electronic and thermal Free Energies=         -673.695560

                     E (Thermal)             CV                S
                      KCal/Mol        Cal/Mol-Kelvin    Cal/Mol-Kelvin
 Total                  196.895             59.710            128.585
 Electronic               0.000              0.000              0.000
 Translational            0.889              2.981             41.917
 Rotational               0.889              2.981             32.232
 Vibrational            195.118             53.749             54.435
 Vibration     1          0.593              1.986              6.620
 Vibration     2          0.594              1.983              5.599
 Vibration     3          0.594              1.981              5.286
 Vibration     4          0.598              1.970              4.225
 Vibration     5          0.600              1.963              3.908
 Vibration     6          0.614              1.915              2.827
 Vibration     7          0.627              1.876              2.401
 Vibration     8          0.645              1.816              1.989
 Vibration     9          0.649              1.806              1.934
 Vibration    10          0.652              1.794              1.874
 Vibration    11          0.658              1.778              1.797
 Vibration    12          0.673              1.732              1.611
 Vibration    13          0.694              1.670              1.406
 Vibration    14          0.716              1.606              1.236
 Vibration    15          0.737              1.547              1.107
 Vibration    16          0.745              1.526              1.064
 Vibration    17          0.764              1.476              0.974
 Vibration    18          0.788              1.414              0.872
 Vibration    19          0.789              1.411              0.868
 Vibration    20          0.852              1.259              0.668
 Vibration    21          0.871              1.215              0.619
 Vibration    22          0.892              1.169              0.573
 Vibration    23          0.919              1.111              0.518
 Vibration    24          0.922              1.105              0.512

 Optimization completed.
    -- Stationary point found.
 Normal termination of Gaussian 16 at Thu Dec 10 17:56:53 2020.

 ----------------------------------------------------------------------
 # B3LYP/6-311++G(d,p) empiricaldispersion=gd3bj scf=xqc pop=npa geom=c
 heck
 ----------------------------------------------------------------------

 --------------------------------------
 CID_62353401_JID_5895_Energie_neutraal
 --------------------------------------
 Structure from the checkpoint file:  "JID_5895.chk"
 Charge =  0 Multiplicity = 1

 SCF Done:  E(RB3LYP) =  -674.146195628     A.U. after   14 cycles
 Normal termination of Gaussian 16 at Thu Dec 10 18:01:12 2020.

 ----------------------------------------------------------------------
 # B3LYP/6-311++G(d,p) empiricaldispersion=gd3bj scf=xqc pop=npa geom=c
 heck
 ----------------------------------------------------------------------

 ------------------------------------
 CID_62353401_JID_5895_Energie_kation
 ------------------------------------
 Structure from the checkpoint file:  "JID_5895.chk"
 Charge =  1 Multiplicity = 2

 SCF Done:  E(UB3LYP) =  -673.864225943     A.U. after   23 cycles
 Normal termination of Gaussian 16 at Thu Dec 10 18:10:19 2020.
 Gaussian 16:  ES64L-G16RevA.03 25-Dec-2016

 ----------------------------------------------------------------------
 # B3LYP/6-311++G(d,p) empiricaldispersion=gd3bj scf=xqc pop=npa geom=c
 heck
 ----------------------------------------------------------------------

 -----------------------------------
 CID_62353401_JID_5895_Energie_anion
 -----------------------------------
 Structure from the checkpoint file:  "JID_5895.chk"
 Charge = -1 Multiplicity = 2

                         Standard orientation:
 ---------------------------------------------------------------------
 Center     Atomic      Atomic             Coordinates (Angstroms)
 Number     Number       Type             X           Y           Z
 ---------------------------------------------------------------------
      1          6           0        1.922301   -2.049990   -0.431434
      2          6           0        1.913022   -0.716853    0.322369
      3          6           0        1.035429   -0.832872    1.576342
      4          6           0        3.343204   -0.292799    0.722075
      5          7           0        4.145768    0.114859   -0.431545
      6          8           0        1.329790    0.195605   -0.618902
      7          6           0        1.323478    1.576162   -0.306297
      8          6           0       -0.031624    2.170317   -0.649390
      9          8           0       -1.038317    1.794760    0.290697
     10          6           0       -1.872635    0.738595    0.042652
     11          6           0       -2.989230    0.656092    0.885477
     12          6           0       -3.904568   -0.380350    0.733582
     13          6           0       -3.726557   -1.342946   -0.263765
     14          6           0       -2.613044   -1.255758   -1.097532
     15          6           0       -1.679501   -0.226567   -0.952822
     16          1           0        2.349068   -2.845613    0.188134
     17          1           0        2.497369   -1.973493   -1.359897
     18          1           0        0.898018   -2.326898   -0.697975
     19          1           0        1.473644   -1.537143    2.292576
     20          1           0        0.925576    0.133062    2.079232
     21          1           0        0.037278   -1.185024    1.303108
     22          1           0        3.288295    0.564994    1.402927
     23          1           0        3.772108   -1.124520    1.310218
     24          1           0        5.089989    0.339902   -0.124436
     25          1           0        4.236809   -0.660422   -1.084924
     26          1           0        1.510530    1.757662    0.758436
     27          1           0        2.114446    2.082939   -0.875783
     28          1           0        0.031921    3.262509   -0.585194
     29          1           0       -0.330266    1.904024   -1.669434
     30          1           0       -3.117172    1.417256    1.648549
     31          1           0       -4.765579   -0.431970    1.394625
     32          1           0       -4.442842   -2.150157   -0.383919
     33          1           0       -2.453351   -2.002929   -1.870704
     34          1           0       -0.789644   -0.209294   -1.566631
 ---------------------------------------------------------------------

 SCF Done:  E(UB3LYP) =  -674.132130116     A.U. after   33 cycles
 SCF Done:  E(UB3LYP) =  -674.132130116     a.u. after    1 cycles

 The electronic state is 2-A.
 Alpha  occ. eigenvalues --  -19.05976 -19.02023 -14.18679 -10.14405 -10.13552
 Alpha  occ. eigenvalues --  -10.13039 -10.11875 -10.08789 -10.08683 -10.08554
 Alpha  occ. eigenvalues --  -10.08038 -10.07840 -10.07764 -10.05865 -10.05799
 Alpha  occ. eigenvalues --   -0.97570  -0.93526  -0.77845  -0.76351  -0.70165
 Alpha  occ. eigenvalues --   -0.67125  -0.65802  -0.62919  -0.59450  -0.56344
 Alpha  occ. eigenvalues --   -0.55031  -0.52060  -0.49551  -0.46114  -0.44776
 Alpha  occ. eigenvalues --   -0.40821  -0.40230  -0.39150  -0.38247  -0.37208
 Alpha  occ. eigenvalues --   -0.36039  -0.35560  -0.34013  -0.33323  -0.32764
 Alpha  occ. eigenvalues --   -0.32084  -0.31028  -0.29755  -0.29147  -0.27971
 Alpha  occ. eigenvalues --   -0.27727  -0.27189  -0.26842  -0.25390  -0.25133
 Alpha  occ. eigenvalues --   -0.24036  -0.22804  -0.20465  -0.16854  -0.16137
 Alpha  occ. eigenvalues --   -0.14077  -0.13120   0.04321
 Alpha virt. eigenvalues --    0.05777   0.06879   0.07253   0.07509   0.07992
 Alpha virt. eigenvalues --    0.08247   0.08716   0.09136   0.09754   0.10076
 Alpha virt. eigenvalues --    0.10598   0.11248   0.11954   0.12086   0.12960

  Beta  occ. eigenvalues --  -19.05974 -19.02018 -14.18630 -10.14403 -10.13543
  Beta  occ. eigenvalues --  -10.13037 -10.11862 -10.08759 -10.08675 -10.08544
  Beta  occ. eigenvalues --  -10.08032 -10.07827 -10.07761 -10.05853 -10.05768
  Beta  occ. eigenvalues --   -0.97564  -0.93517  -0.77766  -0.76335  -0.70138
  Beta  occ. eigenvalues --   -0.67101  -0.65784  -0.62895  -0.59405  -0.56254
  Beta  occ. eigenvalues --   -0.55000  -0.52037  -0.49524  -0.46072  -0.44750
  Beta  occ. eigenvalues --   -0.40786  -0.40203  -0.39115  -0.38213  -0.37171
  Beta  occ. eigenvalues --   -0.36012  -0.35532  -0.33950  -0.33299  -0.32731
  Beta  occ. eigenvalues --   -0.32056  -0.30988  -0.29734  -0.29124  -0.27941
  Beta  occ. eigenvalues --   -0.27702  -0.27157  -0.26819  -0.25367  -0.25103
  Beta  occ. eigenvalues --   -0.24018  -0.22788  -0.20444  -0.16842  -0.16122
  Beta  occ. eigenvalues --   -0.14029  -0.13103
  Beta virt. eigenvalues --    0.06212   0.06924   0.07397   0.07453   0.07787
  Beta virt. eigenvalues --    0.08602   0.08655   0.08884   0.09566   0.10012
  Beta virt. eigenvalues --    0.10437   0.10946   0.11596   0.12266   0.12360

 Mulliken charges and spin densities:
               1          2
     1  C    0.282828  -0.687302
     2  C   -0.969404   0.981816
     3  C    0.491307  -1.076260
     4  C    0.611999  -1.210321
     5  N   -0.402026   0.091299
     6  O    0.023730  -0.005351
     7  C    0.625779  -0.477954
     8  C   -0.265027  -0.291033
     9  O   -0.018933  -0.010029
    10  C   -0.391313   0.335491
    11  C   -1.115797   0.895310
    12  C    0.370054  -0.576153
    13  C    0.713796  -1.067805
    14  C    0.037169  -0.296362
    15  C    0.447712  -0.228367
    16  H   -0.128688   0.278451
    17  H   -0.229893   0.368996
    18  H   -0.066108   0.204663
    19  H    0.052285   0.105669
    20  H    0.004663   0.122785
    21  H    0.258617  -0.094147
    22  H   -0.413465   0.589169
    23  H   -0.376248   0.526606
    24  H   -0.366491   0.611309
    25  H    0.065718   0.154028
    26  H    0.086098   0.096501
    27  H    0.157931   0.011544
    28  H   -0.174592   0.349381
    29  H    0.024203   0.142041
    30  H    0.015575   0.145850
    31  H   -0.216006   0.384543
    32  H   -0.278317   0.425156
    33  H   -0.264379   0.452348
    34  H    0.407223  -0.251870
 Sum of Mulliken charges =  -1.00000   1.00000

 Dipole moment (field-independent basis, Debye):
    X=             -5.3671    Y=              2.3792    Z=             -0.6029  Tot=              5.9017
 Quadrupole moment (field-independent basis, Debye-Ang):
   XX=           -196.2651   YY=           -132.1031   ZZ=           -122.8064
   XY=             -3.2255   XZ=             -1.9206   YZ=             -1.8498

 Summary of Natural Population Analysis:

                                       Natural Population
                Natural  -----------------------------------------------
    Atom  No    Charge         Core      Valence    Rydberg      Total
 -----------------------------------------------------------------------
      C    1   -0.28981      0.99960     2.28263    0.00758     3.28981
      C    2    0.13448      0.99953     1.84881    0.01718     2.86552
      C    3   -0.29972      0.99960     2.29344    0.00667     3.29972
      C    4   -0.10037      0.99956     2.08824    0.01258     3.10037
      N    5   -0.42205      0.99977     2.91045    0.01183     3.92205
      O    6   -0.31804      0.99986     3.30491    0.01326     4.31804
      C    7   -0.02384      0.99955     2.01179    0.01249     3.02384
      C    8   -0.01736      0.99955     2.00639    0.01142     3.01736
      O    9   -0.28092      0.99986     3.27124    0.00983     4.28092
      C   10    0.16319      0.99937     1.82391    0.01353     2.83681
      C   11   -0.12384      0.99952     2.11374    0.01057     3.12384
      C   12   -0.09795      0.99957     2.08816    0.01022     3.09795
      C   13   -0.12019      0.99956     2.11053    0.01009     3.12019
      C   14   -0.09336      0.99957     2.08332    0.01046     3.09336
      C   15   -0.14369      0.99951     2.13534    0.00884     3.14369
      H   16    0.10113      0.00000     0.39783    0.00104     0.39887
      H   17    0.10178      0.00000     0.39691    0.00132     0.39822
      H   18    0.10386      0.00000     0.39485    0.00129     0.39614
      H   19    0.10206      0.00000     0.39698    0.00096     0.39794
      H   20    0.10100      0.00000     0.39787    0.00113     0.39900
      H   21    0.10677      0.00000     0.39200    0.00123     0.39323
      H   22    0.09118      0.00000     0.40704    0.00178     0.40882
      H   23    0.08662      0.00000     0.41067    0.00271     0.41338
      H   24    0.17926      0.00000     0.31670    0.00404     0.32074
      H   25    0.17435      0.00000     0.32313    0.00252     0.32565
      H   26    0.08679      0.00000     0.41142    0.00179     0.41321
      H   27    0.09446      0.00000     0.40404    0.00150     0.40554
      H   28    0.09134      0.00000     0.40759    0.00107     0.40866
      H   29    0.08813      0.00000     0.41053    0.00134     0.41187
      H   30    0.10514      0.00000     0.39374    0.00113     0.39486
      H   31    0.10032      0.00000     0.39878    0.00090     0.39968
      H   32    0.10131      0.00000     0.39759    0.00109     0.39869
      H   33    0.10108      0.00000     0.39800    0.00092     0.39892
      H   34    0.11690      0.00000     0.38092    0.00218     0.38310
 =======================================================================
   * Total *    0.00000     14.99398    41.80950    0.19652    57.00000

 Normal termination of Gaussian 16 at Thu Dec 10 18:23:06 2020.
