 Gaussian 16, Revision A.03,

 -----------------------------------------------------------
 # opt freq B3LYP/6-31G(d) empiricaldispersion=gd3bj scf=xqc
 -----------------------------------------------------------

 ------------------------------
 CID_33789004_JID_4931_neutraal
 ------------------------------
 Symbolic Z-matrix:
 Charge =  0 Multiplicity = 1

 SCF Done:  E(RB3LYP) =  -650.814362171     A.U. after   15 cycles
 SCF Done:  E(RB3LYP) =  -650.831901321     A.U. after   13 cycles
 SCF Done:  E(RB3LYP) =  -650.832778319     A.U. after   12 cycles
 SCF Done:  E(RB3LYP) =  -650.828058859     A.U. after   14 cycles
 SCF Done:  E(RB3LYP) =  -650.832323690     A.U. after   12 cycles
 SCF Done:  E(RB3LYP) =  -650.833041968     A.U. after   10 cycles
 SCF Done:  E(RB3LYP) =  -650.833195384     A.U. after   12 cycles
 SCF Done:  E(RB3LYP) =  -650.831989547     A.U. after   12 cycles
 SCF Done:  E(RB3LYP) =  -650.833227534     A.U. after   11 cycles
 SCF Done:  E(RB3LYP) =  -650.833245116     A.U. after   10 cycles
 SCF Done:  E(RB3LYP) =  -650.833246170     A.U. after    8 cycles
 SCF Done:  E(RB3LYP) =  -650.833246696     A.U. after    9 cycles
 SCF Done:  E(RB3LYP) =  -650.833247120     A.U. after   10 cycles
 SCF Done:  E(RB3LYP) =  -650.833247402     A.U. after   10 cycles
 SCF Done:  E(RB3LYP) =  -650.833247420     A.U. after    7 cycles
 Optimization completed.
    -- Stationary point found.
 Normal termination of Gaussian 16 at Thu Dec 10 10:54:00 2020.

 --------------------------------------------------------------------
 #N Geom=AllCheck Guess=TCheck SCRF=Check GenChk RB3LYP/6-31G(d) Freq
 --------------------------------------------------------------------

 Structure from the checkpoint file:  "JID_4931.chk"
 ------------------------------
 CID_33789004_JID_4931_neutraal
 ------------------------------
 Charge =  0 Multiplicity = 1

 SCF Done:  E(RB3LYP) =  -650.833247420     A.U. after    1 cycles

  Exact polarizability: 158.109  -5.265 119.890 -15.787  13.779  70.793
 Approx polarizability: 215.844 -12.874 217.369 -34.242  34.226 109.549

                      1                      2                      3
                      A                      A                      A
 Frequencies --     12.4150                31.0483                64.4354
 Red. masses --      5.2097                 5.4108                 4.8080
 Frc consts  --      0.0005                 0.0031                 0.0118
 IR Inten    --      0.0857                 0.1449                 0.2780

                      4                      5                      6
                      A                      A                      A
 Frequencies --     71.2339               128.8096               142.9946
 Red. masses --      6.4808                 5.5960                 3.9857
 Frc consts  --      0.0194                 0.0547                 0.0480
 IR Inten    --      0.9860                 0.8779                 2.1125

                      7                      8                      9
                      A                      A                      A
 Frequencies --    196.7855               255.9203               279.1796
 Red. masses --      4.9116                 5.8912                 5.3748
 Frc consts  --      0.1121                 0.2273                 0.2468
 IR Inten    --      0.8373                11.1827                 0.7772

                     10                     11                     12
                      A                      A                      A
 Frequencies --    334.7582               340.7511               368.3497
 Red. masses --      2.8488                 5.5608                 2.4538
 Frc consts  --      0.1881                 0.3804                 0.1962
 IR Inten    --      5.9128                 2.4098                 4.8464

                     13                     14                     15
                      A                      A                      A
 Frequencies --    417.1894               442.8599               496.2401
 Red. masses --      2.9908                 3.9283                 4.3523
 Frc consts  --      0.3067                 0.4539                 0.6315
 IR Inten    --      1.7114                18.7065                16.0231

                     16                     17                     18
                      A                      A                      A
 Frequencies --    532.9940               584.3687               596.6296
 Red. masses --      4.6512                 5.9371                 1.2069
 Frc consts  --      0.7785                 1.1945                 0.2531
 IR Inten    --     16.6306                 7.8482                48.3901

                     19                     20                     21
                      A                      A                      A
 Frequencies --    608.3348               633.9925               651.6353
 Red. masses --      1.4780                 3.0334                 6.5783
 Frc consts  --      0.3223                 0.7184                 1.6458
 IR Inten    --     53.7419                17.5920                 1.9845

                     22                     23                     24
                      A                      A                      A
 Frequencies --    655.4127               712.9450               741.8805
 Red. masses --      1.2362                 3.5885                 3.1300
 Frc consts  --      0.3129                 1.0747                 1.0150
 IR Inten    --     35.3668                37.9221                65.2424

                     25                     26                     27
                      A                      A                      A
 Frequencies --    779.0190               842.1807               863.6768
 Red. masses --      3.9214                 3.8049                 1.5548
 Frc consts  --      1.4021                 1.5900                 0.6833
 IR Inten    --     41.4567                 1.5576                 4.1230

                     28                     29                     30
                      A                      A                      A
 Frequencies --    875.8100               920.4344               959.4409
 Red. masses --      1.5529                 5.0539                 3.5532
 Frc consts  --      0.7018                 2.5227                 1.9271
 IR Inten    --     11.2728                15.4911                25.8444

                     31                     32                     33
                      A                      A                      A
 Frequencies --    977.2037               997.4485              1010.0269
 Red. masses --      1.3652                 1.3259                 1.7716
 Frc consts  --      0.7681                 0.7772                 1.0648
 IR Inten    --      0.7173                 0.7448                 9.2729

                     34                     35                     36
                      A                      A                      A
 Frequencies --   1042.9231              1069.8200              1119.6949
 Red. masses --      2.9422                 1.8895                 4.2268
 Frc consts  --      1.8855                 1.2741                 3.1222
 IR Inten    --     12.7888                 7.7028               217.5862

                     37                     38                     39
                      A                      A                      A
 Frequencies --   1124.3518              1147.4055              1204.3653
 Red. masses --      6.2977                 1.4290                 1.2967
 Frc consts  --      4.6907                 1.1085                 1.1082
 IR Inten    --     88.0074                 8.8724               136.7086

                     40                     41                     42
                      A                      A                      A
 Frequencies --   1227.3329              1235.2342              1283.4745
 Red. masses --      1.5837                 3.0467                 1.1442
 Frc consts  --      1.4056                 2.7389                 1.1105
 IR Inten    --    137.3307                 7.7229                 6.1538

                     43                     44                     45
                      A                      A                      A
 Frequencies --   1319.5998              1348.3756              1366.3386
 Red. masses --      1.2284                 1.2838                 3.9327
 Frc consts  --      1.2603                 1.3752                 4.3258
 IR Inten    --      0.3455                16.2833                 6.9084

                     46                     47                     48
                      A                      A                      A
 Frequencies --   1397.3999              1401.2876              1422.9072
 Red. masses --      2.6097                 1.3184                 1.4922
 Frc consts  --      3.0025                 1.5253                 1.7800
 IR Inten    --    137.0984                29.8749                 1.6156

                     49                     50                     51
                      A                      A                      A
 Frequencies --   1465.8053              1509.9297              1519.9962
 Red. masses --      2.4815                 1.0814                 1.1005
 Frc consts  --      3.1414                 1.4526                 1.4981
 IR Inten    --     34.8368                 4.2664                 6.3314

                     52                     53                     54
                      A                      A                      A
 Frequencies --   1560.8049              1632.7451              1674.4119
 Red. masses --      2.4690                 6.6710                 5.7736
 Frc consts  --      3.5438                10.4780                 9.5372
 IR Inten    --      2.2870                 5.0988                30.2792

                     55                     56                     57
                      A                      A                      A
 Frequencies --   1822.1416              2237.7830              3021.8084
 Red. masses --      9.7805                 5.9314                 1.0679
 Frc consts  --     19.1326                17.5003                 5.7451
 IR Inten    --    319.2863                 2.6242                32.0670

                     58                     59                     60
                      A                      A                      A
 Frequencies --   3042.4052              3098.2753              3102.3658
 Red. masses --      1.0634                 1.1009                 1.0938
 Frc consts  --      5.7993                 6.2266                 6.2025
 IR Inten    --     25.4275                17.8372                16.6210

                     61                     62                     63
                      A                      A                      A
 Frequencies --   3190.5052              3203.7492              3228.5071
 Red. masses --      1.0896                 1.0890                 1.0931
 Frc consts  --      6.5350                 6.5854                 6.7131
 IR Inten    --     10.7433                 3.8703                 2.6085

                     64                     65                     66
                      A                      A                      A
 Frequencies --   3234.2597              3494.2494              3701.0285
 Red. masses --      1.0925                 1.1608                 1.0642
 Frc consts  --      6.7334                 8.3508                 8.5882
 IR Inten    --      2.2354                52.4314                77.1998

 - Thermochemistry -
 -------------------
 Temperature   298.150 Kelvin.  Pressure   1.00000 Atm.
 Atom     1 has atomic number  6 and mass  12.00000

 Molecular mass:   190.06299 amu.
 Principal axes and moments of inertia in atomic units:
                           1         2         3
     Eigenvalues --  1108.577295770.898526206.66962
           X            1.00000  -0.00064   0.00050
           Y            0.00063   0.99959   0.02849
           Z           -0.00052  -0.02849   0.99959
 This molecule is an asymmetric top.
 Rotational symmetry number  1.
 Warning -- assumption of classical behavior for rotation
           may cause significant error
 Rotational temperatures (Kelvin)      0.07813     0.01501     0.01395
 Rotational constants (GHZ):           1.62798     0.31273     0.29077
 Zero-point vibrational energy     490335.5 (Joules/Mol)
                                  117.19299 (Kcal/Mol)
 Warning -- explicit consideration of  19 degrees of freedom as
           vibrations may cause significant error
 Vibrational temperatures:     17.86    44.67    92.71   102.49   185.33
          (Kelvin)            205.74   283.13   368.21   401.68   481.64
                              490.26   529.97   600.24   637.18   713.98
                              766.86   840.78   858.42   875.26   912.17
                              937.56   942.99  1025.77  1067.40  1120.83
                             1211.71  1242.64  1260.10  1324.30  1380.42
                             1405.98  1435.11  1453.20  1500.53  1539.23
                             1610.99  1617.69  1650.86  1732.81  1765.86
                             1777.23  1846.63  1898.61  1940.01  1965.86
                             2010.55  2016.14  2047.25  2108.97  2172.45
                             2186.94  2245.65  2349.16  2409.11  2621.66
                             3219.67  4347.71  4377.34  4457.73  4463.61
                             4590.43  4609.48  4645.10  4653.38  5027.45
                             5324.95

 Zero-point correction=                           0.186759 (Hartree/Particle)
 Thermal correction to Energy=                    0.199724
 Thermal correction to Enthalpy=                  0.200669
 Thermal correction to Gibbs Free Energy=         0.144600
 Sum of electronic and zero-point Energies=           -650.646489
 Sum of electronic and thermal Energies=              -650.633523
 Sum of electronic and thermal Enthalpies=            -650.632579
 Sum of electronic and thermal Free Energies=         -650.688647

                     E (Thermal)             CV                S
                      KCal/Mol        Cal/Mol-Kelvin    Cal/Mol-Kelvin
 Total                  125.329             48.104            118.006
 Electronic               0.000              0.000              0.000
 Translational            0.889              2.981             41.632
 Rotational               0.889              2.981             32.052
 Vibrational            123.552             42.142             44.322
 Vibration     1          0.593              1.987              7.581
 Vibration     2          0.594              1.983              5.761
 Vibration     3          0.597              1.971              4.317
 Vibration     4          0.598              1.968              4.119
 Vibration     5          0.611              1.924              2.964
 Vibration     6          0.616              1.910              2.763
 Vibration     7          0.636              1.844              2.163
 Vibration     8          0.666              1.753              1.689
 Vibration     9          0.680              1.712              1.539
 Vibration    10          0.716              1.606              1.237
 Vibration    11          0.720              1.594              1.209
 Vibration    12          0.741              1.537              1.087
 Vibration    13          0.780              1.433              0.902
 Vibration    14          0.802              1.377              0.818
 Vibration    15          0.852              1.258              0.668
 Vibration    16          0.888              1.177              0.581
 Vibration    17          0.941              1.065              0.477
 Vibration    18          0.954              1.039              0.455
 Vibration    19          0.967              1.014              0.436

                           ! Non-Optimized Parameters !
 Normal termination of Gaussian 16 at Thu Dec 10 11:00:00 2020.

 ----------------------------------------------------------------------
 # B3LYP/6-311++G(d,p) empiricaldispersion=gd3bj scf=xqc pop=npa geom=c
 heck
 ----------------------------------------------------------------------

 --------------------------------------
 CID_33789004_JID_4931_Energie_neutraal
 --------------------------------------
 Structure from the checkpoint file:  "JID_4931.chk"
 Charge =  0 Multiplicity = 1

 SCF Done:  E(RB3LYP) =  -651.026988841     A.U. after   15 cycles
 Normal termination of Gaussian 16 at Thu Dec 10 11:02:51 2020.

 ----------------------------------------------------------------------
 # B3LYP/6-311++G(d,p) empiricaldispersion=gd3bj scf=xqc pop=npa geom=c
 heck
 ----------------------------------------------------------------------

 ------------------------------------
 CID_33789004_JID_4931_Energie_kation
 ------------------------------------
 Structure from the checkpoint file:  "JID_4931.chk"
 Charge =  1 Multiplicity = 2

 SCF Done:  E(UB3LYP) =  -650.691299119     A.U. after   33 cycles
 SCF Done:  E(UB3LYP) =  -650.691299119     a.u. after    1 cycles
 Normal termination of Gaussian 16 at Thu Dec 10 11:11:04 2020.
 Gaussian 16:  ES64L-G16RevA.03 25-Dec-2016

 ----------------------------------------------------------------------
 # B3LYP/6-311++G(d,p) empiricaldispersion=gd3bj scf=xqc pop=npa geom=c
 heck
 ----------------------------------------------------------------------

 -----------------------------------
 CID_33789004_JID_4931_Energie_anion
 -----------------------------------
 Structure from the checkpoint file:  "JID_4931.chk"
 Charge = -1 Multiplicity = 2

                         Standard orientation:
 ---------------------------------------------------------------------
 Center     Atomic      Atomic             Coordinates (Angstroms)
 Number     Number       Type             X           Y           Z
 ---------------------------------------------------------------------
      1          6           0       -4.280837    1.849114   -0.634315
      2          6           0       -3.720856    0.796722   -0.825441
      3          6           0       -3.016554   -0.474266   -1.033744
      4          8           0       -2.873748   -1.245475    0.154885
      5          6           0       -2.112044   -0.598669    1.169768
      6          6           0       -0.666903   -0.378732    0.777385
      7          6           0        0.069170   -1.425028    0.203343
      8          6           0        1.398214   -1.238265   -0.152338
      9          6           0        2.015963    0.002028    0.062405
     10          6           0        1.285965    1.052630    0.629694
     11          6           0       -0.049433    0.859217    0.976543
     12          6           0        3.438040    0.149087   -0.333510
     13          8           0        4.116407   -0.726034   -0.833874
     14          8           0        3.935482    1.387853   -0.080421
     15          1           0       -4.789765    2.773181   -0.478323
     16          1           0       -3.579519   -1.110382   -1.723949
     17          1           0       -2.033803   -0.275995   -1.486802
     18          1           0       -2.577585    0.355589    1.450781
     19          1           0       -2.175468   -1.272732    2.030508
     20          1           0       -0.417201   -2.380559    0.030871
     21          1           0        1.980569   -2.038227   -0.596716
     22          1           0        1.761535    2.013896    0.786623
     23          1           0       -0.621364    1.679488    1.402314
     24          1           0        4.863114    1.361973   -0.378781
 ---------------------------------------------------------------------

 SCF Done:  E(UB3LYP) =  -651.035459140     A.U. after   31 cycles

 The electronic state is 2-A.
 Alpha  occ. eigenvalues --  -19.01507 -19.01485 -18.93777 -10.13491 -10.12040
 Alpha  occ. eigenvalues --  -10.09046 -10.08357 -10.07395 -10.02411 -10.02023
 Alpha  occ. eigenvalues --  -10.01809 -10.01635 -10.01542 -10.01120  -0.94968
 Alpha  occ. eigenvalues --   -0.92679  -0.85409  -0.70831  -0.67914  -0.63443
 Alpha  occ. eigenvalues --   -0.60167  -0.59661  -0.54309  -0.49010  -0.46048
 Alpha  occ. eigenvalues --   -0.44446  -0.42805  -0.38876  -0.37999  -0.37620
 Alpha  occ. eigenvalues --   -0.36441  -0.33280  -0.31699  -0.29750  -0.29627
 Alpha  occ. eigenvalues --   -0.29202  -0.28213  -0.27356  -0.25172  -0.23104
 Alpha  occ. eigenvalues --   -0.21573  -0.20867  -0.19209  -0.19074  -0.17983
 Alpha  occ. eigenvalues --   -0.17484  -0.15563  -0.12200  -0.11177  -0.10891
 Alpha  occ. eigenvalues --    0.05093
 Alpha virt. eigenvalues --    0.07369   0.08923   0.09507   0.09879   0.10546
 Alpha virt. eigenvalues --    0.10939   0.11721   0.12231   0.12834   0.13281
 Alpha virt. eigenvalues --    0.13793   0.14663   0.14799   0.15568   0.16585

  Beta  occ. eigenvalues --  -19.01440 -19.01419 -18.93460 -10.13486 -10.11760
  Beta  occ. eigenvalues --  -10.09068 -10.08352 -10.07377 -10.02471 -10.02043
  Beta  occ. eigenvalues --  -10.01709 -10.01453 -10.01142 -10.00900  -0.94661
  Beta  occ. eigenvalues --   -0.92530  -0.84932  -0.70420  -0.67854  -0.63051
  Beta  occ. eigenvalues --   -0.59867  -0.59348  -0.53965  -0.48620  -0.45844
  Beta  occ. eigenvalues --   -0.44372  -0.42476  -0.38779  -0.37855  -0.37515
  Beta  occ. eigenvalues --   -0.36255  -0.32934  -0.31451  -0.29515  -0.28991
  Beta  occ. eigenvalues --   -0.28310  -0.27997  -0.27277  -0.24979  -0.22892
  Beta  occ. eigenvalues --   -0.20909  -0.20460  -0.19095  -0.18949  -0.17918
  Beta  occ. eigenvalues --   -0.16188  -0.15409  -0.11872  -0.10291  -0.08987
  Beta virt. eigenvalues --    0.07300   0.08793   0.09492   0.09897   0.10080
  Beta virt. eigenvalues --    0.10865   0.11483   0.11986   0.12230   0.12941
  Beta virt. eigenvalues --    0.13434   0.13784   0.14561   0.14744   0.15507

 Mulliken charges and spin densities:
               1          2
     1  C   -1.627331   0.024756
     2  C    1.613331  -0.087507
     3  C   -0.564806   0.102063
     4  O   -0.025983  -0.026874
     5  C   -0.505202  -0.127811
     6  C    1.068545   0.204407
     7  C   -0.362448   0.028957
     8  C   -0.509576   0.163138
     9  C    0.425941   0.031556
    10  C   -0.665536   0.210732
    11  C   -0.712452  -0.022829
    12  C    0.183051   0.169034
    13  O   -0.437701   0.113250
    14  O   -0.238459   0.015821
    15  H    0.119027   0.001542
    16  H    0.127971   0.036182
    17  H    0.165377  -0.007168
    18  H    0.159355  -0.011506
    19  H    0.000239   0.161704
    20  H    0.107616   0.033884
    21  H    0.170624  -0.005767
    22  H    0.156965  -0.009499
    23  H    0.090378   0.003253
    24  H    0.261073  -0.001320
 Sum of Mulliken charges =  -1.00000   1.00000

 Dipole moment (field-independent basis, Debye):
    X=             -4.7102    Y=              2.6021    Z=             -0.2162  Tot=              5.3855
 Quadrupole moment (field-independent basis, Debye-Ang):
   XX=           -131.3986   YY=            -93.3182   ZZ=            -91.9162
   XY=              1.5005   XZ=              5.1495   YZ=              1.4219

 Summary of Natural Population Analysis:

                                       Natural Population
                Natural  -----------------------------------------------
    Atom  No    Charge         Core      Valence    Rydberg      Total
 -----------------------------------------------------------------------
      C    1   -0.13027      0.99928     2.12752    0.00348     3.13027
      C    2   -0.00401      0.99936     1.99826    0.00639     3.00401
      C    3   -0.05413      0.99951     2.04280    0.01182     3.05413
      O    4   -0.28927      0.99989     3.27961    0.00976     4.28927
      C    5   -0.01936      0.99954     2.00607    0.01375     3.01936
      C    6    0.02442      0.99950     1.96543    0.01065     2.97558
      C    7   -0.12104      0.99952     2.11068    0.01083     3.12104
      C    8   -0.05787      0.99955     2.05022    0.00811     3.05787
      C    9   -0.05199      0.99945     2.03976    0.01277     3.05199
      C   10   -0.04977      0.99955     2.04195    0.00827     3.04977
      C   11   -0.12190      0.99953     2.11448    0.00788     3.12190
      C   12    0.43061      0.99966     1.54633    0.02341     2.56939
      O   13   -0.30570      0.99987     3.29948    0.00635     4.30570
      O   14   -0.35439      0.99988     3.34847    0.00603     4.35439
      H   15    0.10780      0.00000     0.39122    0.00098     0.39220
      H   16    0.10008      0.00000     0.39867    0.00124     0.39992
      H   17    0.10723      0.00000     0.39140    0.00137     0.39277
      H   18    0.08113      0.00000     0.41700    0.00187     0.41887
      H   19    0.09494      0.00000     0.40368    0.00139     0.40506
      H   20    0.09525      0.00000     0.40337    0.00138     0.40475
      H   21    0.10285      0.00000     0.39619    0.00096     0.39715
      H   22    0.09834      0.00000     0.40066    0.00099     0.40166
      H   23    0.09037      0.00000     0.40863    0.00100     0.40963
      H   24    0.22667      0.00000     0.26806    0.00527     0.27333
 =======================================================================
   * Total *   -0.00000     13.99409    35.84994    0.15598    50.00000

 Normal termination of Gaussian 16 at Thu Dec 10 11:18:43 2020.
