 Gaussian 16, Revision A.03,

 -----------------------------------------------------------
 # opt freq B3LYP/6-31G(d) empiricaldispersion=gd3bj scf=xqc
 -----------------------------------------------------------

 ------------------------------
 CID_90128305_JID_8196_neutraal
 ------------------------------
 Symbolic Z-matrix:
 Charge =  0 Multiplicity = 1

 SCF Done:  E(RB3LYP) =  -883.634878931     A.U. after   14 cycles
 SCF Done:  E(RB3LYP) =  -883.628011142     A.U. after   13 cycles
 SCF Done:  E(RB3LYP) =  -883.641832260     A.U. after   12 cycles
 SCF Done:  E(RB3LYP) =  -883.642565358     A.U. after   12 cycles
 SCF Done:  E(RB3LYP) =  -883.642932406     A.U. after   12 cycles
 SCF Done:  E(RB3LYP) =  -883.642861332     A.U. after   11 cycles
 SCF Done:  E(RB3LYP) =  -883.643179404     A.U. after   12 cycles
 SCF Done:  E(RB3LYP) =  -883.643269885     A.U. after   12 cycles
 SCF Done:  E(RB3LYP) =  -883.643447559     A.U. after   11 cycles
 SCF Done:  E(RB3LYP) =  -883.643507948     A.U. after   10 cycles
 SCF Done:  E(RB3LYP) =  -883.643568619     A.U. after    8 cycles
 SCF Done:  E(RB3LYP) =  -883.643571041     A.U. after    9 cycles
 SCF Done:  E(RB3LYP) =  -883.643572644     A.U. after    8 cycles
 SCF Done:  E(RB3LYP) =  -883.643573501     A.U. after    8 cycles
 SCF Done:  E(RB3LYP) =  -883.643573658     A.U. after    7 cycles
 Optimization completed.
    -- Stationary point found.
 Normal termination of Gaussian 16 at Fri Dec 11 19:35:42 2020.

 --------------------------------------------------------------------
 #N Geom=AllCheck Guess=TCheck SCRF=Check GenChk RB3LYP/6-31G(d) Freq
 --------------------------------------------------------------------

 Structure from the checkpoint file:  "JID_8196.chk"
 ------------------------------
 CID_90128305_JID_8196_neutraal
 ------------------------------
 Charge =  0 Multiplicity = 1

 SCF Done:  E(RB3LYP) =  -883.643573658     A.U. after    1 cycles

  Exact polarizability: 155.336  -2.343 137.009  -4.619  -3.552 129.266
 Approx polarizability: 202.134   2.492 199.480  -5.299   2.543 201.218

                      1                      2                      3
                      A                      A                      A
 Frequencies --     32.6968                44.3752                52.5974
 Red. masses --      4.8533                 5.0038                 5.3109
 Frc consts  --      0.0031                 0.0058                 0.0087
 IR Inten    --      0.9992                 1.4327                 0.8443

                      4                      5                      6
                      A                      A                      A
 Frequencies --     61.8576                83.8183               103.4605
 Red. masses --      5.2659                 4.0434                 5.0857
 Frc consts  --      0.0119                 0.0167                 0.0321
 IR Inten    --      0.9547                 3.3189                 1.9837

                      7                      8                      9
                      A                      A                      A
 Frequencies --    131.0991               163.2648               185.7674
 Red. masses --      2.7740                 2.6501                 3.5987
 Frc consts  --      0.0281                 0.0416                 0.0732
 IR Inten    --      2.8057                 0.4097                 3.2490

                     10                     11                     12
                      A                      A                      A
 Frequencies --    191.3262               230.0535               232.8981
 Red. masses --      4.6708                 1.9353                 1.1111
 Frc consts  --      0.1007                 0.0603                 0.0355
 IR Inten    --      4.3059                 1.2306                 0.2820

                     13                     14                     15
                      A                      A                      A
 Frequencies --    245.6674               258.8925               263.8209
 Red. masses --      1.7262                 2.4722                 1.5787
 Frc consts  --      0.0614                 0.0976                 0.0647
 IR Inten    --      1.6500                 0.7936                 3.5793

                     16                     17                     18
                      A                      A                      A
 Frequencies --    298.4962               318.3663               326.9160
 Red. masses --      2.3296                 2.4121                 2.4675
 Frc consts  --      0.1223                 0.1440                 0.1554
 IR Inten    --      6.2273                 2.9786                 5.0800

                     19                     20                     21
                      A                      A                      A
 Frequencies --    348.5043               365.8038               380.9442
 Red. masses --      2.6233                 2.6745                 2.2045
 Frc consts  --      0.1877                 0.2109                 0.1885
 IR Inten    --      2.6348                 1.6821                 2.1539

                     22                     23                     24
                      A                      A                      A
 Frequencies --    451.8009               492.2628               495.3016
 Red. masses --      2.7679                 3.4895                 5.6082
 Frc consts  --      0.3329                 0.4982                 0.8106
 IR Inten    --      0.7392                 2.5130                 6.3673

                     25                     26                     27
                      A                      A                      A
 Frequencies --    564.4071               577.7607               596.2623
 Red. masses --      5.3284                 3.8167                 4.2816
 Frc consts  --      1.0001                 0.7506                 0.8969
 IR Inten    --      6.0368                 3.1715                 1.2399

                     28                     29                     30
                      A                      A                      A
 Frequencies --    652.3864               717.6693               745.0585
 Red. masses --      5.4421                 4.0463                 6.2610
 Frc consts  --      1.3647                 1.2279                 2.0477
 IR Inten    --      6.7560                10.8168                 3.4916

                     31                     32                     33
                      A                      A                      A
 Frequencies --    762.7181               783.6096               790.4636
 Red. masses --      3.1910                 4.9619                 2.3209
 Frc consts  --      1.0937                 1.7951                 0.8544
 IR Inten    --      2.6500                 3.0458                 2.7079

                     34                     35                     36
                      A                      A                      A
 Frequencies --    812.3876               830.0394               854.4101
 Red. masses --      2.3460                 2.2699                 2.5948
 Frc consts  --      0.9122                 0.9214                 1.1161
 IR Inten    --      6.0936                 5.9067                12.3329

                     37                     38                     39
                      A                      A                      A
 Frequencies --    893.9117               914.5295               927.1361
 Red. masses --      3.3906                 2.8708                 2.3223
 Frc consts  --      1.5963                 1.4146                 1.1762
 IR Inten    --      4.7132                13.5105                22.7112

                     40                     41                     42
                      A                      A                      A
 Frequencies --    946.5516               954.0096               968.5909
 Red. masses --      2.4068                 2.0227                 1.5597
 Frc consts  --      1.2705                 1.0847                 0.8621
 IR Inten    --     27.1509                 4.3883                 1.5112

                     43                     44                     45
                      A                      A                      A
 Frequencies --    994.1258              1013.8843              1030.4867
 Red. masses --      2.5006                 2.5279                 1.4660
 Frc consts  --      1.4561                 1.5310                 0.9172
 IR Inten    --     14.3749                30.5959                 1.5755

                     46                     47                     48
                      A                      A                      A
 Frequencies --   1034.3426              1048.4736              1071.7886
 Red. masses --      1.4972                 2.2354                 2.6429
 Frc consts  --      0.9437                 1.4478                 1.7888
 IR Inten    --      4.1103                 9.1821                16.5116

                     49                     50                     51
                      A                      A                      A
 Frequencies --   1081.2866              1090.4903              1101.1789
 Red. masses --      1.9368                 3.1623                 2.2151
 Frc consts  --      1.3342                 2.2156                 1.5825
 IR Inten    --      3.8525                64.4059                 5.7974

                     52                     53                     54
                      A                      A                      A
 Frequencies --   1102.7914              1129.5798              1149.6671
 Red. masses --      1.7635                 2.1376                 2.9158
 Frc consts  --      1.2636                 1.6070                 2.2707
 IR Inten    --      4.8752                 3.2168               101.7347

                     55                     56                     57
                      A                      A                      A
 Frequencies --   1177.0379              1190.8834              1213.9257
 Red. masses --      2.6509                 3.5299                 1.5880
 Frc consts  --      2.1638                 2.9495                 1.3787
 IR Inten    --    138.1970               355.0382                47.5070

                     58                     59                     60
                      A                      A                      A
 Frequencies --   1215.7434              1246.1920              1259.5797
 Red. masses --      1.9869                 1.2898                 2.7292
 Frc consts  --      1.7303                 1.1801                 2.5511
 IR Inten    --      7.7444                11.3280                 0.2271

                     61                     62                     63
                      A                      A                      A
 Frequencies --   1263.0721              1278.0716              1285.1464
 Red. masses --      1.5620                 1.6303                 1.3184
 Frc consts  --      1.4682                 1.5690                 1.2829
 IR Inten    --      4.2002                53.3838                38.6033

                     64                     65                     66
                      A                      A                      A
 Frequencies --   1297.1353              1332.6395              1351.6652
 Red. masses --      1.5720                 1.4606                 1.2630
 Frc consts  --      1.5584                 1.5282                 1.3595
 IR Inten    --      3.1517                 4.8303                 2.4991

                     67                     68                     69
                      A                      A                      A
 Frequencies --   1359.2870              1362.2393              1390.0222
 Red. masses --      1.5130                 1.5917                 1.3978
 Frc consts  --      1.6471                 1.7403                 1.5912
 IR Inten    --     23.4078                14.3134                 8.1579

                     70                     71                     72
                      A                      A                      A
 Frequencies --   1393.2966              1416.6929              1416.9093
 Red. masses --      1.4215                 1.5468                 1.6780
 Frc consts  --      1.6259                 1.8291                 1.9848
 IR Inten    --     10.6633                23.0233                 5.9789

                     73                     74                     75
                      A                      A                      A
 Frequencies --   1422.7973              1430.1114              1442.6874
 Red. masses --      1.3649                 1.2951                 1.2460
 Frc consts  --      1.6279                 1.5606                 1.5280
 IR Inten    --      0.9917                 2.6598                 5.3957

                     76                     77                     78
                      A                      A                      A
 Frequencies --   1452.7691              1512.4334              1518.8624
 Red. masses --      1.2362                 1.0557                 1.0469
 Frc consts  --      1.5372                 1.4228                 1.4229
 IR Inten    --     17.7181                 1.3192                 0.5566

                     79                     80                     81
                      A                      A                      A
 Frequencies --   1523.9586              1527.9591              1529.5314
 Red. masses --      1.0768                 1.0696                 1.0685
 Frc consts  --      1.4734                 1.4713                 1.4727
 IR Inten    --      5.9705                 0.7453                 4.2531

                     82                     83                     84
                      A                      A                      A
 Frequencies --   1529.7499              1531.2331              1535.4182
 Red. masses --      1.0721                 1.0703                 1.0663
 Frc consts  --      1.4782                 1.4786                 1.4812
 IR Inten    --      7.6934                10.2335                 1.8522

                     85                     86                     87
                      A                      A                      A
 Frequencies --   1543.0387              1547.7149              1814.1500
 Red. masses --      1.0576                 1.0622                12.0507
 Frc consts  --      1.4837                 1.4991                23.3674
 IR Inten    --      9.0606                 7.0675               209.7454

                     88                     89                     90
                      A                      A                      A
 Frequencies --   1877.3013              3017.4319              3044.1607
 Red. masses --     12.6742                 1.0847                 1.0857
 Frc consts  --     26.3172                 5.8188                 5.9279
 IR Inten    --    291.1144                47.7903                52.1494

                     91                     92                     93
                      A                      A                      A
 Frequencies --   3047.1015              3050.3282              3050.8969
 Red. masses --      1.0673                 1.0357                 1.0404
 Frc consts  --      5.8386                 5.6779                 5.7058
 IR Inten    --     14.9478                33.0587                18.7434

                     94                     95                     96
                      A                      A                      A
 Frequencies --   3063.2731              3072.7625              3081.1851
 Red. masses --      1.0379                 1.0648                 1.0665
 Frc consts  --      5.7384                 5.9236                 5.9657
 IR Inten    --     33.4030                31.4668                55.2090

                     97                     98                     99
                      A                      A                      A
 Frequencies --   3091.9766              3102.0097              3112.1313
 Red. masses --      1.0724                 1.0743                 1.1016
 Frc consts  --      6.0403                 6.0907                 6.2861
 IR Inten    --     20.9632                23.3608                30.3541

                    100                    101                    102
                      A                      A                      A
 Frequencies --   3113.0006              3119.3921              3131.9815
 Red. masses --      1.1024                 1.1006                 1.1013
 Frc consts  --      6.2942                 6.3099                 6.3650
 IR Inten    --     14.6559                33.6114                29.9264

                    103                    104                    105
                      A                      A                      A
 Frequencies --   3137.3582              3142.0679              3146.6523
 Red. masses --      1.1013                 1.1020                 1.1054
 Frc consts  --      6.3871                 6.4103                 6.4489
 IR Inten    --      9.0286                23.8900                 8.9454

                    106                    107                    108
                      A                      A                      A
 Frequencies --   3149.8850              3155.1075              3158.7346
 Red. masses --      1.0981                 1.0944                 1.1030
 Frc consts  --      6.4193                 6.4190                 6.4842
 IR Inten    --      2.3614                17.1667                 8.1785

 - Thermochemistry -
 -------------------
 Temperature   298.150 Kelvin.  Pressure   1.00000 Atm.
 Atom     1 has atomic number  6 and mass  12.00000

 Molecular mass:   256.13107 amu.
 Principal axes and moments of inertia in atomic units:
                           1         2         3
     Eigenvalues --  2664.663985261.901355941.42855
           X            0.99946  -0.03261  -0.00258
           Y            0.03234   0.99686  -0.07228
           Z            0.00493   0.07216   0.99738
 This molecule is an asymmetric top.
 Rotational symmetry number  1.
 Warning -- assumption of classical behavior for rotation
           may cause significant error
 Rotational temperatures (Kelvin)      0.03250     0.01646     0.01458
 Rotational constants (GHZ):           0.67729     0.34298     0.30376
 Zero-point vibrational energy     855788.6 (Joules/Mol)
                                  204.53839 (Kcal/Mol)
 Warning -- explicit consideration of  27 degrees of freedom as
           vibrations may cause significant error
 Vibrational temperatures:     47.04    63.85    75.68    89.00   120.60
          (Kelvin)            148.86   188.62   234.90   267.28   275.28
                              331.00   335.09   353.46   372.49   379.58
                              429.47   458.06   470.36   501.42   526.31
                              548.09   650.04   708.26   712.63   812.06
                              831.27   857.89   938.64  1032.57  1071.97
                             1097.38  1127.44  1137.30  1168.84  1194.24
                             1229.31  1286.14  1315.80  1333.94  1361.88
                             1372.61  1393.59  1430.33  1458.75  1482.64
                             1488.19  1508.52  1542.06  1555.73  1568.97
                             1584.35  1586.67  1625.21  1654.11  1693.49
                             1713.42  1746.57  1749.18  1792.99  1812.25
                             1817.28  1838.86  1849.04  1866.29  1917.37
                             1944.74  1955.71  1959.96  1999.93  2004.64
                             2038.31  2038.62  2047.09  2057.61  2075.71
                             2090.21  2176.05  2185.30  2192.64  2198.39
                             2200.65  2200.97  2203.10  2209.12  2220.09
                             2226.82  2610.16  2701.02  4341.41  4379.87
                             4384.10  4388.74  4389.56  4407.37  4421.02
                             4433.14  4448.66  4463.10  4477.66  4478.91
                             4488.11  4506.22  4513.96  4520.73  4527.33
                             4531.98  4539.50  4544.71

 Zero-point correction=                           0.325953 (Hartree/Particle)
 Thermal correction to Energy=                    0.343735
 Thermal correction to Enthalpy=                  0.344680
 Thermal correction to Gibbs Free Energy=         0.279879
 Sum of electronic and zero-point Energies=           -883.317621
 Sum of electronic and thermal Energies=              -883.299838
 Sum of electronic and thermal Enthalpies=            -883.298894
 Sum of electronic and thermal Free Energies=         -883.363694

                     E (Thermal)             CV                S
                      KCal/Mol        Cal/Mol-Kelvin    Cal/Mol-Kelvin
 Total                  215.697             67.391            136.383
 Electronic               0.000              0.000              0.000
 Translational            0.889              2.981             42.522
 Rotational               0.889              2.981             32.788
 Vibrational            213.920             61.430             61.074
 Vibration     1          0.594              1.983              5.659
 Vibration     2          0.595              1.980              5.054
 Vibration     3          0.596              1.977              4.717
 Vibration     4          0.597              1.973              4.397
 Vibration     5          0.601              1.960              3.799
 Vibration     6          0.605              1.946              3.388
 Vibration     7          0.612              1.922              2.930
 Vibration     8          0.623              1.888              2.512
 Vibration     9          0.632              1.859              2.270
 Vibration    10          0.634              1.852              2.215
 Vibration    11          0.652              1.795              1.879
 Vibration    12          0.654              1.791              1.856
 Vibration    13          0.660              1.770              1.761
 Vibration    14          0.668              1.748              1.669
 Vibration    15          0.670              1.739              1.636
 Vibration    16          0.692              1.677              1.425
 Vibration    17          0.705              1.638              1.318
 Vibration    18          0.711              1.622              1.275
 Vibration    19          0.726              1.578              1.173
 Vibration    20          0.739              1.543              1.097
 Vibration    21          0.751              1.511              1.035
 Vibration    22          0.810              1.357              0.790
 Vibration    23          0.848              1.267              0.678
 Vibration    24          0.851              1.260              0.670
 Vibration    25          0.920              1.108              0.515
 Vibration    26          0.934              1.079              0.490
 Vibration    27          0.954              1.040              0.456

 Optimization completed.
    -- Stationary point found.
 Normal termination of Gaussian 16 at Fri Dec 11 19:55:10 2020.

 ----------------------------------------------------------------------
 # B3LYP/6-311++G(d,p) empiricaldispersion=gd3bj scf=xqc pop=npa geom=c
 heck
 ----------------------------------------------------------------------

 --------------------------------------
 CID_90128305_JID_8196_Energie_neutraal
 --------------------------------------
 Structure from the checkpoint file:  "JID_8196.chk"
 Charge =  0 Multiplicity = 1

 SCF Done:  E(RB3LYP) =  -883.895780826     A.U. after   15 cycles
 Normal termination of Gaussian 16 at Fri Dec 11 20:02:18 2020.

 ----------------------------------------------------------------------
 # B3LYP/6-311++G(d,p) empiricaldispersion=gd3bj scf=xqc pop=npa geom=c
 heck
 ----------------------------------------------------------------------

 ------------------------------------
 CID_90128305_JID_8196_Energie_kation
 ------------------------------------
 Structure from the checkpoint file:  "JID_8196.chk"
 Charge =  1 Multiplicity = 2

 SCF Done:  E(UB3LYP) =  -883.556528589     A.U. after   33 cycles
 SCF Done:  E(UB3LYP) =  -883.556528589     a.u. after    1 cycles
 Normal termination of Gaussian 16 at Fri Dec 11 20:24:08 2020.
 Gaussian 16:  ES64L-G16RevA.03 25-Dec-2016

 ----------------------------------------------------------------------
 # B3LYP/6-311++G(d,p) empiricaldispersion=gd3bj scf=xqc pop=npa geom=c
 heck
 ----------------------------------------------------------------------

 -----------------------------------
 CID_90128305_JID_8196_Energie_anion
 -----------------------------------
 Structure from the checkpoint file:  "JID_8196.chk"
 Charge = -1 Multiplicity = 2

                         Standard orientation:
 ---------------------------------------------------------------------
 Center     Atomic      Atomic             Coordinates (Angstroms)
 Number     Number       Type             X           Y           Z
 ---------------------------------------------------------------------
      1          6           0        1.385966   -1.316295    1.858223
      2          6           0        1.777519   -1.527732    0.393518
      3          6           0        2.546997   -0.351562   -0.266489
      4          6           0        4.005908   -0.314127    0.210211
      5          6           0        2.496106   -0.520583   -1.800562
      6          6           0        1.893972    0.979747    0.091521
      7          8           0        2.453080    1.933040    0.588974
      8          8           0        0.568996    1.000888   -0.218065
      9          6           0       -0.127824    2.200927    0.142676
     10          6           0       -1.614552    1.913437    0.105659
     11          6           0       -2.128717    1.283053   -1.214384
     12          6           0       -2.684226   -0.076147   -0.775765
     13          6           0       -2.873531    0.032123    0.736474
     14          8           0       -1.912105    0.987729    1.162269
     15          6           0       -2.477246   -1.351046    1.251280
     16          8           0       -1.608545   -1.916435    0.249940
     17          6           0       -1.672317   -1.213355   -0.912057
     18          8           0       -1.010130   -1.494754   -1.877107
     19          1           0        2.248525   -1.070461    2.487944
     20          1           0        0.927571   -2.225849    2.261652
     21          1           0        0.652605   -0.507998    1.952923
     22          1           0        2.419484   -2.414137    0.305750
     23          1           0        0.879447   -1.740001   -0.188896
     24          1           0        4.507765   -1.244269   -0.077427
     25          1           0        4.544802    0.526341   -0.235600
     26          1           0        4.071927   -0.205509    1.296548
     27          1           0        1.464131   -0.541983   -2.159428
     28          1           0        3.035948    0.288376   -2.306466
     29          1           0        2.972202   -1.468068   -2.077091
     30          1           0        0.178404    2.515855    1.142732
     31          1           0        0.127290    3.001606   -0.561169
     32          1           0       -2.137981    2.860139    0.304406
     33          1           0       -2.912908    1.900005   -1.660010
     34          1           0       -1.332561    1.152728   -1.950753
     35          1           0       -3.593633   -0.361885   -1.314009
     36          1           0       -3.884111    0.323796    1.051615
     37          1           0       -1.921753   -1.295385    2.188440
     38          1           0       -3.345851   -2.007671    1.368923
 ---------------------------------------------------------------------

 SCF Done:  E(UB3LYP) =  -883.889430759     A.U. after   32 cycles

 The electronic state is 2-A.
 Alpha  occ. eigenvalues --  -19.07770 -19.07036 -19.03246 -19.02738 -19.01264
 Alpha  occ. eigenvalues --  -10.21289 -10.19944 -10.13573 -10.13561 -10.13353
 Alpha  occ. eigenvalues --  -10.13206 -10.11284 -10.09290 -10.08115 -10.07958
 Alpha  occ. eigenvalues --  -10.07957 -10.07832 -10.07200  -1.02137  -1.01136
 Alpha  occ. eigenvalues --   -0.95416  -0.93438  -0.93000  -0.74835  -0.70991
 Alpha  occ. eigenvalues --   -0.70109  -0.65520  -0.64382  -0.60994  -0.59853
 Alpha  occ. eigenvalues --   -0.55306  -0.53405  -0.51638  -0.49171  -0.47264
 Alpha  occ. eigenvalues --   -0.46104  -0.43296  -0.41026  -0.40416  -0.39805
 Alpha  occ. eigenvalues --   -0.39136  -0.38316  -0.37548  -0.36581  -0.36046
 Alpha  occ. eigenvalues --   -0.35448  -0.34967  -0.33189  -0.32976  -0.31904
 Alpha  occ. eigenvalues --   -0.31127  -0.30534  -0.29743  -0.29538  -0.27990
 Alpha  occ. eigenvalues --   -0.27531  -0.27211  -0.26420  -0.26391  -0.25877
 Alpha  occ. eigenvalues --   -0.25092  -0.24128  -0.23830  -0.23542  -0.22032
 Alpha  occ. eigenvalues --   -0.20765  -0.19122  -0.17991  -0.17091   0.04244
 Alpha virt. eigenvalues --    0.06302   0.06849   0.07745   0.08200   0.08573
 Alpha virt. eigenvalues --    0.08747   0.08947   0.09748   0.09957   0.10453
 Alpha virt. eigenvalues --    0.10849   0.11191   0.11600   0.12142   0.12564

  Beta  occ. eigenvalues --  -19.07766 -19.07021 -19.03226 -19.02736 -19.01245
  Beta  occ. eigenvalues --  -10.21286 -10.19901 -10.13567 -10.13539 -10.13332
  Beta  occ. eigenvalues --  -10.13170 -10.11284 -10.09273 -10.08114 -10.07957
  Beta  occ. eigenvalues --  -10.07957 -10.07801 -10.07198  -1.02130  -1.01090
  Beta  occ. eigenvalues --   -0.95381  -0.93425  -0.92969  -0.74832  -0.70912
  Beta  occ. eigenvalues --   -0.70068  -0.65516  -0.64340  -0.60982  -0.59805
  Beta  occ. eigenvalues --   -0.55286  -0.53384  -0.51573  -0.49130  -0.47221
  Beta  occ. eigenvalues --   -0.46041  -0.43191  -0.40992  -0.40399  -0.39783
  Beta  occ. eigenvalues --   -0.39095  -0.38276  -0.37506  -0.36534  -0.36006
  Beta  occ. eigenvalues --   -0.35436  -0.34897  -0.33134  -0.32963  -0.31870
  Beta  occ. eigenvalues --   -0.31103  -0.30529  -0.29714  -0.29501  -0.27977
  Beta  occ. eigenvalues --   -0.27492  -0.27184  -0.26387  -0.26352  -0.25832
  Beta  occ. eigenvalues --   -0.25038  -0.24125  -0.23812  -0.23507  -0.22022
  Beta  occ. eigenvalues --   -0.20666  -0.19114  -0.17947  -0.17001
  Beta virt. eigenvalues --    0.06172   0.07268   0.07344   0.08172   0.08487
  Beta virt. eigenvalues --    0.08796   0.08897   0.09502   0.10086   0.10399
  Beta virt. eigenvalues --    0.10841   0.11288   0.11360   0.11960   0.12231

 Mulliken charges and spin densities:
               1          2
     1  C   -0.394474  -0.208188
     2  C   -0.528229   0.206598
     3  C    0.960354  -0.034224
     4  C   -0.518421  -0.063853
     5  C   -0.466976  -0.046304
     6  C   -0.728103   0.077410
     7  O   -0.220230   0.001985
     8  O    0.077042  -0.014301
     9  C   -0.254949  -0.024343
    10  C    0.472621  -0.320940
    11  C    0.876005  -1.758594
    12  C   -0.641899   1.090720
    13  C    1.309807  -1.425769
    14  O   -0.064030  -0.039165
    15  C    0.109969  -0.602541
    16  O    0.046204   0.019735
    17  C    0.443349  -0.793679
    18  O   -0.235684   0.023801
    19  H    0.121379  -0.003993
    20  H    0.067138   0.091816
    21  H    0.263525  -0.098984
    22  H    0.145978   0.007274
    23  H    0.163839   0.040406
    24  H    0.126497   0.011415
    25  H    0.164268  -0.000592
    26  H    0.143035   0.008771
    27  H    0.163138   0.017537
    28  H    0.116653   0.030016
    29  H    0.140217   0.002192
    30  H    0.118925   0.101144
    31  H    0.046356   0.134163
    32  H   -0.436796   0.676903
    33  H   -0.810459   1.031385
    34  H    0.204692  -0.029072
    35  H   -0.789885   1.076256
    36  H   -0.927988   1.184538
    37  H    0.146655   0.048365
    38  H   -0.409523   0.582111
 Sum of Mulliken charges =  -1.00000   1.00000

 Dipole moment (field-independent basis, Debye):
    X=             12.1914    Y=             -2.8530    Z=              1.4735  Tot=             12.6071
 Quadrupole moment (field-independent basis, Debye-Ang):
   XX=           -201.1185   YY=           -152.9555   ZZ=           -141.6376
   XY=              3.9164   XZ=             -7.6413   YZ=             -3.1411

 Summary of Natural Population Analysis:

                                       Natural Population
                Natural  -----------------------------------------------
    Atom  No    Charge         Core      Valence    Rydberg      Total
 -----------------------------------------------------------------------
      C    1   -0.29052      0.99966     2.28614    0.00472     3.29052
      C    2   -0.19017      0.99960     2.18181    0.00876     3.19017
      C    3   -0.08209      0.99953     2.07237    0.01019     3.08209
      C    4   -0.28272      0.99964     2.27665    0.00643     3.28272
      C    5   -0.28210      0.99963     2.27651    0.00595     3.28210
      C    6    0.42250      0.99960     1.55144    0.02646     2.57750
      O    7   -0.30840      0.99987     3.30347    0.00506     4.30840
      O    8   -0.28479      0.99985     3.27590    0.00904     4.28479
      C    9   -0.02128      0.99951     2.00894    0.01283     3.02128
      C   10    0.05789      0.99955     1.92687    0.01569     2.94211
      C   11   -0.19905      0.99960     2.18909    0.01036     3.19905
      C   12   -0.17097      0.99954     2.15727    0.01416     3.17097
      C   13    0.05466      0.99954     1.92938    0.01642     2.94534
      O   14   -0.30615      0.99988     3.29643    0.00984     4.30615
      C   15   -0.01421      0.99955     2.00258    0.01208     3.01421
      O   16   -0.27570      0.99986     3.26790    0.00794     4.27570
      C   17    0.42051      0.99966     1.55301    0.02682     2.57949
      O   18   -0.30049      0.99986     3.29472    0.00592     4.30049
      H   19    0.09235      0.00000     0.40673    0.00092     0.40765
      H   20    0.10113      0.00000     0.39800    0.00087     0.39887
      H   21    0.10462      0.00000     0.39395    0.00143     0.39538
      H   22    0.09235      0.00000     0.40671    0.00094     0.40765
      H   23    0.11606      0.00000     0.38154    0.00240     0.38394
      H   24    0.09504      0.00000     0.40410    0.00086     0.40496
      H   25    0.10405      0.00000     0.39506    0.00089     0.39595
      H   26    0.10320      0.00000     0.39589    0.00091     0.39680
      H   27    0.11837      0.00000     0.38072    0.00091     0.38163
      H   28    0.09671      0.00000     0.40247    0.00082     0.40329
      H   29    0.09785      0.00000     0.40132    0.00083     0.40215
      H   30    0.10082      0.00000     0.39795    0.00123     0.39918
      H   31    0.09258      0.00000     0.40632    0.00110     0.40742
      H   32    0.09250      0.00000     0.40527    0.00223     0.40750
      H   33    0.11347      0.00000     0.38212    0.00441     0.38653
      H   34    0.11070      0.00000     0.38750    0.00179     0.38930
      H   35    0.13186      0.00000     0.36136    0.00678     0.36814
      H   36    0.09918      0.00000     0.39289    0.00793     0.40082
      H   37    0.09726      0.00000     0.40152    0.00122     0.40274
      H   38    0.09300      0.00000     0.40520    0.00180     0.40700
 =======================================================================
   * Total *    0.00000     17.99395    50.75708    0.24897    69.00000

 Normal termination of Gaussian 16 at Fri Dec 11 20:45:00 2020.
