 Gaussian 16, Revision A.03,

 -----------------------------------------------------------
 # opt freq B3LYP/6-31G(d) empiricaldispersion=gd3bj scf=xqc
 -----------------------------------------------------------

 ------------------------------
 CID_80108187_JID_7507_neutraal
 ------------------------------
 Symbolic Z-matrix:
 Charge =  0 Multiplicity = 1

 SCF Done:  E(RB3LYP) =  -786.037824406     A.U. after   14 cycles
 SCF Done:  E(RB3LYP) =  -786.042643828     A.U. after   13 cycles
 SCF Done:  E(RB3LYP) =  -786.040497943     A.U. after   14 cycles
 SCF Done:  E(RB3LYP) =  -786.043661168     A.U. after   13 cycles
 SCF Done:  E(RB3LYP) =  -786.044762686     A.U. after   13 cycles
 SCF Done:  E(RB3LYP) =  -786.044959067     A.U. after   12 cycles
 SCF Done:  E(RB3LYP) =  -786.045296447     A.U. after   12 cycles
 SCF Done:  E(RB3LYP) =  -786.045481357     A.U. after   11 cycles
 SCF Done:  E(RB3LYP) =  -786.045684595     A.U. after   12 cycles
 SCF Done:  E(RB3LYP) =  -786.045881030     A.U. after   12 cycles
 SCF Done:  E(RB3LYP) =  -786.048958859     A.U. after   10 cycles
 SCF Done:  E(RB3LYP) =  -786.048958981     A.U. after    8 cycles
 SCF Done:  E(RB3LYP) =  -786.048958939     A.U. after    8 cycles
 SCF Done:  E(RB3LYP) =  -786.048958957     A.U. after    7 cycles
 Optimization completed.
    -- Stationary point found.
 Normal termination of Gaussian 16 at Fri Dec 11 12:46:43 2020.

 --------------------------------------------------------------------
 #N Geom=AllCheck Guess=TCheck SCRF=Check GenChk RB3LYP/6-31G(d) Freq
 --------------------------------------------------------------------

 Structure from the checkpoint file:  "JID_7507.chk"
 ------------------------------
 CID_80108187_JID_7507_neutraal
 ------------------------------
 Charge =  0 Multiplicity = 1

 SCF Done:  E(RB3LYP) =  -786.048958957     A.U. after    1 cycles

  Exact polarizability: 177.852 -13.016 129.045 -18.884 -13.426 125.786
 Approx polarizability: 220.906 -18.991 215.853 -32.975 -34.170 201.322

                      1                      2                      3
                      A                      A                      A
 Frequencies --      9.0575                25.7974                37.3117
 Red. masses --      4.8492                 4.4198                 3.0651
 Frc consts  --      0.0002                 0.0017                 0.0025
 IR Inten    --      0.6560                 0.1706                 0.3737

                      4                      5                      6
                      A                      A                      A
 Frequencies --     44.2937                70.6732                78.7341
 Red. masses --      4.1100                 5.9322                 4.1855
 Frc consts  --      0.0048                 0.0175                 0.0153
 IR Inten    --      0.7557                 3.4150                 0.3148

                      7                      8                      9
                      A                      A                      A
 Frequencies --     90.7162               141.9059               184.8412
 Red. masses --      4.4075                 3.2821                 4.7350
 Frc consts  --      0.0214                 0.0389                 0.0953
 IR Inten    --      4.1022                 4.1717                 2.5337

                     10                     11                     12
                      A                      A                      A
 Frequencies --    204.9484               242.8186               254.6346
 Red. masses --      4.9374                 4.0514                 1.4228
 Frc consts  --      0.1222                 0.1407                 0.0544
 IR Inten    --      1.2419                 0.9581                 0.6361

                     13                     14                     15
                      A                      A                      A
 Frequencies --    285.5945               303.9755               341.4891
 Red. masses --      1.5905                 2.7679                 3.7141
 Frc consts  --      0.0764                 0.1507                 0.2552
 IR Inten    --      0.8352                 2.3700                 7.1861

                     16                     17                     18
                      A                      A                      A
 Frequencies --    388.9420               402.5968               418.0074
 Red. masses --      3.1246                 3.9723                 3.0242
 Frc consts  --      0.2785                 0.3793                 0.3113
 IR Inten    --      2.9539                 1.2181                 0.4854

                     19                     20                     21
                      A                      A                      A
 Frequencies --    457.6742               482.3406               519.9570
 Red. masses --      4.1477                 3.6779                 3.5175
 Frc consts  --      0.5119                 0.5041                 0.5603
 IR Inten    --      1.7947                14.3266                 8.3862

                     22                     23                     24
                      A                      A                      A
 Frequencies --    603.0366               612.6134               634.9816
 Red. masses --      4.5644                 1.3820                 5.9736
 Frc consts  --      0.9780                 0.3056                 1.4191
 IR Inten    --      8.5045                60.9610                 2.9028

                     25                     26                     27
                      A                      A                      A
 Frequencies --    648.4432               714.5956               735.5641
 Red. masses --      3.2757                 2.5254                 3.9825
 Frc consts  --      0.8115                 0.7598                 1.2695
 IR Inten    --     25.8681                14.7933                18.4570

                     28                     29                     30
                      A                      A                      A
 Frequencies --    751.0827               762.4374               818.9423
 Red. masses --      1.4407                 3.0066                 4.1708
 Frc consts  --      0.4789                 1.0298                 1.6481
 IR Inten    --     43.6051                12.1171                 0.8367

                     31                     32                     33
                      A                      A                      A
 Frequencies --    823.5115               868.2710               884.8166
 Red. masses --      2.9816                 1.2501                 2.0835
 Frc consts  --      1.1914                 0.5553                 0.9611
 IR Inten    --     26.1860                 0.5096                 3.2115

                     34                     35                     36
                      A                      A                      A
 Frequencies --    896.1932               910.6415               923.2853
 Red. masses --      1.3781                 2.1407                 1.3586
 Frc consts  --      0.6521                 1.0459                 0.6824
 IR Inten    --      0.5788                 8.1283                 5.0506

                     37                     38                     39
                      A                      A                      A
 Frequencies --    975.9201              1001.0740              1012.4232
 Red. masses --      1.3250                 1.3055                 3.1798
 Frc consts  --      0.7435                 0.7708                 1.9203
 IR Inten    --      0.6352                 1.1145                17.1944

                     40                     41                     42
                      A                      A                      A
 Frequencies --   1020.7501              1024.7047              1035.5693
 Red. masses --      4.4922                 2.1590                 5.6466
 Frc consts  --      2.7577                 1.3356                 3.5678
 IR Inten    --      2.8318                 7.8099                54.3272

                     43                     44                     45
                      A                      A                      A
 Frequencies --   1038.3324              1058.1925              1070.3077
 Red. masses --      4.3154                 2.4015                 2.6787
 Frc consts  --      2.7412                 1.5844                 1.8080
 IR Inten    --     49.5886                 7.9809                11.3854

                     46                     47                     48
                      A                      A                      A
 Frequencies --   1087.4721              1109.1367              1115.0265
 Red. masses --      1.7434                 2.6644                 2.3058
 Frc consts  --      1.2147                 1.9312                 1.6890
 IR Inten    --      1.7580                23.3760                23.3865

                     49                     50                     51
                      A                      A                      A
 Frequencies --   1122.6046              1157.7764              1170.7805
 Red. masses --      1.9279                 1.0836                 1.2944
 Frc consts  --      1.4315                 0.8558                 1.0454
 IR Inten    --     16.5902                 0.4002                 0.9026

                     52                     53                     54
                      A                      A                      A
 Frequencies --   1192.7625              1193.5072              1210.6325
 Red. masses --      2.2716                 1.2235                 1.1613
 Frc consts  --      1.9041                 1.0269                 1.0028
 IR Inten    --    224.8172                39.0455                 0.5551

                     55                     56                     57
                      A                      A                      A
 Frequencies --   1230.5475              1239.8051              1268.7379
 Red. masses --      2.7080                 2.5731                 1.3062
 Frc consts  --      2.4159                 2.3303                 1.2388
 IR Inten    --     14.0046                17.4804                 4.1334

                     58                     59                     60
                      A                      A                      A
 Frequencies --   1289.3099              1308.8539              1316.9841
 Red. masses --      1.7082                 1.2874                 1.4792
 Frc consts  --      1.6731                 1.2994                 1.5116
 IR Inten    --    215.2176                 1.6428                 2.7703

                     61                     62                     63
                      A                      A                      A
 Frequencies --   1345.6280              1351.7662              1367.5832
 Red. masses --      1.9283                 1.3341                 2.0607
 Frc consts  --      2.0572                 1.4363                 2.2708
 IR Inten    --      6.6765                 2.8200                 2.6441

                     64                     65                     66
                      A                      A                      A
 Frequencies --   1376.2802              1397.2303              1414.4132
 Red. masses --      1.5448                 1.4759                 1.4026
 Frc consts  --      1.7241                 1.6976                 1.6532
 IR Inten    --    100.6896                 2.6586                10.5539

                     67                     68                     69
                      A                      A                      A
 Frequencies --   1430.8270              1449.3108              1503.3514
 Red. masses --      1.2545                 1.4400                 2.1247
 Frc consts  --      1.5132                 1.7821                 2.8292
 IR Inten    --      6.3932                22.5251                 9.4574

                     70                     71                     72
                      A                      A                      A
 Frequencies --   1514.2064              1517.0327              1522.2984
 Red. masses --      1.2486                 1.3281                 1.0570
 Frc consts  --      1.6867                 1.8008                 1.4432
 IR Inten    --     17.5550                23.9503                12.7500

                     73                     74                     75
                      A                      A                      A
 Frequencies --   1527.2790              1536.1069              1547.7798
 Red. masses --      1.1662                 1.0832                 2.1589
 Frc consts  --      1.6027                 1.5059                 3.0471
 IR Inten    --     32.1768                 2.9599                 9.0329

                     76                     77                     78
                      A                      A                      A
 Frequencies --   1563.8625              1648.5298              1668.4862
 Red. masses --      1.1207                 5.6232                 5.5116
 Frc consts  --      1.6148                 9.0038                 9.0401
 IR Inten    --      3.4192                 1.4246                 2.3724

                     79                     80                     81
                      A                      A                      A
 Frequencies --   1807.6958              2988.4952              3001.2156
 Red. masses --      8.7832                 1.0816                 1.0672
 Frc consts  --     16.9103                 5.6916                 5.6637
 IR Inten    --    321.8565                56.0055                56.1272

                     82                     83                     84
                      A                      A                      A
 Frequencies --   3014.5030              3030.2539              3065.3670
 Red. masses --      1.0633                 1.0637                 1.0948
 Frc consts  --      5.6927                 5.7545                 6.0610
 IR Inten    --     79.0730                35.8219                36.2159

                     85                     86                     87
                      A                      A                      A
 Frequencies --   3066.8977              3088.9055              3096.2666
 Red. masses --      1.0385                 1.1063                 1.1002
 Frc consts  --      5.7551                 6.2192                 6.2146
 IR Inten    --      8.2091                36.3851                37.8213

                     88                     89                     90
                      A                      A                      A
 Frequencies --   3136.4252              3147.6126              3160.1888
 Red. masses --      1.0984                 1.0871                 1.1038
 Frc consts  --      6.3663                 6.3460                 6.4949
 IR Inten    --     43.7514                18.7489                 9.1365

                     91                     92                     93
                      A                      A                      A
 Frequencies --   3168.2022              3184.2468              3194.4902
 Red. masses --      1.0873                 1.0865                 1.0914
 Frc consts  --      6.4301                 6.4909                 6.5617
 IR Inten    --     11.6432                 0.9385                28.7181

                     94                     95                     96
                      A                      A                      A
 Frequencies --   3207.2311              3217.5199              3564.7356
 Red. masses --      1.0956                 1.0943                 1.0752
 Frc consts  --      6.6397                 6.6747                 8.0499
 IR Inten    --     27.4301                 6.0873                16.1226

 - Thermochemistry -
 -------------------
 Temperature   298.150 Kelvin.  Pressure   1.00000 Atm.
 Atom     1 has atomic number  6 and mass  12.00000

 Molecular mass:   235.12084 amu.
 Principal axes and moments of inertia in atomic units:
                           1         2         3
     Eigenvalues --  1593.277809658.81261**********
           X            0.99999  -0.00249  -0.00234
           Y            0.00246   0.99991  -0.01324
           Z            0.00237   0.01323   0.99991
 This molecule is an asymmetric top.
 Rotational symmetry number  1.
 Warning -- assumption of classical behavior for rotation
           may cause significant error
 Rotational temperatures (Kelvin)      0.05436     0.00897     0.00859
 Rotational constants (GHZ):           1.13272     0.18685     0.17906
 Zero-point vibrational energy     751542.9 (Joules/Mol)
                                  179.62306 (Kcal/Mol)
 Warning -- explicit consideration of  23 degrees of freedom as
           vibrations may cause significant error
 Vibrational temperatures:     13.03    37.12    53.68    63.73   101.68
          (Kelvin)            113.28   130.52   204.17   265.95   294.88
                              349.36   366.36   410.91   437.35   491.33
                              559.60   579.25   601.42   658.49   693.98
                              748.10   867.64   881.41   913.60   932.97
                             1028.14  1058.31  1080.64  1096.98  1178.28
                             1184.85  1249.25  1273.05  1289.42  1310.21
                             1328.40  1404.13  1440.32  1456.65  1468.63
                             1474.32  1489.95  1493.93  1522.50  1539.93
                             1564.63  1595.80  1604.27  1615.18  1665.78
                             1684.49  1716.12  1717.19  1741.83  1770.48
                             1783.80  1825.43  1855.03  1883.15  1894.85
                             1936.06  1944.89  1967.65  1980.16  2010.30
                             2035.03  2058.64  2085.24  2162.99  2178.61
                             2182.67  2190.25  2197.41  2210.12  2226.91
                             2250.05  2371.87  2400.58  2600.87  4299.78
                             4318.08  4337.20  4359.86  4410.38  4412.58
                             4444.25  4454.84  4512.62  4528.71  4546.81
                             4558.34  4581.42  4596.16  4614.49  4629.29
                             5128.86

 Zero-point correction=                           0.286248 (Hartree/Particle)
 Thermal correction to Energy=                    0.302603
 Thermal correction to Enthalpy=                  0.303547
 Thermal correction to Gibbs Free Energy=         0.238328
 Sum of electronic and zero-point Energies=           -785.762711
 Sum of electronic and thermal Energies=              -785.746356
 Sum of electronic and thermal Enthalpies=            -785.745412
 Sum of electronic and thermal Free Energies=         -785.810631

                     E (Thermal)             CV                S
                      KCal/Mol        Cal/Mol-Kelvin    Cal/Mol-Kelvin
 Total                  189.886             60.613            137.265
 Electronic               0.000              0.000              0.000
 Translational            0.889              2.981             42.266
 Rotational               0.889              2.981             33.405
 Vibrational            188.109             54.651             61.593
 Vibration     1          0.593              1.987              8.208
 Vibration     2          0.593              1.985              6.129
 Vibration     3          0.594              1.982              5.397
 Vibration     4          0.595              1.980              5.057
 Vibration     5          0.598              1.968              4.135
 Vibration     6          0.600              1.963              3.922
 Vibration     7          0.602              1.956              3.645
 Vibration     8          0.615              1.911              2.778
 Vibration     9          0.631              1.861              2.279
 Vibration    10          0.640              1.833              2.088
 Vibration    11          0.659              1.775              1.782
 Vibration    12          0.665              1.755              1.698
 Vibration    13          0.683              1.700              1.500
 Vibration    14          0.695              1.666              1.395
 Vibration    15          0.721              1.593              1.205
 Vibration    16          0.757              1.494              1.004
 Vibration    17          0.768              1.465              0.953
 Vibration    18          0.781              1.431              0.899
 Vibration    19          0.816              1.344              0.773
 Vibration    20          0.839              1.289              0.704
 Vibration    21          0.875              1.206              0.610
 Vibration    22          0.961              1.025              0.444
 Vibration    23          0.972              1.005              0.428

 Optimization completed.
    -- Stationary point found.
 Normal termination of Gaussian 16 at Fri Dec 11 12:58:25 2020.

 ----------------------------------------------------------------------
 # B3LYP/6-311++G(d,p) empiricaldispersion=gd3bj scf=xqc pop=npa geom=c
 heck
 ----------------------------------------------------------------------

 --------------------------------------
 CID_80108187_JID_7507_Energie_neutraal
 --------------------------------------
 Structure from the checkpoint file:  "JID_7507.chk"
 Charge =  0 Multiplicity = 1

 SCF Done:  E(RB3LYP) =  -786.274086880     A.U. after   15 cycles
 Normal termination of Gaussian 16 at Fri Dec 11 13:03:27 2020.

 ----------------------------------------------------------------------
 # B3LYP/6-311++G(d,p) empiricaldispersion=gd3bj scf=xqc pop=npa geom=c
 heck
 ----------------------------------------------------------------------

 ------------------------------------
 CID_80108187_JID_7507_Energie_kation
 ------------------------------------
 Structure from the checkpoint file:  "JID_7507.chk"
 Charge =  1 Multiplicity = 2

 SCF Done:  E(UB3LYP) =  -785.962700341     A.U. after   33 cycles
 SCF Done:  E(UB3LYP) =  -785.962700342     a.u. after    2 cycles
 Normal termination of Gaussian 16 at Fri Dec 11 13:32:42 2020.
 Gaussian 16:  ES64L-G16RevA.03 25-Dec-2016

 ----------------------------------------------------------------------
 # B3LYP/6-311++G(d,p) empiricaldispersion=gd3bj scf=xqc pop=npa geom=c
 heck
 ----------------------------------------------------------------------

 -----------------------------------
 CID_80108187_JID_7507_Energie_anion
 -----------------------------------
 Structure from the checkpoint file:  "JID_7507.chk"
 Charge = -1 Multiplicity = 2

                         Standard orientation:
 ---------------------------------------------------------------------
 Center     Atomic      Atomic             Coordinates (Angstroms)
 Number     Number       Type             X           Y           Z
 ---------------------------------------------------------------------
      1          6           0        0.040092    0.732981    0.582544
      2          6           0        0.448382   -0.295628   -0.483523
      3          6           0        1.438881   -1.286677    0.145376
      4          8           0        1.068228   -2.331059    0.652617
      5          7           0        2.769693   -0.928574    0.153070
      6          6           0        3.383032    0.323158   -0.197745
      7          6           0        3.852784    1.297972    0.913958
      8          8           0        5.158787    1.399720    0.306313
      9          6           0        4.879315    0.291084   -0.573425
     10          8           0       -0.612836   -1.086877   -0.977974
     11          6           0       -1.661571   -0.375791   -1.614332
     12          6           0       -2.788997   -0.001076   -0.672605
     13          6           0       -3.044390   -0.782768    0.458844
     14          6           0       -4.102448   -0.462526    1.308531
     15          6           0       -4.918594    0.636880    1.033822
     16          6           0       -4.668303    1.418278   -0.094833
     17          6           0       -3.605541    1.100765   -0.941771
     18          1           0       -0.412722    0.223633    1.436872
     19          1           0       -0.682903    1.450490    0.186759
     20          1           0        0.917751    1.290049    0.928802
     21          1           0        0.914298    0.232598   -1.330734
     22          1           0        3.333881   -1.578942    0.690283
     23          1           0        2.783945    0.827417   -0.955458
     24          1           0        3.352462    2.270726    0.984998
     25          1           0        3.889639    0.829919    1.908014
     26          1           0        5.384935   -0.631903   -0.251252
     27          1           0        5.146911    0.503673   -1.614044
     28          1           0       -1.278942    0.518419   -2.131383
     29          1           0       -2.039188   -1.055461   -2.388422
     30          1           0       -2.393461   -1.625292    0.669884
     31          1           0       -4.289979   -1.072165    2.188270
     32          1           0       -5.741906    0.885637    1.697570
     33          1           0       -5.294153    2.279620   -0.311955
     34          1           0       -3.407702    1.717416   -1.816378
 ---------------------------------------------------------------------

 SCF Done:  E(UB3LYP) =  -786.265203751     A.U. after   33 cycles
 SCF Done:  E(UB3LYP) =  -786.265203751     a.u. after    1 cycles

 The electronic state is 2-A.
 Alpha  occ. eigenvalues --  -19.04250 -19.03674 -19.00281 -14.25745 -10.18782
 Alpha  occ. eigenvalues --  -10.14515 -10.14062 -10.13940 -10.13910 -10.13292
 Alpha  occ. eigenvalues --  -10.09254 -10.08886 -10.08851 -10.08786 -10.08531
 Alpha  occ. eigenvalues --  -10.08228 -10.07648  -0.97071  -0.96591  -0.94311
 Alpha  occ. eigenvalues --   -0.84336  -0.77134  -0.69823  -0.67156  -0.65980
 Alpha  occ. eigenvalues --   -0.65904  -0.61746  -0.59936  -0.55859  -0.52154
 Alpha  occ. eigenvalues --   -0.50958  -0.50553  -0.48021  -0.44406  -0.43815
 Alpha  occ. eigenvalues --   -0.42951  -0.40686  -0.39597  -0.38330  -0.37990
 Alpha  occ. eigenvalues --   -0.36659  -0.35606  -0.34805  -0.33716  -0.33338
 Alpha  occ. eigenvalues --   -0.33105  -0.32838  -0.31698  -0.31480  -0.29528
 Alpha  occ. eigenvalues --   -0.29064  -0.27243  -0.26935  -0.26328  -0.25837
 Alpha  occ. eigenvalues --   -0.25052  -0.22883  -0.18218  -0.17813  -0.17281
 Alpha  occ. eigenvalues --   -0.16963  -0.16850  -0.16000   0.03951
 Alpha virt. eigenvalues --    0.05623   0.06438   0.06798   0.07030   0.07274
 Alpha virt. eigenvalues --    0.07399   0.08038   0.08894   0.09182   0.09517
 Alpha virt. eigenvalues --    0.09906   0.10422   0.10768   0.11603   0.11980

  Beta  occ. eigenvalues --  -19.04250 -19.03668 -19.00276 -14.25737 -10.18778
  Beta  occ. eigenvalues --  -10.14493 -10.14027 -10.13920 -10.13889 -10.13271
  Beta  occ. eigenvalues --  -10.09249 -10.08872 -10.08838 -10.08776 -10.08505
  Beta  occ. eigenvalues --  -10.08226 -10.07629  -0.97061  -0.96578  -0.94298
  Beta  occ. eigenvalues --   -0.84316  -0.77105  -0.69788  -0.67122  -0.65943
  Beta  occ. eigenvalues --   -0.65870  -0.61682  -0.59897  -0.55812  -0.52109
  Beta  occ. eigenvalues --   -0.50904  -0.50517  -0.47976  -0.44369  -0.43765
  Beta  occ. eigenvalues --   -0.42898  -0.40648  -0.39560  -0.38298  -0.37964
  Beta  occ. eigenvalues --   -0.36617  -0.35580  -0.34790  -0.33683  -0.33302
  Beta  occ. eigenvalues --   -0.33068  -0.32803  -0.31670  -0.31452  -0.29491
  Beta  occ. eigenvalues --   -0.29030  -0.27199  -0.26896  -0.26295  -0.25807
  Beta  occ. eigenvalues --   -0.25028  -0.22853  -0.18190  -0.17787  -0.17254
  Beta  occ. eigenvalues --   -0.16934  -0.16788  -0.15960
  Beta virt. eigenvalues --    0.06017   0.06362   0.06861   0.07037   0.07387
  Beta virt. eigenvalues --    0.07749   0.07997   0.08301   0.09008   0.09442
  Beta virt. eigenvalues --    0.09723   0.10349   0.10765   0.11063   0.11852

 Mulliken charges and spin densities:
               1          2
     1  C    0.110129  -0.564962
     2  C   -0.528710   0.120051
     3  C    0.210533  -0.084577
     4  O   -0.321419   0.005533
     5  N   -0.060335  -0.015694
     6  C   -1.086201   0.780632
     7  C    0.643004  -0.945134
     8  O   -0.236948   0.067463
     9  C    1.187668  -1.290350
    10  O   -0.013795   0.015709
    11  C    1.794211  -2.373928
    12  C   -0.822351   1.519103
    13  C   -0.394322   0.686097
    14  C   -0.464439   0.148932
    15  C    0.517074  -0.882777
    16  C    0.455452  -0.701771
    17  C   -0.244073  -0.298186
    18  H    0.079759   0.075616
    19  H   -0.102640   0.288559
    20  H    0.106960   0.045868
    21  H   -0.032544   0.277766
    22  H    0.303474  -0.010547
    23  H   -0.340590   0.517699
    24  H   -0.134447   0.318657
    25  H   -0.017834   0.174580
    26  H   -0.140785   0.262291
    27  H   -0.465633   0.649676
    28  H   -0.414644   0.597301
    29  H    0.183667  -0.002595
    30  H    0.157820   0.038047
    31  H    0.045793   0.118967
    32  H   -0.081320   0.217396
    33  H   -0.434506   0.614215
    34  H   -0.458010   0.630364
 Sum of Mulliken charges =  -1.00000   1.00000

 Dipole moment (field-independent basis, Debye):
    X=             -1.2577    Y=             -3.7322    Z=              3.7447  Tot=              5.4345
 Quadrupole moment (field-independent basis, Debye-Ang):
   XX=           -197.7035   YY=           -149.9912   ZZ=           -135.8145
   XY=              0.1463   XZ=              6.1169   YZ=              8.4088

 Summary of Natural Population Analysis:

                                       Natural Population
                Natural  -----------------------------------------------
    Atom  No    Charge         Core      Valence    Rydberg      Total
 -----------------------------------------------------------------------
      C    1   -0.29950      0.99964     2.29378    0.00608     3.29950
      C    2    0.02963      0.99953     1.95648    0.01437     2.97037
      C    3    0.34441      0.99965     1.63173    0.02420     2.65559
      O    4   -0.31048      0.99987     3.30496    0.00565     4.31048
      N    5   -0.32043      0.99965     2.81070    0.01007     3.82043
      C    6   -0.04046      0.99958     2.02746    0.01342     3.04046
      C    7   -0.00759      0.99962     1.99569    0.01228     3.00759
      O    8   -0.30283      0.99991     3.29397    0.00895     4.30283
      C    9   -0.00150      0.99963     1.98877    0.01310     3.00150
      O   10   -0.29227      0.99987     3.28318    0.00922     4.29227
      C   11   -0.01634      0.99952     2.00362    0.01320     3.01634
      C   12   -0.03108      0.99950     2.02126    0.01032     3.03108
      C   13   -0.10253      0.99950     2.09442    0.00861     3.10253
      C   14   -0.09822      0.99956     2.08961    0.00905     3.09822
      C   15   -0.10832      0.99956     2.09834    0.01041     3.10832
      C   16   -0.09816      0.99956     2.08846    0.01013     3.09816
      C   17   -0.10003      0.99951     2.09008    0.01044     3.10003
      H   18    0.10603      0.00000     0.39284    0.00113     0.39397
      H   19    0.10980      0.00000     0.38875    0.00145     0.39020
      H   20    0.10134      0.00000     0.39736    0.00130     0.39866
      H   21    0.09006      0.00000     0.40728    0.00266     0.40994
      H   22    0.19246      0.00000     0.30491    0.00263     0.30754
      H   23    0.11098      0.00000     0.38513    0.00389     0.38902
      H   24    0.09070      0.00000     0.40747    0.00183     0.40930
      H   25    0.07992      0.00000     0.41858    0.00150     0.42008
      H   26    0.07855      0.00000     0.41978    0.00168     0.42145
      H   27    0.09327      0.00000     0.40423    0.00250     0.40673
      H   28    0.09034      0.00000     0.40763    0.00203     0.40966
      H   29    0.09589      0.00000     0.40303    0.00108     0.40411
      H   30    0.11289      0.00000     0.38590    0.00120     0.38711
      H   31    0.09863      0.00000     0.40065    0.00073     0.40137
      H   32    0.09950      0.00000     0.39970    0.00080     0.40050
      H   33    0.10169      0.00000     0.39716    0.00115     0.39831
      H   34    0.10364      0.00000     0.39479    0.00157     0.39636
 =======================================================================
   * Total *    0.00000     16.99368    45.78769    0.21863    63.00000

 Normal termination of Gaussian 16 at Fri Dec 11 13:47:43 2020.
