 Gaussian 16, Revision A.03,

 -----------------------------------------------------------
 # opt freq B3LYP/6-31G(d) empiricaldispersion=gd3bj scf=xqc
 -----------------------------------------------------------

 ------------------------------
 CID_14230919_JID_9003_neutraal
 ------------------------------
 Symbolic Z-matrix:
 Charge =  0 Multiplicity = 1

 SCF Done:  E(RB3LYP) =  -1963.56506123     A.U. after   15 cycles
 SCF Done:  E(RB3LYP) =  -1963.57619509     A.U. after   13 cycles
 SCF Done:  E(RB3LYP) =  -1963.57640901     A.U. after   13 cycles
 SCF Done:  E(RB3LYP) =  -1963.57861680     A.U. after   13 cycles
 SCF Done:  E(RB3LYP) =  -1963.57923798     A.U. after   12 cycles
 SCF Done:  E(RB3LYP) =  -1963.58005125     A.U. after   12 cycles
 SCF Done:  E(RB3LYP) =  -1963.58210807     A.U. after   15 cycles
 SCF Done:  E(RB3LYP) =  -1963.58424191     A.U. after   13 cycles
 SCF Done:  E(RB3LYP) =  -1963.58685500     A.U. after   15 cycles
 SCF Done:  E(RB3LYP) =  -1963.58766401     A.U. after   13 cycles
 SCF Done:  E(RB3LYP) =  -1963.59014275     A.U. after    8 cycles
 SCF Done:  E(RB3LYP) =  -1963.59016960     A.U. after   11 cycles
 SCF Done:  E(RB3LYP) =  -1963.59015102     A.U. after   11 cycles
 SCF Done:  E(RB3LYP) =  -1963.59017318     A.U. after   11 cycles
 SCF Done:  E(RB3LYP) =  -1963.59017332     A.U. after    7 cycles
 SCF Done:  E(RB3LYP) =  -1963.59017334     A.U. after    6 cycles
 Optimization completed.
    -- Stationary point found.
 Normal termination of Gaussian 16 at Mon Dec 14 17:10:47 2020.

 --------------------------------------------------------------------
 #N Geom=AllCheck Guess=TCheck SCRF=Check GenChk RB3LYP/6-31G(d) Freq
 --------------------------------------------------------------------

 Structure from the checkpoint file:  "JID_9003.chk"
 ------------------------------
 CID_14230919_JID_9003_neutraal
 ------------------------------
 Charge =  0 Multiplicity = 1

 SCF Done:  E(RB3LYP) =  -1963.59017334     A.U. after    1 cycles

  Exact polarizability: 236.645  25.965 214.193   9.909  -6.219 133.329
 Approx polarizability: 371.097  39.176 332.172  29.004 -23.375 218.168

                      1                      2                      3
                      A                      A                      A
 Frequencies --     18.1456                24.6592                31.7303
 Red. masses --      4.3716                 4.9246                 4.2958
 Frc consts  --      0.0008                 0.0018                 0.0025
 IR Inten    --      0.5550                 1.1113                 1.3195

                      4                      5                      6
                      A                      A                      A
 Frequencies --     61.0656                69.3631                81.5123
 Red. masses --      8.3900                 2.8473                 3.0468
 Frc consts  --      0.0184                 0.0081                 0.0119
 IR Inten    --      0.1515                 0.7646                 0.5819

                      7                      8                      9
                      A                      A                      A
 Frequencies --     85.8601               111.7648               139.0564
 Red. masses --      5.5037                 4.7371                 4.5462
 Frc consts  --      0.0239                 0.0349                 0.0518
 IR Inten    --      0.9732                 0.7892                 2.3470

                     10                     11                     12
                      A                      A                      A
 Frequencies --    158.3448               164.0096               168.4991
 Red. masses --      5.4600                 1.7284                 8.3663
 Frc consts  --      0.0807                 0.0274                 0.1400
 IR Inten    --      2.8625                 0.0251                 4.0043

                     13                     14                     15
                      A                      A                      A
 Frequencies --    202.3885               224.4821               234.5340
 Red. masses --      1.1401                 6.9447                 3.0354
 Frc consts  --      0.0275                 0.2062                 0.0984
 IR Inten    --      0.2127                 2.4155                 0.9965

                     16                     17                     18
                      A                      A                      A
 Frequencies --    242.2992               256.6591               273.7285
 Red. masses --      2.0509                10.5476                 1.5900
 Frc consts  --      0.0709                 0.4094                 0.0702
 IR Inten    --      1.4290                 1.2553                 0.6836

                     19                     20                     21
                      A                      A                      A
 Frequencies --    276.9883               297.0998               306.0319
 Red. masses --      1.5710                 5.5380                 3.5901
 Frc consts  --      0.0710                 0.2880                 0.1981
 IR Inten    --      0.2444                 0.4774                 3.1549

                     22                     23                     24
                      A                      A                      A
 Frequencies --    312.0449               352.0301               383.9168
 Red. masses --      4.2976                 3.4762                 4.0192
 Frc consts  --      0.2466                 0.2538                 0.3490
 IR Inten    --      1.7912                20.1390                11.1807

                     25                     26                     27
                      A                      A                      A
 Frequencies --    394.5800               413.4316               438.2558
 Red. masses --      3.2575                 3.1302                 4.2173
 Frc consts  --      0.2988                 0.3152                 0.4772
 IR Inten    --      2.5429                 8.2026                 5.0632

                     28                     29                     30
                      A                      A                      A
 Frequencies --    445.6745               470.1857               482.2401
 Red. masses --      4.1611                 8.1251                 5.7015
 Frc consts  --      0.4870                 1.0583                 0.7812
 IR Inten    --     13.4277                 4.4806                38.0733

                     31                     32                     33
                      A                      A                      A
 Frequencies --    514.6029               524.8277               576.4590
 Red. masses --      3.6750                 5.0521                 6.4060
 Frc consts  --      0.5734                 0.8199                 1.2542
 IR Inten    --      3.5749                43.0311                19.6033

                     34                     35                     36
                      A                      A                      A
 Frequencies --    634.7194               653.7700               668.0517
 Red. masses --      9.1890                 5.8479                 1.2202
 Frc consts  --      2.1811                 1.4727                 0.3208
 IR Inten    --      0.7552               103.3844                61.0269

                     37                     38                     39
                      A                      A                      A
 Frequencies --    727.9312               749.0071               759.2438
 Red. masses --      3.2849                 8.8661                11.6587
 Frc consts  --      1.0255                 2.9306                 3.9597
 IR Inten    --     24.2810                 4.9442                54.7470

                     40                     41                     42
                      A                      A                      A
 Frequencies --    773.8307               817.2424               821.5965
 Red. masses --      1.6024                 3.1634                 3.2929
 Frc consts  --      0.5653                 1.2448                 1.3096
 IR Inten    --      3.2655                 3.4311                 2.1711

                     43                     44                     45
                      A                      A                      A
 Frequencies --    827.8280               868.1331               876.9834
 Red. masses --      4.4137                 2.1638                 1.2214
 Frc consts  --      1.7821                 0.9608                 0.5535
 IR Inten    --     39.1256                 0.8783                 0.0665

                     46                     47                     48
                      A                      A                      A
 Frequencies --    895.0825               911.0968               943.4780
 Red. masses --      2.6180                 4.6056                 2.4902
 Frc consts  --      1.2358                 2.2525                 1.3060
 IR Inten    --      1.3036                 6.3717                10.9220

                     49                     50                     51
                      A                      A                      A
 Frequencies --    959.7459               979.1764               986.0648
 Red. masses --      1.1308                 1.3944                 2.4572
 Frc consts  --      0.6137                 0.7877                 1.4077
 IR Inten    --      2.5550                 0.5470                 6.9712

                     52                     53                     54
                      A                      A                      A
 Frequencies --   1008.2557              1070.6451              1086.0217
 Red. masses --      1.5634                 3.1554                 3.3002
 Frc consts  --      0.9364                 2.1311                 2.2934
 IR Inten    --      5.7808                87.8258                70.8770

                     55                     56                     57
                      A                      A                      A
 Frequencies --   1096.4055              1106.6674              1127.5751
 Red. masses --      1.9608                 2.4660                 1.0492
 Frc consts  --      1.3887                 1.7794                 0.7860
 IR Inten    --     27.0969                82.8602                 4.9806

                     58                     59                     60
                      A                      A                      A
 Frequencies --   1149.1904              1153.1320              1170.4545
 Red. masses --      1.8819                 2.3739                 2.1449
 Frc consts  --      1.4643                 1.8598                 1.7313
 IR Inten    --     16.6152                 1.2565                 6.0824

                     61                     62                     63
                      A                      A                      A
 Frequencies --   1215.1597              1273.5646              1279.6274
 Red. masses --      1.8679                 1.5177                 6.5862
 Frc consts  --      1.6251                 1.4504                 6.3541
 IR Inten    --      3.0955               103.5885                76.7687

                     64                     65                     66
                      A                      A                      A
 Frequencies --   1282.2258              1300.0150              1312.3553
 Red. masses --      2.0815                 1.4022                 1.4143
 Frc consts  --      2.0163                 1.3962                 1.4351
 IR Inten    --    287.6186                95.2056                37.9383

                     67                     68                     69
                      A                      A                      A
 Frequencies --   1315.6091              1344.0299              1362.9229
 Red. masses --      1.7453                 1.1113                 1.3814
 Frc consts  --      1.7798                 1.1828                 1.5118
 IR Inten    --    139.8474                 8.8345                 0.3262

                     70                     71                     72
                      A                      A                      A
 Frequencies --   1391.5709              1411.7637              1427.3623
 Red. masses --      1.4115                 1.4745                 1.2532
 Frc consts  --      1.6105                 1.7315                 1.5043
 IR Inten    --     10.6041                 2.7705                 5.1697

                     73                     74                     75
                      A                      A                      A
 Frequencies --   1428.9097              1445.6200              1446.6494
 Red. masses --      1.3480                 1.2269                 1.2598
 Frc consts  --      1.6216                 1.5106                 1.5533
 IR Inten    --      5.5034                 8.5294                32.7479

                     76                     77                     78
                      A                      A                      A
 Frequencies --   1502.7677              1505.4304              1511.0302
 Red. masses --      1.1042                 7.6821                 1.0467
 Frc consts  --      1.4692                10.2578                 1.4081
 IR Inten    --     13.8674               463.6074                 4.8122

                     79                     80                     81
                      A                      A                      A
 Frequencies --   1520.8698              1522.5036              1524.7091
 Red. masses --      1.0946                 1.0483                 1.0590
 Frc consts  --      1.4918                 1.4317                 1.4505
 IR Inten    --     24.5148                 0.1637                 0.5259

                     82                     83                     84
                      A                      A                      A
 Frequencies --   1531.1169              1535.6719              1545.0609
 Red. masses --      1.0459                 1.0794                 1.0504
 Frc consts  --      1.4447                 1.4998                 1.4774
 IR Inten    --      5.9417                10.4321                13.3271

                     85                     86                     87
                      A                      A                      A
 Frequencies --   1550.6829              1622.6891              1765.9274
 Red. masses --      1.0548                 7.3422                11.0384
 Frc consts  --      1.4944                11.3906                20.2815
 IR Inten    --      1.8478                11.2550               381.3510

                     88                     89                     90
                      A                      A                      A
 Frequencies --   3033.2843              3045.1602              3046.9334
 Red. masses --      1.0628                 1.0436                 1.0639
 Frc consts  --      5.7611                 5.7015                 5.8192
 IR Inten    --     22.3031                32.9565                22.3821

                     91                     92                     93
                      A                      A                      A
 Frequencies --   3061.7515              3065.1691              3072.5949
 Red. masses --      1.0382                 1.0479                 1.0794
 Frc consts  --      5.7343                 5.8009                 6.0042
 IR Inten    --     12.7267                34.8521                 6.3587

                     94                     95                     96
                      A                      A                      A
 Frequencies --   3076.2086              3084.2739              3101.8126
 Red. masses --      1.0982                 1.0981                 1.0627
 Frc consts  --      6.1227                 6.1545                 6.0239
 IR Inten    --     23.3975                36.0002                43.4798

                     97                     98                     99
                      A                      A                      A
 Frequencies --   3112.2385              3127.3943              3143.2729
 Red. masses --      1.0986                 1.1020                 1.0944
 Frc consts  --      6.2697                 6.3502                 6.3709
 IR Inten    --     37.9936                22.2244                19.1249

                    100                    101                    102
                      A                      A                      A
 Frequencies --   3143.4862              3153.4540              3166.0355
 Red. masses --      1.0991                 1.1027                 1.1053
 Frc consts  --      6.3990                 6.4606                 6.5279
 IR Inten    --     12.8576                 9.4361                 7.4524

                    103                    104                    105
                      A                      A                      A
 Frequencies --   3194.6591              3231.9805              3251.5726
 Red. masses --      1.1001                 1.0853                 1.1018
 Frc consts  --      6.6151                 6.6793                 6.8634
 IR Inten    --      1.8846                 1.5305                 0.3143

 - Thermochemistry -
 -------------------
 Temperature   298.150 Kelvin.  Pressure   1.00000 Atm.
 Atom     1 has atomic number  6 and mass  12.00000

 Molecular mass:   322.03672 amu.
 Principal axes and moments of inertia in atomic units:
                           1         2         3
     Eigenvalues --  5137.311976794.48186**********
           X            0.99946  -0.03100  -0.01056
           Y            0.03128   0.99912   0.02779
           Z            0.00969  -0.02811   0.99956
 This molecule is an asymmetric top.
 Rotational symmetry number  1.
 Warning -- assumption of classical behavior for rotation
           may cause significant error
 Rotational temperatures (Kelvin)      0.01686     0.01275     0.00855
 Rotational constants (GHZ):           0.35130     0.26562     0.17824
 Zero-point vibrational energy     768869.4 (Joules/Mol)
                                  183.76420 (Kcal/Mol)
 Warning -- explicit consideration of  33 degrees of freedom as
           vibrations may cause significant error
 Vibrational temperatures:     26.11    35.48    45.65    87.86    99.80
          (Kelvin)            117.28   123.53   160.80   200.07   227.82
                              235.97   242.43   291.19   322.98   337.44
                              348.61   369.28   393.83   398.52   427.46
                              440.31   448.96   506.49   552.37   567.71
                              594.84   630.55   641.23   676.49   693.84
                              740.40   755.11   829.40   913.22   940.63
                              961.18  1047.33  1077.65  1092.38  1113.37
                             1175.83  1182.09  1191.06  1249.05  1261.78
                             1287.82  1310.87  1357.45  1380.86  1408.82
                             1418.73  1450.66  1540.42  1562.54  1577.48
                             1592.25  1622.33  1653.43  1659.10  1684.02
                             1748.34  1832.38  1841.10  1844.84  1870.43
                             1888.19  1892.87  1933.76  1960.94  2002.16
                             2031.21  2053.66  2055.88  2079.92  2081.41
                             2162.15  2165.98  2174.04  2188.19  2190.54
                             2193.72  2202.94  2209.49  2223.00  2231.09
                             2334.69  2540.78  4364.22  4381.31  4383.86
                             4405.18  4410.09  4420.78  4425.98  4437.58
                             4462.82  4477.82  4499.62  4522.47  4522.78
                             4537.12  4555.22  4596.40  4650.10  4678.29

 Zero-point correction=                           0.292847 (Hartree/Particle)
 Thermal correction to Energy=                    0.314143
 Thermal correction to Enthalpy=                  0.315087
 Thermal correction to Gibbs Free Energy=         0.240873
 Sum of electronic and zero-point Energies=          -1963.297326
 Sum of electronic and thermal Energies=             -1963.276030
 Sum of electronic and thermal Enthalpies=           -1963.275086
 Sum of electronic and thermal Free Energies=        -1963.349301

                     E (Thermal)             CV                S
                      KCal/Mol        Cal/Mol-Kelvin    Cal/Mol-Kelvin
 Total                  197.128             77.994            156.198
 Electronic               0.000              0.000              0.000
 Translational            0.889              2.981             43.204
 Rotational               0.889              2.981             34.224
 Vibrational            195.350             72.033             78.770
 Vibration     1          0.593              1.986              6.827
 Vibration     2          0.593              1.985              6.218
 Vibration     3          0.594              1.983              5.718
 Vibration     4          0.597              1.973              4.422
 Vibration     5          0.598              1.969              4.171
 Vibration     6          0.600              1.962              3.854
 Vibration     7          0.601              1.959              3.752
 Vibration     8          0.607              1.940              3.238
 Vibration     9          0.615              1.914              2.817
 Vibration    10          0.621              1.893              2.569
 Vibration    11          0.623              1.887              2.503
 Vibration    12          0.625              1.881              2.452
 Vibration    13          0.639              1.837              2.111
 Vibration    14          0.649              1.804              1.923
 Vibration    15          0.654              1.788              1.844
 Vibration    16          0.658              1.775              1.786
 Vibration    17          0.666              1.752              1.684
 Vibration    18          0.676              1.722              1.573
 Vibration    19          0.678              1.716              1.552
 Vibration    20          0.691              1.679              1.433
 Vibration    21          0.696              1.662              1.384
 Vibration    22          0.700              1.651              1.351
 Vibration    23          0.729              1.571              1.157
 Vibration    24          0.753              1.505              1.024
 Vibration    25          0.762              1.482              0.983
 Vibration    26          0.777              1.441              0.915
 Vibration    27          0.798              1.387              0.832
 Vibration    28          0.805              1.370              0.809
 Vibration    29          0.827              1.316              0.737
 Vibration    30          0.838              1.289              0.704
 Vibration    31          0.870              1.218              0.623
 Vibration    32          0.880              1.195              0.599
 Vibration    33          0.933              1.082              0.492

                           ! Non-Optimized Parameters !
 Normal termination of Gaussian 16 at Mon Dec 14 17:32:38 2020.

 ----------------------------------------------------------------------
 # B3LYP/6-311++G(d,p) empiricaldispersion=gd3bj scf=xqc pop=npa geom=c
 heck
 ----------------------------------------------------------------------

 --------------------------------------
 CID_14230919_JID_9003_Energie_neutraal
 --------------------------------------
 Structure from the checkpoint file:  "JID_9003.chk"
 Charge =  0 Multiplicity = 1

 SCF Done:  E(RB3LYP) =  -1963.88729271     A.U. after   17 cycles
 Normal termination of Gaussian 16 at Mon Dec 14 17:44:16 2020.

 ----------------------------------------------------------------------
 # B3LYP/6-311++G(d,p) empiricaldispersion=gd3bj scf=xqc pop=npa geom=c
 heck
 ----------------------------------------------------------------------

 ------------------------------------
 CID_14230919_JID_9003_Energie_kation
 ------------------------------------
 Structure from the checkpoint file:  "JID_9003.chk"
 Charge =  1 Multiplicity = 2

 SCF Done:  E(UB3LYP) =  -1963.59847583     A.U. after   22 cycles
 Normal termination of Gaussian 16 at Mon Dec 14 18:06:27 2020.
 Gaussian 16:  ES64L-G16RevA.03 25-Dec-2016

 ----------------------------------------------------------------------
 # B3LYP/6-311++G(d,p) empiricaldispersion=gd3bj scf=xqc pop=npa geom=c
 heck
 ----------------------------------------------------------------------

 -----------------------------------
 CID_14230919_JID_9003_Energie_anion
 -----------------------------------
 Structure from the checkpoint file:  "JID_9003.chk"
 Charge = -1 Multiplicity = 2

                         Standard orientation:
 ---------------------------------------------------------------------
 Center     Atomic      Atomic             Coordinates (Angstroms)
 Number     Number       Type             X           Y           Z
 ---------------------------------------------------------------------
      1          6           0        4.569047   -0.361524   -0.571578
      2          6           0        3.597166   -1.363529   -1.200215
      3          6           0        3.209826   -2.528562   -0.276603
      4          6           0        2.398235   -2.138863    0.953697
      5          8           0        1.111088   -1.613442    0.539574
      6          6           0        0.938639   -0.276211    0.550152
      7          8           0        1.766063    0.510607    0.978594
      8          6           0       -0.356171    0.131486   -0.005190
      9          6           0       -1.478938   -0.662509   -0.062181
     10         16           0       -3.069063   -0.135131   -0.638486
     11          6           0       -3.904035   -1.623485   -0.230139
     12          6           0       -3.184659   -2.626211    0.283229
     13         16           0       -1.468059   -2.346061    0.492731
     14         16           0       -0.334072    1.789205   -0.706898
     15          8           0        0.823099    1.884063   -1.608399
     16          8           0       -1.699738    1.994265   -1.243990
     17          6           0       -0.174853    3.033436    0.655208
     18          6           0       -0.802207    2.490509    1.936549
     19          6           0        1.247793    3.554260    0.816896
     20          1           0        4.109078    0.161508    0.271257
     21          1           0        4.865702    0.397037   -1.303646
     22          1           0        5.480120   -0.861721   -0.218368
     23          1           0        2.693574   -0.837759   -1.533069
     24          1           0        4.047433   -1.790751   -2.105304
     25          1           0        2.634707   -3.272931   -0.841470
     26          1           0        4.118034   -3.035218    0.080357
     27          1           0        2.162227   -3.014110    1.563819
     28          1           0        2.898003   -1.389151    1.568037
     29          1           0       -4.967686   -1.657714   -0.436627
     30          1           0       -3.563515   -3.602892    0.560474
     31          1           0       -0.817297    3.817088    0.236271
     32          1           0       -0.181433    1.699708    2.365246
     33          1           0       -0.875797    3.302395    2.668051
     34          1           0       -1.810141    2.102015    1.759910
     35          1           0        1.654444    3.881077   -0.142762
     36          1           0        1.227678    4.412466    1.498951
     37          1           0        1.900832    2.784015    1.226134
 ---------------------------------------------------------------------

 SCF Done:  E(UB3LYP) =  -1963.90511118     A.U. after   25 cycles

 The electronic state is 2-A.
 Alpha  occ. eigenvalues --  -88.90132 -88.73854 -88.73601 -19.02515 -18.97164
 Alpha  occ. eigenvalues --  -18.97158 -18.94977 -10.14327 -10.11153 -10.09056
 Alpha  occ. eigenvalues --  -10.08194 -10.08082 -10.07475 -10.06808 -10.05969
 Alpha  occ. eigenvalues --  -10.05652 -10.04978 -10.04913 -10.04193  -7.96534
 Alpha  occ. eigenvalues --   -7.82394  -7.82096  -5.92831  -5.92686  -5.92626
 Alpha  occ. eigenvalues --   -5.78762  -5.78464  -5.78346  -5.78046  -5.77896
 Alpha  occ. eigenvalues --   -5.77601  -0.96695  -0.96093  -0.87322  -0.86069
 Alpha  occ. eigenvalues --   -0.74936  -0.69719  -0.69469  -0.66212  -0.62834
 Alpha  occ. eigenvalues --   -0.62163  -0.58923  -0.58071  -0.55346  -0.52627
 Alpha  occ. eigenvalues --   -0.48501  -0.46498  -0.44939  -0.44187  -0.41616
 Alpha  occ. eigenvalues --   -0.38378  -0.38133  -0.36988  -0.36074  -0.34820
 Alpha  occ. eigenvalues --   -0.34052  -0.33705  -0.32231  -0.31524  -0.30981
 Alpha  occ. eigenvalues --   -0.30080  -0.29221  -0.28697  -0.28215  -0.28060
 Alpha  occ. eigenvalues --   -0.27420  -0.26487  -0.26037  -0.25539  -0.24358
 Alpha  occ. eigenvalues --   -0.23971  -0.23605  -0.22974  -0.22550  -0.21779
 Alpha  occ. eigenvalues --   -0.19915  -0.18971  -0.17731  -0.17544  -0.17126
 Alpha  occ. eigenvalues --   -0.16071  -0.14983  -0.14519  -0.13810  -0.07388
 Alpha  occ. eigenvalues --    0.03748
 Alpha virt. eigenvalues --    0.07321   0.07921   0.08173   0.09192   0.09723
 Alpha virt. eigenvalues --    0.09991   0.10536   0.10940   0.11295   0.11445
 Alpha virt. eigenvalues --    0.12213   0.12629   0.12707   0.13097   0.13841

  Beta  occ. eigenvalues --  -88.90128 -88.73820 -88.73566 -19.02431 -18.97155
  Beta  occ. eigenvalues --  -18.97149 -18.94721 -10.14111 -10.11157 -10.09041
  Beta  occ. eigenvalues --  -10.08184 -10.08087 -10.06804 -10.06542 -10.05969
  Beta  occ. eigenvalues --  -10.05648 -10.04976 -10.04913 -10.04177  -7.96529
  Beta  occ. eigenvalues --   -7.82363  -7.82065  -5.92828  -5.92667  -5.92625
  Beta  occ. eigenvalues --   -5.78759  -5.78458  -5.78346  -5.78047  -5.77754
  Beta  occ. eigenvalues --   -5.77457  -0.96514  -0.95973  -0.86941  -0.86031
  Beta  occ. eigenvalues --   -0.74478  -0.69663  -0.69439  -0.65700  -0.62634
  Beta  occ. eigenvalues --   -0.62034  -0.58634  -0.57973  -0.55276  -0.52521
  Beta  occ. eigenvalues --   -0.48393  -0.46102  -0.44725  -0.43926  -0.41365
  Beta  occ. eigenvalues --   -0.38232  -0.37971  -0.36911  -0.36017  -0.34748
  Beta  occ. eigenvalues --   -0.33998  -0.33470  -0.32022  -0.31371  -0.30683
  Beta  occ. eigenvalues --   -0.30022  -0.29135  -0.28625  -0.28131  -0.27925
  Beta  occ. eigenvalues --   -0.26995  -0.26165  -0.25458  -0.24851  -0.24301
  Beta  occ. eigenvalues --   -0.23871  -0.23572  -0.22849  -0.22490  -0.21644
  Beta  occ. eigenvalues --   -0.19736  -0.18833  -0.17649  -0.16949  -0.15906
  Beta  occ. eigenvalues --   -0.15001  -0.14635  -0.14060  -0.13471  -0.06433
  Beta virt. eigenvalues --    0.07255   0.07877   0.08117   0.09116   0.09652
  Beta virt. eigenvalues --    0.09919   0.10454   0.10878   0.11155   0.11371
  Beta virt. eigenvalues --    0.11774   0.12200   0.12621   0.12736   0.13232

 Mulliken charges and spin densities:
               1          2
     1  C   -0.546368  -0.017793
     2  C   -0.028734   0.010051
     3  C   -0.279157  -0.030869
     4  C   -0.219059   0.003627
     5  O    0.175634   0.001978
     6  C   -0.340804   0.132382
     7  O   -0.287501   0.080898
     8  C    0.102300   0.089734
     9  C    0.449202   0.433730
    10  S   -0.063307   0.123255
    11  C   -0.370127  -0.022230
    12  C    0.097899   0.016300
    13  S   -0.553491   0.111194
    14  S   -0.381153  -0.015995
    15  O   -0.138391   0.014791
    16  O   -0.155276  -0.004809
    17  C    0.041811  -0.008354
    18  C   -0.652429   0.005025
    19  C   -0.557508  -0.009227
    20  H    0.169732   0.005056
    21  H    0.120429  -0.000896
    22  H    0.091069   0.008190
    23  H    0.176071   0.002075
    24  H    0.145307  -0.000293
    25  H    0.139230  -0.001807
    26  H    0.080633   0.022042
    27  H    0.126297   0.023908
    28  H    0.154233  -0.007851
    29  H    0.170873   0.002639
    30  H    0.183256   0.002733
    31  H    0.213862   0.007204
    32  H    0.210937  -0.002142
    33  H    0.103400   0.016353
    34  H    0.158363   0.010072
    35  H    0.153031   0.000288
    36  H    0.104419   0.000596
    37  H    0.205316  -0.001851
 Sum of Mulliken charges =  -1.00000   1.00000

 Dipole moment (field-independent basis, Debye):
    X=              1.0384    Y=             -2.0131    Z=              3.1270  Tot=              3.8612
 Quadrupole moment (field-independent basis, Debye-Ang):
   XX=           -163.3547   YY=           -153.0703   ZZ=           -154.6790
   XY=             -0.5752   XZ=             -2.7962   YZ=              6.7310

 Summary of Natural Population Analysis:

                                       Natural Population
                Natural  -----------------------------------------------
    Atom  No    Charge         Core      Valence    Rydberg      Total
 -----------------------------------------------------------------------
      C    1   -0.29150      0.99967     2.28698    0.00485     3.29150
      C    2   -0.19467      0.99964     2.18791    0.00712     3.19467
      C    3   -0.19703      0.99963     2.19070    0.00671     3.19703
      C    4   -0.01595      0.99956     2.00644    0.00995     3.01595
      O    5   -0.28657      0.99985     3.27613    0.01058     4.28657
      C    6    0.41960      0.99957     1.55411    0.02672     2.58040
      O    7   -0.32171      0.99987     3.31549    0.00636     4.32171
      C    8   -0.26190      0.99923     2.24143    0.02124     3.26190
      C    9    0.02242      0.99938     1.96597    0.01223     2.97758
      S   10    0.22718      4.99944     2.75043    0.02295     7.77282
      C   11   -0.20946      0.99947     2.19820    0.01180     3.20946
      C   12   -0.20763      0.99947     2.19619    0.01197     3.20763
      S   13    0.20984      4.99943     2.76752    0.02322     7.79016
      S   14    1.03945      4.99915     1.86746    0.09394     6.96055
      O   15   -0.47275      0.99991     3.46480    0.00803     4.47275
      O   16   -0.48444      0.99991     3.47843    0.00610     4.48444
      C   17   -0.19023      0.99958     2.17796    0.01268     3.19023
      C   18   -0.29572      0.99964     2.29070    0.00538     3.29572
      C   19   -0.29800      0.99963     2.29229    0.00608     3.29800
      H   20    0.11339      0.00000     0.38563    0.00098     0.38661
      H   21    0.09686      0.00000     0.40231    0.00083     0.40314
      H   22    0.08420      0.00000     0.41480    0.00100     0.41580
      H   23    0.11129      0.00000     0.38752    0.00119     0.38871
      H   24    0.08775      0.00000     0.41103    0.00121     0.41225
      H   25    0.09877      0.00000     0.40010    0.00113     0.40123
      H   26    0.08935      0.00000     0.40950    0.00115     0.41065
      H   27    0.08585      0.00000     0.41310    0.00105     0.41415
      H   28    0.09802      0.00000     0.40060    0.00137     0.40198
      H   29    0.10275      0.00000     0.39609    0.00116     0.39725
      H   30    0.10284      0.00000     0.39602    0.00114     0.39716
      H   31    0.10411      0.00000     0.39346    0.00243     0.39589
      H   32    0.11257      0.00000     0.38644    0.00099     0.38743
      H   33    0.09379      0.00000     0.40509    0.00112     0.40621
      H   34    0.10942      0.00000     0.38941    0.00116     0.39058
      H   35    0.10743      0.00000     0.39148    0.00109     0.39257
      H   36    0.09005      0.00000     0.40884    0.00112     0.40995
      H   37    0.12061      0.00000     0.37843    0.00096     0.37939
 =======================================================================
   * Total *    0.00000     30.99203    53.67899    0.32898    85.00000

 Normal termination of Gaussian 16 at Mon Dec 14 18:30:40 2020.
