 Gaussian 16, Revision A.03,

 -----------------------------------------------------------
 # opt freq B3LYP/6-31G(d) empiricaldispersion=gd3bj scf=xqc
 -----------------------------------------------------------

 -------------------------------
 CID_114617989_JID_7133_neutraal
 -------------------------------
 Symbolic Z-matrix:
 Charge =  0 Multiplicity = 1

 SCF Done:  E(RB3LYP) =  -1177.04742226     A.U. after   15 cycles
 SCF Done:  E(RB3LYP) =  -1177.05622371     A.U. after   14 cycles
 SCF Done:  E(RB3LYP) =  -1177.05046718     A.U. after   15 cycles
 SCF Done:  E(RB3LYP) =  -1177.05653118     A.U. after   12 cycles
 SCF Done:  E(RB3LYP) =  -1177.05823963     A.U. after   13 cycles
 SCF Done:  E(RB3LYP) =  -1177.05938020     A.U. after   13 cycles
 SCF Done:  E(RB3LYP) =  -1177.05987084     A.U. after   12 cycles
 SCF Done:  E(RB3LYP) =  -1177.06021098     A.U. after   14 cycles
 SCF Done:  E(RB3LYP) =  -1177.06106244     A.U. after   12 cycles
 SCF Done:  E(RB3LYP) =  -1177.06194285     A.U. after   14 cycles
 SCF Done:  E(RB3LYP) =  -1177.06658851     A.U. after   10 cycles
 SCF Done:  E(RB3LYP) =  -1177.06659331     A.U. after   10 cycles
 SCF Done:  E(RB3LYP) =  -1177.06659438     A.U. after    8 cycles
 SCF Done:  E(RB3LYP) =  -1177.06659457     A.U. after    8 cycles
 SCF Done:  E(RB3LYP) =  -1177.06659461     A.U. after    7 cycles
 SCF Done:  E(RB3LYP) =  -1177.06659462     A.U. after    7 cycles
 Optimization completed.
    -- Stationary point found.
 Normal termination of Gaussian 16 at Sun Dec 13 13:08:42 2020.

 --------------------------------------------------------------------
 #N Geom=AllCheck Guess=TCheck SCRF=Check GenChk RB3LYP/6-31G(d) Freq
 --------------------------------------------------------------------

 Structure from the checkpoint file:  "JID_7133.chk"
 -------------------------------
 CID_114617989_JID_7133_neutraal
 -------------------------------
 Charge =  0 Multiplicity = 1

 SCF Done:  E(RB3LYP) =  -1177.06659462     A.U. after    1 cycles

  Exact polarizability: 146.366 -16.814 172.837  10.567   3.932 109.402
 Approx polarizability: 200.595 -38.283 281.215  26.735  23.882 195.162

                      1                      2                      3
                      A                      A                      A
 Frequencies --     16.4956                27.7547                39.3776
 Red. masses --      5.2304                 6.9046                 3.8960
 Frc consts  --      0.0008                 0.0031                 0.0036
 IR Inten    --      0.2091                 0.2903                 1.5344

                      4                      5                      6
                      A                      A                      A
 Frequencies --     48.3860                60.1448                73.1906
 Red. masses --      4.5002                 6.2489                10.9829
 Frc consts  --      0.0062                 0.0133                 0.0347
 IR Inten    --      0.4939                 0.6910                 3.7634

                      7                      8                      9
                      A                      A                      A
 Frequencies --     97.4585               124.7900               149.2480
 Red. masses --      3.3429                 6.9554                 8.0585
 Frc consts  --      0.0187                 0.0638                 0.1058
 IR Inten    --      1.2935                 1.1253                 2.7655

                     10                     11                     12
                      A                      A                      A
 Frequencies --    181.1180               194.2319               207.8528
 Red. masses --      1.2042                 3.6560                 6.4516
 Frc consts  --      0.0233                 0.0813                 0.1642
 IR Inten    --      0.4927                 3.3451                 2.9400

                     13                     14                     15
                      A                      A                      A
 Frequencies --    228.5881               273.6123               321.6758
 Red. masses --      3.8321                 4.6551                 2.3316
 Frc consts  --      0.1180                 0.2053                 0.1421
 IR Inten    --      2.3953                 1.9661                 2.4150

                     16                     17                     18
                      A                      A                      A
 Frequencies --    351.8402               394.4370               405.8767
 Red. masses --      7.1123                 8.0615                 2.1408
 Frc consts  --      0.5187                 0.7390                 0.2078
 IR Inten    --      2.0753                 1.8323                 1.4211

                     19                     20                     21
                      A                      A                      A
 Frequencies --    424.8570               490.6006               496.7910
 Red. masses --      2.4613                 4.4033                 3.8742
 Frc consts  --      0.2618                 0.6244                 0.5633
 IR Inten    --      1.1612                 6.4874                 9.1091

                     22                     23                     24
                      A                      A                      A
 Frequencies --    522.3034               550.7847               575.1137
 Red. masses --      2.2822                 3.3105                 2.8613
 Frc consts  --      0.3668                 0.5917                 0.5576
 IR Inten    --     15.6994                10.8308                 9.1916

                     25                     26                     27
                      A                      A                      A
 Frequencies --    585.6646               632.1430               639.6563
 Red. masses --      2.5911                 2.1781                 2.4293
 Frc consts  --      0.5236                 0.5128                 0.5856
 IR Inten    --     17.8372                39.3358                93.1217

                     28                     29                     30
                      A                      A                      A
 Frequencies --    647.6170               675.6595               692.1574
 Red. masses --      3.3180                 2.2926                 3.5255
 Frc consts  --      0.8199                 0.6166                 0.9951
 IR Inten    --     47.7527                80.9031                31.4760

                     31                     32                     33
                      A                      A                      A
 Frequencies --    730.3447               756.1688               770.7083
 Red. masses --      1.4272                 1.8117                 2.3986
 Frc consts  --      0.4485                 0.6103                 0.8395
 IR Inten    --     31.0978                64.2360                60.5580

                     34                     35                     36
                      A                      A                      A
 Frequencies --    788.4641               827.1845               843.9927
 Red. masses --      9.0602                 1.9783                 3.5242
 Frc consts  --      3.3186                 0.7975                 1.4791
 IR Inten    --     36.9901                 4.2663                 1.4315

                     37                     38                     39
                      A                      A                      A
 Frequencies --    867.2084               874.3500               943.5826
 Red. masses --      3.3503                 2.8568                 1.3374
 Frc consts  --      1.4845                 1.2868                 0.7016
 IR Inten    --      8.6254                14.1007                36.5168

                     40                     41                     42
                      A                      A                      A
 Frequencies --    955.8249               980.7660               998.0373
 Red. masses --      7.1950                 1.5160                 1.7342
 Frc consts  --      3.8729                 0.8592                 1.0178
 IR Inten    --     10.6432                 2.3271                 0.4878

                     43                     44                     45
                      A                      A                      A
 Frequencies --   1024.0017              1075.8516              1093.4672
 Red. masses --      1.8668                 1.4841                 1.6899
 Frc consts  --      1.1533                 1.0121                 1.1905
 IR Inten    --      4.6420                 8.1456                 4.8484

                     46                     47                     48
                      A                      A                      A
 Frequencies --   1113.3945              1123.5004              1157.4777
 Red. masses --      1.7551                 3.6867                 4.2640
 Frc consts  --      1.2819                 2.7418                 3.3659
 IR Inten    --      5.7422                14.6899                36.3742

                     49                     50                     51
                      A                      A                      A
 Frequencies --   1179.3582              1209.8976              1261.1094
 Red. masses --      3.2685                 1.9670                 1.2647
 Frc consts  --      2.6785                 1.6965                 1.1851
 IR Inten    --    182.4058               199.4504                17.3689

                     52                     53                     54
                      A                      A                      A
 Frequencies --   1294.3015              1322.2253              1330.1858
 Red. masses --      1.4205                 2.3059                 2.4473
 Frc consts  --      1.4020                 2.3752                 2.5513
 IR Inten    --     16.3861                28.8704                12.1891

                     55                     56                     57
                      A                      A                      A
 Frequencies --   1360.6260              1386.9226              1414.6919
 Red. masses --      1.6264                 1.2764                 3.7454
 Frc consts  --      1.7740                 1.4466                 4.4164
 IR Inten    --     79.7024                20.2390                49.0127

                     58                     59                     60
                      A                      A                      A
 Frequencies --   1442.5158              1450.4268              1469.3470
 Red. masses --      1.2686                 2.4406                 1.2306
 Frc consts  --      1.5553                 3.0250                 1.5654
 IR Inten    --     19.2933               221.1750                 6.6075

                     61                     62                     63
                      A                      A                      A
 Frequencies --   1477.2959              1479.2928              1507.7734
 Red. masses --      1.5072                 1.2774                 1.0464
 Frc consts  --      1.9380                 1.6470                 1.4016
 IR Inten    --     21.5667                 0.9692                 8.3846

                     64                     65                     66
                      A                      A                      A
 Frequencies --   1517.4242              1525.4380              1549.2256
 Red. masses --      1.0944                 1.0616                 2.8566
 Frc consts  --      1.4848                 1.4555                 4.0395
 IR Inten    --     46.5698                 2.1237                79.5671

                     67                     68                     69
                      A                      A                      A
 Frequencies --   1549.9654              1571.9784              1744.4275
 Red. masses --      1.4877                 9.3737                 5.0700
 Frc consts  --      2.1057                13.6476                 9.0901
 IR Inten    --     15.0294                15.9436                 6.8503

                     70                     71                     72
                      A                      A                      A
 Frequencies --   1804.9469              1820.3538              3038.1715
 Red. masses --      6.4857                 9.9119                 1.0401
 Frc consts  --     12.4491                19.3517                 5.6566
 IR Inten    --    417.7036               312.9866                19.3070

                     73                     74                     75
                      A                      A                      A
 Frequencies --   3056.2934              3078.1890              3088.8772
 Red. masses --      1.0573                 1.0625                 1.0975
 Frc consts  --      5.8188                 5.9315                 6.1693
 IR Inten    --     12.4412                21.4230                16.3067

                     76                     77                     78
                      A                      A                      A
 Frequencies --   3100.8446              3123.3516              3135.3326
 Red. masses --      1.1074                 1.1022                 1.1008
 Frc consts  --      6.2733                 6.3353                 6.3756
 IR Inten    --     14.2819                 8.7162                21.8367

                     79                     80                     81
                      A                      A                      A
 Frequencies --   3161.2771              3240.0555              3294.0652
 Red. masses --      1.0603                 1.1164                 1.0947
 Frc consts  --      6.2431                 6.9051                 6.9988
 IR Inten    --      8.0510                16.3616                 6.6525

                     82                     83                     84
                      A                      A                      A
 Frequencies --   3600.9249              3609.0577              3691.8182
 Red. masses --      1.0760                 1.0761                 1.0640
 Frc consts  --      8.2206                 8.2581                 8.5439
 IR Inten    --     32.5799                26.0842                71.2214

 - Thermochemistry -
 -------------------
 Temperature   298.150 Kelvin.  Pressure   1.00000 Atm.
 Atom     1 has atomic number  6 and mass  12.00000

 Molecular mass:   255.06776 amu.
 Principal axes and moments of inertia in atomic units:
                           1         2         3
     Eigenvalues --  3314.452316140.182758346.85361
           X            0.99943   0.03362   0.00071
           Y           -0.03361   0.99933  -0.01431
           Z           -0.00119   0.01428   0.99990
 This molecule is an asymmetric top.
 Rotational symmetry number  1.
 Warning -- assumption of classical behavior for rotation
           may cause significant error
 Rotational temperatures (Kelvin)      0.02613     0.01411     0.01038
 Rotational constants (GHZ):           0.54451     0.29392     0.21622
 Zero-point vibrational energy     615728.3 (Joules/Mol)
                                  147.16261 (Kcal/Mol)
 Warning -- explicit consideration of  25 degrees of freedom as
           vibrations may cause significant error
 Vibrational temperatures:     23.73    39.93    56.66    69.62    86.53
          (Kelvin)            105.30   140.22   179.54   214.73   260.59
                              279.46   299.05   328.89   393.67   462.82
                              506.22   567.51   583.97   611.27   705.86
                              714.77   751.48   792.46   827.46   842.64
                              909.51   920.32   931.78   972.12   995.86
                             1050.80  1087.96  1108.88  1134.42  1190.13
                             1214.32  1247.72  1257.99  1357.60  1375.22
                             1411.10  1435.95  1473.31  1547.91  1573.26
                             1601.93  1616.47  1665.35  1696.83  1740.77
                             1814.46  1862.21  1902.39  1913.84  1957.64
                             1995.47  2035.43  2075.46  2086.84  2114.06
                             2125.50  2128.37  2169.35  2183.23  2194.76
                             2228.99  2230.05  2261.73  2509.84  2596.92
                             2619.08  4371.25  4397.32  4428.83  4444.21
                             4461.42  4493.81  4511.04  4548.37  4661.72
                             4739.43  5180.93  5192.63  5311.70

 Zero-point correction=                           0.234519 (Hartree/Particle)
 Thermal correction to Energy=                    0.251802
 Thermal correction to Enthalpy=                  0.252746
 Thermal correction to Gibbs Free Energy=         0.186080
 Sum of electronic and zero-point Energies=          -1176.832076
 Sum of electronic and thermal Energies=             -1176.814793
 Sum of electronic and thermal Enthalpies=           -1176.813849
 Sum of electronic and thermal Free Energies=        -1176.880515

                     E (Thermal)             CV                S
                      KCal/Mol        Cal/Mol-Kelvin    Cal/Mol-Kelvin
 Total                  158.008             62.548            140.311
 Electronic               0.000              0.000              0.000
 Translational            0.889              2.981             42.509
 Rotational               0.889              2.981             33.496
 Vibrational            156.231             56.586             64.306
 Vibration     1          0.593              1.986              7.017
 Vibration     2          0.593              1.984              5.984
 Vibration     3          0.594              1.981              5.290
 Vibration     4          0.595              1.978              4.882
 Vibration     5          0.597              1.973              4.452
 Vibration     6          0.599              1.967              4.066
 Vibration     7          0.603              1.951              3.505
 Vibration     8          0.610              1.928              3.025
 Vibration     9          0.618              1.903              2.682
 Vibration    10          0.630              1.865              2.317
 Vibration    11          0.635              1.848              2.187
 Vibration    12          0.641              1.829              2.062
 Vibration    13          0.651              1.797              1.890
 Vibration    14          0.676              1.722              1.573
 Vibration    15          0.707              1.632              1.302
 Vibration    16          0.728              1.571              1.158
 Vibration    17          0.761              1.482              0.983
 Vibration    18          0.771              1.457              0.941
 Vibration    19          0.787              1.416              0.876
 Vibration    20          0.846              1.271              0.682
 Vibration    21          0.852              1.257              0.666
 Vibration    22          0.877              1.201              0.605
 Vibration    23          0.906              1.138              0.543
 Vibration    24          0.931              1.085              0.494
 Vibration    25          0.943              1.062              0.475

 Optimization completed.
    -- Stationary point found.
 Normal termination of Gaussian 16 at Sun Dec 13 13:19:01 2020.

 ----------------------------------------------------------------------
 # B3LYP/6-311++G(d,p) empiricaldispersion=gd3bj scf=xqc pop=npa geom=c
 heck
 ----------------------------------------------------------------------

 ---------------------------------------
 CID_114617989_JID_7133_Energie_neutraal
 ---------------------------------------
 Structure from the checkpoint file:  "JID_7133.chk"
 Charge =  0 Multiplicity = 1

 SCF Done:  E(RB3LYP) =  -1177.33195498     A.U. after   16 cycles
 Normal termination of Gaussian 16 at Sun Dec 13 13:24:17 2020.

 ----------------------------------------------------------------------
 # B3LYP/6-311++G(d,p) empiricaldispersion=gd3bj scf=xqc pop=npa geom=c
 heck
 ----------------------------------------------------------------------

 -------------------------------------
 CID_114617989_JID_7133_Energie_kation
 -------------------------------------
 Structure from the checkpoint file:  "JID_7133.chk"
 Charge =  1 Multiplicity = 2

 SCF Done:  E(UB3LYP) =  -1177.01321196     A.U. after   32 cycles
 Normal termination of Gaussian 16 at Sun Dec 13 13:39:18 2020.
 Gaussian 16:  ES64L-G16RevA.03 25-Dec-2016

 ----------------------------------------------------------------------
 # B3LYP/6-311++G(d,p) empiricaldispersion=gd3bj scf=xqc pop=npa geom=c
 heck
 ----------------------------------------------------------------------

 ------------------------------------
 CID_114617989_JID_7133_Energie_anion
 ------------------------------------
 Structure from the checkpoint file:  "JID_7133.chk"
 Charge = -1 Multiplicity = 2

                         Standard orientation:
 ---------------------------------------------------------------------
 Center     Atomic      Atomic             Coordinates (Angstroms)
 Number     Number       Type             X           Y           Z
 ---------------------------------------------------------------------
      1          6           0        4.355682    1.400280   -0.227375
      2          6           0        2.945362    1.902440   -0.057805
      3          6           0        2.577358    3.158648   -0.322225
      4          6           0        1.932074    0.892436    0.430397
      5          7           0        1.736989   -0.165706   -0.567774
      6          6           0        1.859511   -1.518989   -0.366250
      7          8           0        2.230119   -2.291772   -1.241776
      8          7           0        1.506281   -1.983249    0.907385
      9          6           0        0.364172   -1.462707    1.660983
     10          6           0       -0.808855   -1.044840    0.813693
     11          7           0       -1.387330    0.113209    0.906919
     12          6           0       -2.421458    0.226769    0.000844
     13          6           0       -2.630474   -0.866544   -0.799645
     14         16           0       -1.492888   -2.103939   -0.426327
     15          6           0       -3.243212    1.449642   -0.120021
     16          8           0       -4.168720    1.568813   -0.898741
     17          8           0       -2.857766    2.431555    0.724290
     18          1           0        5.014321    2.175985   -0.627748
     19          1           0        4.392975    0.534167   -0.899542
     20          1           0        4.765426    1.063965    0.734772
     21          1           0        1.550638    3.489738   -0.189435
     22          1           0        3.289769    3.900766   -0.673086
     23          1           0        2.306247    0.420666    1.345583
     24          1           0        0.978159    1.378438    0.664140
     25          1           0        1.943259    0.088333   -1.525214
     26          1           0        1.593915   -2.991606    0.917325
     27          1           0        0.062478   -2.248759    2.361139
     28          1           0        0.632072   -0.590388    2.262682
     29          1           0       -3.376870   -0.972844   -1.573374
     30          1           0       -3.467786    3.173203    0.552520
 ---------------------------------------------------------------------

 SCF Done:  E(UB3LYP) =  -1177.34284067     A.U. after   32 cycles

 The electronic state is 2-A.
 Alpha  occ. eigenvalues --  -88.73372 -19.03565 -18.97788 -18.96605 -14.23036
 Alpha  occ. eigenvalues --  -14.22369 -14.18054 -10.18911 -10.15385 -10.11464
 Alpha  occ. eigenvalues --  -10.10619 -10.10501 -10.09273 -10.09023 -10.08262
 Alpha  occ. eigenvalues --  -10.05848 -10.04108  -7.82039  -5.78315  -5.77962
 Alpha  occ. eigenvalues --   -5.77681  -0.97344  -0.94342  -0.87927  -0.83630
 Alpha  occ. eigenvalues --   -0.82461  -0.80087  -0.72312  -0.65901  -0.64393
 Alpha  occ. eigenvalues --   -0.61664  -0.60212  -0.58351  -0.51460  -0.50598
 Alpha  occ. eigenvalues --   -0.45917  -0.44594  -0.42481  -0.40221  -0.39118
 Alpha  occ. eigenvalues --   -0.38653  -0.37815  -0.36697  -0.35510  -0.35420
 Alpha  occ. eigenvalues --   -0.33990  -0.33610  -0.32128  -0.31348  -0.31129
 Alpha  occ. eigenvalues --   -0.29926  -0.29535  -0.28386  -0.27158  -0.26867
 Alpha  occ. eigenvalues --   -0.26062  -0.25389  -0.22885  -0.19434  -0.18749
 Alpha  occ. eigenvalues --   -0.17364  -0.15887  -0.15311  -0.15264  -0.14537
 Alpha  occ. eigenvalues --   -0.14153  -0.11292   0.04179
 Alpha virt. eigenvalues --    0.05894   0.07027   0.07730   0.08299   0.08870
 Alpha virt. eigenvalues --    0.09712   0.10425   0.10763   0.11313   0.11444
 Alpha virt. eigenvalues --    0.11982   0.12621   0.12822   0.13727   0.14175

  Beta  occ. eigenvalues --  -88.73308 -19.03498 -18.97779 -18.96492 -14.23033
  Beta  occ. eigenvalues --  -14.22338 -14.18105 -10.18912 -10.15193 -10.11461
  Beta  occ. eigenvalues --  -10.10618 -10.10495 -10.09094 -10.09017 -10.08255
  Beta  occ. eigenvalues --  -10.05851 -10.03524  -7.81981  -5.78289  -5.77940
  Beta  occ. eigenvalues --   -5.77460  -0.97142  -0.94330  -0.87727  -0.83553
  Beta  occ. eigenvalues --   -0.82387  -0.80043  -0.72297  -0.65357  -0.64116
  Beta  occ. eigenvalues --   -0.61645  -0.60172  -0.58146  -0.51173  -0.50285
  Beta  occ. eigenvalues --   -0.45895  -0.44258  -0.42174  -0.40189  -0.39067
  Beta  occ. eigenvalues --   -0.38540  -0.37757  -0.36505  -0.35447  -0.35224
  Beta  occ. eigenvalues --   -0.33859  -0.33592  -0.31454  -0.31222  -0.31021
  Beta  occ. eigenvalues --   -0.29827  -0.29450  -0.28361  -0.26967  -0.26792
  Beta  occ. eigenvalues --   -0.25638  -0.25042  -0.22447  -0.18845  -0.18660
  Beta  occ. eigenvalues --   -0.17276  -0.15851  -0.15240  -0.14460  -0.14170
  Beta  occ. eigenvalues --   -0.14055  -0.09589
  Beta virt. eigenvalues --    0.05881   0.07110   0.08035   0.08272   0.08889
  Beta virt. eigenvalues --    0.09647   0.10399   0.10454   0.10806   0.11323
  Beta virt. eigenvalues --    0.11959   0.12412   0.12706   0.12864   0.13695

 Mulliken charges and spin densities:
               1          2
     1  C   -0.327518  -0.288574
     2  C    0.637894   0.112300
     3  C   -0.669247  -0.112763
     4  C   -0.614067   0.081923
     5  N   -0.104064  -0.016600
     6  C    0.150633  -0.070771
     7  O   -0.348999   0.007533
     8  N   -0.171383  -0.048180
     9  C    0.519498  -0.646403
    10  C    0.207283   0.312424
    11  N    0.097061  -0.034200
    12  C   -0.869152   0.027925
    13  C    0.230542   0.371114
    14  S   -0.461398   0.164115
    15  C   -0.343987   0.178283
    16  O   -0.407913   0.042014
    17  O   -0.201481   0.011294
    18  H    0.102501   0.037512
    19  H    0.178991   0.005187
    20  H    0.064007   0.090073
    21  H    0.170756  -0.006102
    22  H    0.067524   0.048173
    23  H    0.104704   0.026373
    24  H    0.155489   0.011768
    25  H    0.321934  -0.000327
    26  H    0.125845   0.188283
    27  H   -0.329636   0.542296
    28  H    0.195939  -0.003541
    29  H    0.256807  -0.032452
    30  H    0.261440   0.001323
 Sum of Mulliken charges =  -1.00000   1.00000

 Dipole moment (field-independent basis, Debye):
    X=              5.3095    Y=              3.9193    Z=              0.9524  Tot=              6.6677
 Quadrupole moment (field-independent basis, Debye-Ang):
   XX=           -158.4919   YY=           -136.8177   ZZ=           -126.7252
   XY=             10.4748   XZ=             -2.8282   YZ=             -0.5783

 Summary of Natural Population Analysis:

                                       Natural Population
                Natural  -----------------------------------------------
    Atom  No    Charge         Core      Valence    Rydberg      Total
 -----------------------------------------------------------------------
      C    1   -0.30285      0.99962     2.29809    0.00514     3.30285
      C    2   -0.00460      0.99953     1.99730    0.00778     3.00460
      C    3   -0.19360      0.99949     2.18737    0.00674     3.19360
      C    4   -0.10900      0.99956     2.09741    0.01203     3.10900
      N    5   -0.32672      0.99967     2.81739    0.00967     3.82672
      C    6    0.40801      0.99969     1.56750    0.02479     2.59199
      O    7   -0.33680      0.99987     3.33167    0.00526     4.33680
      N    8   -0.33925      0.99969     2.82890    0.01067     3.83925
      C    9   -0.11294      0.99954     2.09948    0.01391     3.11294
      C   10    0.04177      0.99961     1.93896    0.01966     2.95823
      N   11   -0.24569      0.99963     2.73575    0.01032     3.74569
      C   12   -0.02065      0.99941     2.00670    0.01453     3.02065
      C   13   -0.05693      0.99950     2.04885    0.00858     3.05693
      S   14    0.20237      4.99941     2.77775    0.02047     7.79763
      C   15    0.41444      0.99966     1.56226    0.02365     2.58556
      O   16   -0.32300      0.99987     3.31686    0.00627     4.32300
      O   17   -0.33925      0.99988     3.33320    0.00616     4.33925
      H   18    0.09929      0.00000     0.39957    0.00114     0.40071
      H   19    0.10850      0.00000     0.39017    0.00133     0.39150
      H   20    0.10355      0.00000     0.39517    0.00128     0.39645
      H   21    0.09909      0.00000     0.39984    0.00107     0.40091
      H   22    0.08944      0.00000     0.40935    0.00121     0.41056
      H   23    0.10240      0.00000     0.39633    0.00128     0.39760
      H   24    0.11063      0.00000     0.38712    0.00225     0.38937
      H   25    0.19337      0.00000     0.30500    0.00163     0.30663
      H   26    0.19521      0.00000     0.30262    0.00217     0.30479
      H   27    0.10897      0.00000     0.38841    0.00261     0.39103
      H   28    0.10078      0.00000     0.39759    0.00164     0.39922
      H   29    0.10692      0.00000     0.39221    0.00087     0.39308
      H   30    0.22655      0.00000     0.26824    0.00521     0.27345
 =======================================================================
   * Total *    0.00000     20.99363    45.77703    0.22934    67.00000

 Normal termination of Gaussian 16 at Sun Dec 13 13:52:47 2020.
