 Gaussian 16, Revision A.03,

 -----------------------------------------------------------
 # opt freq B3LYP/6-31G(d) empiricaldispersion=gd3bj scf=xqc
 -----------------------------------------------------------

 ------------------------------
 CID_58909725_JID_1111_neutraal
 ------------------------------
 Symbolic Z-matrix:
 Charge =  0 Multiplicity = 1

 SCF Done:  E(RB3LYP) =  -499.292092157     A.U. after   14 cycles
 SCF Done:  E(RB3LYP) =  -499.295640721     A.U. after   12 cycles
 SCF Done:  E(RB3LYP) =  -499.296321474     A.U. after   11 cycles
 SCF Done:  E(RB3LYP) =  -499.296881473     A.U. after   12 cycles
 SCF Done:  E(RB3LYP) =  -499.297060669     A.U. after   12 cycles
 SCF Done:  E(RB3LYP) =  -499.297156460     A.U. after   10 cycles
 SCF Done:  E(RB3LYP) =  -499.297164510     A.U. after   11 cycles
 SCF Done:  E(RB3LYP) =  -499.297182029     A.U. after    9 cycles
 SCF Done:  E(RB3LYP) =  -499.297183933     A.U. after    9 cycles
 SCF Done:  E(RB3LYP) =  -499.297184424     A.U. after    8 cycles
 SCF Done:  E(RB3LYP) =  -499.297184578     A.U. after    8 cycles
 SCF Done:  E(RB3LYP) =  -499.297184696     A.U. after    7 cycles
 Optimization completed.
    -- Stationary point found.
 Normal termination of Gaussian 16 at Tue Dec  8 19:15:22 2020.

 --------------------------------------------------------------------
 #N Geom=AllCheck Guess=TCheck SCRF=Check GenChk RB3LYP/6-31G(d) Freq
 --------------------------------------------------------------------

 Structure from the checkpoint file:  "JID_1111.chk"
 ------------------------------
 CID_58909725_JID_1111_neutraal
 ------------------------------
 Charge =  0 Multiplicity = 1

 SCF Done:  E(RB3LYP) =  -499.297184696     A.U. after    1 cycles

  Exact polarizability: 113.060  -1.409  99.683  -0.520  -0.764  78.789
 Approx polarizability: 143.078  -4.782 149.695  -0.591  -2.229 114.000

                      1                      2                      3
                      A                      A                      A
 Frequencies --     59.9465                69.9059               142.8857
 Red. masses --      2.8222                 3.0590                 2.7043
 Frc consts  --      0.0060                 0.0088                 0.0325
 IR Inten    --      0.3321                 0.9886                 2.2835

                      4                      5                      6
                      A                      A                      A
 Frequencies --    158.1480               191.8058               228.8566
 Red. masses --      4.4310                 2.7642                 1.1354
 Frc consts  --      0.0653                 0.0599                 0.0350
 IR Inten    --      1.9967                 2.6201                 0.0648

                      7                      8                      9
                      A                      A                      A
 Frequencies --    234.7433               258.2065               272.0091
 Red. masses --      1.0910                 1.1094                 1.4556
 Frc consts  --      0.0354                 0.0436                 0.0635
 IR Inten    --      0.2112                 0.2217                 0.5706

                     10                     11                     12
                      A                      A                      A
 Frequencies --    276.9934               287.0268               343.9015
 Red. masses --      1.5328                 2.6951                 2.6488
 Frc consts  --      0.0693                 0.1308                 0.1846
 IR Inten    --      1.1117                 1.7234                 1.2736

                     13                     14                     15
                      A                      A                      A
 Frequencies --    377.0053               437.4448               456.7785
 Red. masses --      2.6656                 2.9004                 3.0731
 Frc consts  --      0.2232                 0.3270                 0.3778
 IR Inten    --      0.7709                14.9480                14.3919

                     16                     17                     18
                      A                      A                      A
 Frequencies --    512.3032               548.2888               571.1508
 Red. masses --      3.1326                 1.7932                 2.5056
 Frc consts  --      0.4844                 0.3176                 0.4816
 IR Inten    --      9.3446                52.1043                52.4593

                     19                     20                     21
                      A                      A                      A
 Frequencies --    623.1390               700.5407               741.3779
 Red. masses --      3.6242                 2.8842                 3.1946
 Frc consts  --      0.8291                 0.8340                 1.0345
 IR Inten    --      2.4115                31.0666                14.5444

                     22                     23                     24
                      A                      A                      A
 Frequencies --    764.6441               846.6375               900.7145
 Red. masses --      5.9290                 2.0857                 2.3584
 Frc consts  --      2.0424                 0.8809                 1.1273
 IR Inten    --     31.7693                 1.9918                 4.1094

                     25                     26                     27
                      A                      A                      A
 Frequencies --    942.6926               959.7122               965.0035
 Red. masses --      1.2877                 1.3486                 1.8342
 Frc consts  --      0.6742                 0.7318                 1.0064
 IR Inten    --      0.7326                 0.3545                 4.8720

                     28                     29                     30
                      A                      A                      A
 Frequencies --    998.7910              1017.3766              1105.0506
 Red. masses --      1.5319                 1.4728                 2.1559
 Frc consts  --      0.9004                 0.8982                 1.5511
 IR Inten    --      1.5149                 5.8213                23.6114

                     31                     32                     33
                      A                      A                      A
 Frequencies --   1110.7488              1132.2543              1149.1484
 Red. masses --      2.5288                 2.7997                 1.7612
 Frc consts  --      1.8382                 2.1147                 1.3703
 IR Inten    --     11.8098                22.7436                 6.8436

                     34                     35                     36
                      A                      A                      A
 Frequencies --   1154.1926              1159.7472              1199.9282
 Red. masses --      1.9354                 2.1435                 2.0959
 Frc consts  --      1.5190                 1.6986                 1.7780
 IR Inten    --      6.7380                 6.0659                10.2388

                     37                     38                     39
                      A                      A                      A
 Frequencies --   1231.6472              1267.3219              1282.8968
 Red. masses --      2.0885                 2.1638                 3.1023
 Frc consts  --      1.8666                 2.0476                 3.0083
 IR Inten    --      2.1198                32.9158               116.6824

                     40                     41                     42
                      A                      A                      A
 Frequencies --   1360.0254              1378.1727              1389.9102
 Red. masses --      1.4271                 1.4596                 1.3578
 Frc consts  --      1.5553                 1.6334                 1.5454
 IR Inten    --     47.6371                68.3161                20.8067

                     43                     44                     45
                      A                      A                      A
 Frequencies --   1401.8900              1422.3897              1428.7860
 Red. masses --      1.3073                 1.4003                 1.2925
 Frc consts  --      1.5137                 1.6691                 1.5546
 IR Inten    --     22.5732                 3.9040                 9.0831

                     46                     47                     48
                      A                      A                      A
 Frequencies --   1436.9381              1439.9093              1445.0729
 Red. masses --      1.3390                 1.4324                 1.7032
 Frc consts  --      1.6289                 1.7498                 2.0956
 IR Inten    --     13.6421                22.1005                69.4331

                     49                     50                     51
                      A                      A                      A
 Frequencies --   1445.7388              1455.1679              1515.8628
 Red. masses --      1.2569                 1.6885                 1.0445
 Frc consts  --      1.5479                 2.1066                 1.4141
 IR Inten    --      1.1776               124.5574                 0.3002

                     52                     53                     54
                      A                      A                      A
 Frequencies --   1518.3535              1520.8628              1521.9474
 Red. masses --      1.0576                 1.0474                 1.0664
 Frc consts  --      1.4365                 1.4275                 1.4554
 IR Inten    --      2.2642                 2.1355                 1.9061

                     55                     56                     57
                      A                      A                      A
 Frequencies --   1528.5196              1531.7486              1538.2862
 Red. masses --      1.0508                 1.0552                 1.0480
 Frc consts  --      1.4465                 1.4587                 1.4612
 IR Inten    --      4.8790                 1.1183                15.0332

                     58                     59                     60
                      A                      A                      A
 Frequencies --   1541.3999              1829.4530              2971.0834
 Red. masses --      1.0554                10.3533                 1.0812
 Frc consts  --      1.4774                20.4161                 5.6234
 IR Inten    --      1.4709               448.7736                22.8348

                     61                     62                     63
                      A                      A                      A
 Frequencies --   2985.8934              3050.1394              3052.6594
 Red. masses --      1.0843                 1.0358                 1.0356
 Frc consts  --      5.6959                 5.6778                 5.6860
 IR Inten    --     63.8680                19.9345                17.8694

                     64                     65                     66
                      A                      A                      A
 Frequencies --   3056.0535              3059.0869              3090.4480
 Red. masses --      1.0361                 1.0372                 1.0866
 Frc consts  --      5.7010                 5.7185                 6.1148
 IR Inten    --     14.2612                27.6331                 4.0887

                     67                     68                     69
                      A                      A                      A
 Frequencies --   3115.8119              3117.2828              3122.6151
 Red. masses --      1.1011                 1.1018                 1.1006
 Frc consts  --      6.2985                 6.3080                 6.3229
 IR Inten    --      4.0384                27.3405                56.4635

                     70                     71                     72
                      A                      A                      A
 Frequencies --   3126.4461              3128.0997              3133.1163
 Red. masses --      1.1016                 1.1008                 1.1033
 Frc consts  --      6.3439                 6.3465                 6.3809
 IR Inten    --     25.7304                40.5927                23.3657

                     73                     74                     75
                      A                      A                      A
 Frequencies --   3137.0950              3143.1672              3612.5519
 Red. masses --      1.1029                 1.1018                 1.0771
 Frc consts  --      6.3951                 6.4136                 8.2818
 IR Inten    --      6.5097                36.5141                20.2738

 - Thermochemistry -
 -------------------
 Temperature   298.150 Kelvin.  Pressure   1.00000 Atm.
 Atom     1 has atomic number  6 and mass  12.00000

 Molecular mass:   156.12626 amu.
 Principal axes and moments of inertia in atomic units:
                           1         2         3
     Eigenvalues --  1200.978871959.174852622.94461
           X            1.00000   0.00193   0.00063
           Y           -0.00193   0.99996   0.00824
           Z           -0.00062  -0.00824   0.99997
 This molecule is an asymmetric top.
 Rotational symmetry number  1.
 Warning -- assumption of classical behavior for rotation
           may cause significant error
 Rotational temperatures (Kelvin)      0.07212     0.04421     0.03302
 Rotational constants (GHZ):           1.50273     0.92117     0.68806
 Zero-point vibrational energy     635414.2 (Joules/Mol)
                                  151.86763 (Kcal/Mol)
 Warning -- explicit consideration of  18 degrees of freedom as
           vibrations may cause significant error
 Vibrational temperatures:     86.25   100.58   205.58   227.54   275.97
          (Kelvin)            329.27   337.74   371.50   391.36   398.53
                              412.97   494.80   542.43   629.39   657.20
                              737.09   788.87   821.76   896.56  1007.92
                             1066.68  1100.15  1218.12  1295.93  1356.32
                             1380.81  1388.42  1437.04  1463.78  1589.92
                             1598.12  1629.06  1653.37  1660.63  1668.62
                             1726.43  1772.07  1823.39  1845.80  1956.77
                             1982.88  1999.77  2017.01  2046.50  2055.70
                             2067.43  2071.71  2079.14  2080.10  2093.66
                             2180.99  2184.57  2188.18  2189.74  2199.20
                             2203.84  2213.25  2217.73  2632.17  4274.73
                             4296.03  4388.47  4392.10  4396.98  4401.34
                             4446.47  4482.96  4485.07  4492.75  4498.26
                             4500.64  4507.86  4513.58  4522.32  5197.66

 Zero-point correction=                           0.242016 (Hartree/Particle)
 Thermal correction to Energy=                    0.254043
 Thermal correction to Enthalpy=                  0.254987
 Thermal correction to Gibbs Free Energy=         0.204741
 Sum of electronic and zero-point Energies=           -499.055168
 Sum of electronic and thermal Energies=              -499.043142
 Sum of electronic and thermal Enthalpies=            -499.042198
 Sum of electronic and thermal Free Energies=         -499.092444

                     E (Thermal)             CV                S
                      KCal/Mol        Cal/Mol-Kelvin    Cal/Mol-Kelvin
 Total                  159.414             45.593            105.753
 Electronic               0.000              0.000              0.000
 Translational            0.889              2.981             41.046
 Rotational               0.889              2.981             30.202
 Vibrational            157.637             39.632             34.505
 Vibration     1          0.597              1.973              4.459
 Vibration     2          0.598              1.968              4.156
 Vibration     3          0.616              1.910              2.765
 Vibration     4          0.621              1.893              2.572
 Vibration     5          0.634              1.851              2.210
 Vibration     6          0.652              1.797              1.888
 Vibration     7          0.655              1.788              1.842
 Vibration     8          0.667              1.749              1.674
 Vibration     9          0.675              1.725              1.583
 Vibration    10          0.678              1.716              1.552
 Vibration    11          0.684              1.698              1.491
 Vibration    12          0.723              1.588              1.194
 Vibration    13          0.748              1.519              1.051
 Vibration    14          0.798              1.389              0.835
 Vibration    15          0.815              1.346              0.776
 Vibration    16          0.867              1.223              0.628
 Vibration    17          0.904              1.143              0.548
 Vibration    18          0.927              1.094              0.502

 Optimization completed.
    -- Stationary point found.
 Normal termination of Gaussian 16 at Tue Dec  8 19:21:53 2020.

 ----------------------------------------------------------------------
 # B3LYP/6-311++G(d,p) empiricaldispersion=gd3bj scf=xqc pop=npa geom=c
 heck
 ----------------------------------------------------------------------

 --------------------------------------
 CID_58909725_JID_1111_Energie_neutraal
 --------------------------------------
 Structure from the checkpoint file:  "JID_1111.chk"
 Charge =  0 Multiplicity = 1

 SCF Done:  E(RB3LYP) =  -499.443328453     A.U. after   13 cycles
 Normal termination of Gaussian 16 at Tue Dec  8 19:24:33 2020.

 ----------------------------------------------------------------------
 # B3LYP/6-311++G(d,p) empiricaldispersion=gd3bj scf=xqc pop=npa geom=c
 heck
 ----------------------------------------------------------------------

 ------------------------------------
 CID_58909725_JID_1111_Energie_kation
 ------------------------------------
 Structure from the checkpoint file:  "JID_1111.chk"
 Charge =  1 Multiplicity = 2

 SCF Done:  E(UB3LYP) =  -499.132120433     A.U. after   23 cycles
 Normal termination of Gaussian 16 at Tue Dec  8 19:31:09 2020.
 Gaussian 16:  ES64L-G16RevA.03 25-Dec-2016

 ----------------------------------------------------------------------
 # B3LYP/6-311++G(d,p) empiricaldispersion=gd3bj scf=xqc pop=npa geom=c
 heck
 ----------------------------------------------------------------------

 -----------------------------------
 CID_58909725_JID_1111_Energie_anion
 -----------------------------------
 Structure from the checkpoint file:  "JID_1111.chk"
 Charge = -1 Multiplicity = 2

                         Standard orientation:
 ---------------------------------------------------------------------
 Center     Atomic      Atomic             Coordinates (Angstroms)
 Number     Number       Type             X           Y           Z
 ---------------------------------------------------------------------
      1          6           0        3.087541   -0.661496    0.493763
      2          6           0        1.877481   -0.165337   -0.286155
      3          6           0        0.544127   -0.835513    0.124562
      4          7           0       -0.421208    0.231208   -0.148303
      5          6           0        0.207405    1.469013   -0.143070
      6          8           0       -0.334617    2.561493   -0.206094
      7          7           0        1.575531    1.239199   -0.035645
      8          6           0       -1.852219    0.164672    0.162484
      9          6           0       -2.654622   -0.503353   -0.960186
     10          6           0       -2.117506   -0.477298    1.529104
     11          6           0        0.285452   -2.137747   -0.625228
     12          1           0        3.238286   -1.735322    0.334819
     13          1           0        2.951613   -0.477949    1.564278
     14          1           0        3.999600   -0.147226    0.171149
     15          1           0        2.035556   -0.345560   -1.363312
     16          1           0        0.579853   -1.044598    1.206614
     17          1           0        2.171280    1.962226   -0.417479
     18          1           0       -2.154281    1.215196    0.208926
     19          1           0       -2.436137   -1.572789   -1.043243
     20          1           0       -3.728527   -0.396726   -0.768580
     21          1           0       -2.427138   -0.030661   -1.920304
     22          1           0       -1.558982    0.036779    2.318508
     23          1           0       -3.183788   -0.414341    1.770528
     24          1           0       -1.839242   -1.537633    1.544640
     25          1           0        1.133626   -2.819028   -0.491160
     26          1           0       -0.607684   -2.648675   -0.255433
     27          1           0        0.156686   -1.946130   -1.695213
 ---------------------------------------------------------------------

 SCF Done:  E(UB3LYP) =  -499.429481848     A.U. after   29 cycles

 The electronic state is 2-A.
 Alpha  occ. eigenvalues --  -18.98030 -14.22748 -14.22318 -10.18400 -10.11354
 Alpha  occ. eigenvalues --  -10.11278 -10.10906 -10.06440 -10.06284 -10.06180
 Alpha  occ. eigenvalues --  -10.06087  -0.94697  -0.86302  -0.79838  -0.69284
 Alpha  occ. eigenvalues --   -0.67417  -0.62671  -0.59389  -0.55095  -0.52304
 Alpha  occ. eigenvalues --   -0.49996  -0.45261  -0.41191  -0.40196  -0.37965
 Alpha  occ. eigenvalues --   -0.34714  -0.34431  -0.33169  -0.32715  -0.30945
 Alpha  occ. eigenvalues --   -0.29980  -0.29718  -0.29059  -0.28609  -0.28247
 Alpha  occ. eigenvalues --   -0.26909  -0.26443  -0.25401  -0.24457  -0.22678
 Alpha  occ. eigenvalues --   -0.16919  -0.15614  -0.13794   0.04505
 Alpha virt. eigenvalues --    0.06476   0.07749   0.07825   0.09227   0.09643
 Alpha virt. eigenvalues --    0.10034   0.10714   0.11345   0.12066   0.12391
 Alpha virt. eigenvalues --    0.12743   0.13373   0.13934   0.14558   0.15333

  Beta  occ. eigenvalues --  -18.98028 -14.22743 -14.22297 -10.18398 -10.11343
  Beta  occ. eigenvalues --  -10.11261 -10.10902 -10.06408 -10.06241 -10.06158
  Beta  occ. eigenvalues --  -10.06037  -0.94690  -0.86289  -0.79813  -0.69251
  Beta  occ. eigenvalues --   -0.67385  -0.62606  -0.59338  -0.55016  -0.52250
  Beta  occ. eigenvalues --   -0.49927  -0.45227  -0.41145  -0.40154  -0.37937
  Beta  occ. eigenvalues --   -0.34688  -0.34392  -0.33123  -0.32687  -0.30900
  Beta  occ. eigenvalues --   -0.29939  -0.29673  -0.29023  -0.28562  -0.28199
  Beta  occ. eigenvalues --   -0.26859  -0.26392  -0.25368  -0.24419  -0.22646
  Beta  occ. eigenvalues --   -0.16900  -0.15590  -0.13760
  Beta virt. eigenvalues --    0.06844   0.07656   0.08391   0.08685   0.09767
  Beta virt. eigenvalues --    0.10279   0.10587   0.11264   0.11792   0.12475
  Beta virt. eigenvalues --    0.12838   0.13137   0.13831   0.14147   0.14923

 Mulliken charges and spin densities:
               1          2
     1  C    2.236601  -2.850219
     2  C   -1.003691   0.886218
     3  C   -1.522593   1.332298
     4  N    0.280812  -0.077382
     5  C    0.260755   0.098512
     6  O   -0.418906  -0.000925
     7  N   -0.189142   0.057604
     8  C   -1.550082   1.274286
     9  C    0.447905  -0.910360
    10  C    0.979627  -1.429890
    11  C    1.955128  -2.549978
    12  H   -0.322524   0.463967
    13  H   -0.200743   0.356311
    14  H   -0.536976   0.685536
    15  H   -0.427356   0.633503
    16  H   -0.025970   0.215978
    17  H    0.121322   0.176353
    18  H    0.140369   0.059253
    19  H   -0.084060   0.220121
    20  H   -0.072730   0.205330
    21  H    0.042410   0.113778
    22  H   -0.079625   0.234607
    23  H   -0.250209   0.397806
    24  H   -0.215501   0.373446
    25  H   -0.331190   0.482586
    26  H   -0.061600   0.215733
    27  H   -0.172030   0.335526
 Sum of Mulliken charges =  -1.00000   1.00000

 Dipole moment (field-independent basis, Debye):
    X=             -2.9595    Y=              2.1567    Z=             -0.2634  Tot=              3.6714
 Quadrupole moment (field-independent basis, Debye-Ang):
   XX=           -132.0993   YY=           -120.3462   ZZ=           -101.8405
   XY=              4.4805   XZ=              3.6523   YZ=              0.3374

 Summary of Natural Population Analysis:

                                       Natural Population
                Natural  -----------------------------------------------
    Atom  No    Charge         Core      Valence    Rydberg      Total
 -----------------------------------------------------------------------
      C    1   -0.28694      0.99964     2.28106    0.00624     3.28694
      C    2   -0.00693      0.99958     1.99516    0.01219     3.00693
      C    3   -0.00124      0.99958     1.98892    0.01274     3.00124
      N    4   -0.27041      0.99961     2.76024    0.01056     3.77041
      C    5    0.41450      0.99967     1.56252    0.02331     2.58550
      O    6   -0.33894      0.99987     3.33422    0.00485     4.33894
      N    7   -0.33198      0.99967     2.82267    0.00964     3.83198
      C    8   -0.01241      0.99960     2.00108    0.01172     3.01241
      C    9   -0.28611      0.99964     2.28118    0.00529     3.28611
      C   10   -0.29222      0.99965     2.28744    0.00514     3.29222
      C   11   -0.29017      0.99964     2.28423    0.00630     3.29017
      H   12    0.10518      0.00000     0.39279    0.00203     0.39482
      H   13    0.10058      0.00000     0.39787    0.00155     0.39942
      H   14    0.10356      0.00000     0.39426    0.00218     0.39644
      H   15    0.08655      0.00000     0.41094    0.00251     0.41345
      H   16    0.08916      0.00000     0.40857    0.00227     0.41084
      H   17    0.19458      0.00000     0.30324    0.00218     0.30542
      H   18    0.11008      0.00000     0.38788    0.00204     0.38992
      H   19    0.09841      0.00000     0.40046    0.00113     0.40159
      H   20    0.09755      0.00000     0.40164    0.00081     0.40245
      H   21    0.10265      0.00000     0.39635    0.00100     0.39735
      H   22    0.10236      0.00000     0.39665    0.00099     0.39764
      H   23    0.10235      0.00000     0.39676    0.00090     0.39765
      H   24    0.09953      0.00000     0.39931    0.00116     0.40047
      H   25    0.10664      0.00000     0.39173    0.00162     0.39336
      H   26    0.10197      0.00000     0.39662    0.00140     0.39803
      H   27    0.10169      0.00000     0.39677    0.00155     0.39831
 =======================================================================
   * Total *   -0.00000     10.99615    31.87055    0.13330    43.00000

 Normal termination of Gaussian 16 at Tue Dec  8 19:39:33 2020.
