 Gaussian 16, Revision A.03,

 -----------------------------------------------------------
 # opt freq B3LYP/6-31G(d) empiricaldispersion=gd3bj scf=xqc
 -----------------------------------------------------------

 -------------------------------
 CID_138754737_JID_8464_neutraal
 -------------------------------
 Symbolic Z-matrix:
 Charge =  0 Multiplicity = 1

 SCF Done:  E(RB3LYP) =  -802.926006835     A.U. after   15 cycles
 SCF Done:  E(RB3LYP) =  -802.928698424     A.U. after   13 cycles
 SCF Done:  E(RB3LYP) =  -802.927018512     A.U. after   14 cycles
 SCF Done:  E(RB3LYP) =  -802.932253588     A.U. after   12 cycles
 SCF Done:  E(RB3LYP) =  -802.932954923     A.U. after   13 cycles
 SCF Done:  E(RB3LYP) =  -802.934468244     A.U. after   12 cycles
 SCF Done:  E(RB3LYP) =  -802.935260469     A.U. after   12 cycles
 SCF Done:  E(RB3LYP) =  -802.935628972     A.U. after   12 cycles
 SCF Done:  E(RB3LYP) =  -802.936025149     A.U. after   11 cycles
 SCF Done:  E(RB3LYP) =  -802.936253746     A.U. after   12 cycles
 SCF Done:  E(RB3LYP) =  -802.936942227     A.U. after    9 cycles
 SCF Done:  E(RB3LYP) =  -802.936942647     A.U. after    9 cycles
 SCF Done:  E(RB3LYP) =  -802.936942915     A.U. after    7 cycles
 SCF Done:  E(RB3LYP) =  -802.936942960     A.U. after    7 cycles
 SCF Done:  E(RB3LYP) =  -802.936943005     A.U. after    6 cycles
 Optimization completed.
    -- Stationary point found.
 Normal termination of Gaussian 16 at Fri Dec 11 21:32:48 2020.

 --------------------------------------------------------------------
 #N Geom=AllCheck Guess=TCheck SCRF=Check GenChk RB3LYP/6-31G(d) Freq
 --------------------------------------------------------------------

 Structure from the checkpoint file:  "JID_8464.chk"
 -------------------------------
 CID_138754737_JID_8464_neutraal
 -------------------------------
 Charge =  0 Multiplicity = 1

 SCF Done:  E(RB3LYP) =  -802.936943005     A.U. after    1 cycles

  Exact polarizability: 187.268 -21.144 146.812  13.700  15.325 153.955
 Approx polarizability: 255.118 -39.600 226.311  37.224  29.009 266.219

                      1                      2                      3
                      A                      A                      A
 Frequencies --     19.1598                34.3902                43.8210
 Red. masses --      4.3492                 2.6297                 4.1479
 Frc consts  --      0.0009                 0.0018                 0.0047
 IR Inten    --      0.0655                 0.2269                 1.1562

                      4                      5                      6
                      A                      A                      A
 Frequencies --     82.1204                89.0880                98.1497
 Red. masses --      2.1691                 3.9080                 1.9539
 Frc consts  --      0.0086                 0.0183                 0.0111
 IR Inten    --      0.7900                 3.0593                 0.9485

                      7                      8                      9
                      A                      A                      A
 Frequencies --    124.4775               135.4245               171.0569
 Red. masses --      3.6451                 2.6960                 4.6617
 Frc consts  --      0.0333                 0.0291                 0.0804
 IR Inten    --      2.7743                 0.7968                 1.7302

                     10                     11                     12
                      A                      A                      A
 Frequencies --    193.1171               208.0139               222.1078
 Red. masses --      3.0832                 1.0826                 2.1282
 Frc consts  --      0.0677                 0.0276                 0.0619
 IR Inten    --      0.3979                28.9592                 4.0588

                     13                     14                     15
                      A                      A                      A
 Frequencies --    231.0216               243.4512               248.3397
 Red. masses --      2.9625                 1.3956                 3.1350
 Frc consts  --      0.0932                 0.0487                 0.1139
 IR Inten    --      4.8135                 4.4597                 2.2785

                     16                     17                     18
                      A                      A                      A
 Frequencies --    265.3681               310.6758               315.2117
 Red. masses --      1.1386                 3.8571                 3.5241
 Frc consts  --      0.0472                 0.2193                 0.2063
 IR Inten    --      0.2672                 2.4838                 0.5793

                     19                     20                     21
                      A                      A                      A
 Frequencies --    341.3025               358.8977               402.6059
 Red. masses --      3.4945                 3.1490                 2.1311
 Frc consts  --      0.2398                 0.2390                 0.2035
 IR Inten    --      6.4902                 6.4385                 2.4309

                     22                     23                     24
                      A                      A                      A
 Frequencies --    422.2135               437.9739               445.5851
 Red. masses --      2.3387                 1.9724                 3.7786
 Frc consts  --      0.2456                 0.2229                 0.4420
 IR Inten    --      1.4523                 0.4284                 1.4372

                     25                     26                     27
                      A                      A                      A
 Frequencies --    455.3100               466.5579               468.4811
 Red. masses --      3.1029                 2.4396                 1.0846
 Frc consts  --      0.3790                 0.3129                 0.1403
 IR Inten    --     10.1248                10.2249                 5.7859

                     28                     29                     30
                      A                      A                      A
 Frequencies --    505.1228               565.3744               570.5103
 Red. masses --      3.8829                 2.5080                 5.1820
 Frc consts  --      0.5837                 0.4723                 0.9937
 IR Inten    --      2.2390                 9.0160                 4.8531

                     31                     32                     33
                      A                      A                      A
 Frequencies --    596.6355               621.6860               700.8089
 Red. masses --      4.3520                 4.2442                 5.1007
 Frc consts  --      0.9128                 0.9665                 1.4760
 IR Inten    --     22.7758                14.9110                 9.6528

                     34                     35                     36
                      A                      A                      A
 Frequencies --    719.0627               737.5550               761.5470
 Red. masses --      3.4720                 3.0846                 1.7529
 Frc consts  --      1.0577                 0.9887                 0.5990
 IR Inten    --     40.8424                56.2218                80.1307

                     37                     38                     39
                      A                      A                      A
 Frequencies --    784.5068               795.1955               814.0979
 Red. masses --      2.9834                 4.0444                 1.4123
 Frc consts  --      1.0818                 1.5068                 0.5515
 IR Inten    --     14.7832                13.9752               265.7212

                     40                     41                     42
                      A                      A                      A
 Frequencies --    833.0897               850.6855               868.1500
 Red. masses --      2.2604                 1.6657                 1.5498
 Frc consts  --      0.9243                 0.7102                 0.6882
 IR Inten    --     40.9656               178.4777                55.8849

                     43                     44                     45
                      A                      A                      A
 Frequencies --    903.5611               926.4830               937.4825
 Red. masses --      2.7152                 2.3334                 1.3423
 Frc consts  --      1.3061                 1.1801                 0.6951
 IR Inten    --      0.9494                 3.2452                 2.6933

                     46                     47                     48
                      A                      A                      A
 Frequencies --    956.7276               990.2149              1023.3596
 Red. masses --      2.2390                 2.5901                 2.3300
 Frc consts  --      1.2075                 1.4963                 1.4377
 IR Inten    --      9.7408                 5.0623                10.2483

                     49                     50                     51
                      A                      A                      A
 Frequencies --   1076.9315              1086.6026              1098.6150
 Red. masses --      2.1485                 1.4963                 2.0955
 Frc consts  --      1.4681                 1.0409                 1.4902
 IR Inten    --      2.2142                10.8212                24.2827

                     52                     53                     54
                      A                      A                      A
 Frequencies --   1104.5905              1133.9440              1137.1866
 Red. masses --      1.7375                 1.5420                 1.2606
 Frc consts  --      1.2491                 1.1682                 0.9605
 IR Inten    --      1.9820                64.4851                 9.4851

                     55                     56                     57
                      A                      A                      A
 Frequencies --   1147.7783              1154.3514              1173.3309
 Red. masses --      1.3906                 1.2881                 1.4653
 Frc consts  --      1.0794                 1.0113                 1.1886
 IR Inten    --      3.6416                 1.2592                28.2430

                     58                     59                     60
                      A                      A                      A
 Frequencies --   1193.1696              1197.2126              1197.9671
 Red. masses --      1.6085                 1.3942                 1.3029
 Frc consts  --      1.3492                 1.1774                 1.1017
 IR Inten    --      3.2372                 7.5937                 9.8268

                     61                     62                     63
                      A                      A                      A
 Frequencies --   1235.1621              1280.6143              1288.9391
 Red. masses --      1.6463                 1.8910                 2.9947
 Frc consts  --      1.4798                 1.8271                 2.9314
 IR Inten    --     11.8336                 8.9502                15.5082

                     64                     65                     66
                      A                      A                      A
 Frequencies --   1309.4284              1323.2705              1337.4623
 Red. masses --      1.8868                 1.7324                 3.2151
 Frc consts  --      1.9061                 1.7873                 3.3885
 IR Inten    --     26.0137                57.5772                67.2797

                     67                     68                     69
                      A                      A                      A
 Frequencies --   1342.2948              1357.2284              1376.6718
 Red. masses --      2.4611                 1.4496                 1.6192
 Frc consts  --      2.6126                 1.5733                 1.8080
 IR Inten    --      8.8027                 5.4920                27.0784

                     70                     71                     72
                      A                      A                      A
 Frequencies --   1399.1506              1412.8188              1416.3361
 Red. masses --      3.6750                 1.2957                 1.3840
 Frc consts  --      4.2387                 1.5238                 1.6358
 IR Inten    --      1.9813                14.9242                 6.4049

                     73                     74                     75
                      A                      A                      A
 Frequencies --   1443.3811              1470.2252              1489.2225
 Red. masses --      2.0772                 1.1436                 1.1360
 Frc consts  --      2.5497                 1.4565                 1.4844
 IR Inten    --     82.9738                 0.3227                 4.8690

                     76                     77                     78
                      A                      A                      A
 Frequencies --   1497.0422              1500.4525              1505.7839
 Red. masses --      2.2093                 1.4282                 1.1226
 Frc consts  --      2.9172                 1.8944                 1.4997
 IR Inten    --     11.7617                23.1419                17.1103

                     79                     80                     81
                      A                      A                      A
 Frequencies --   1511.0113              1511.9376              1514.8885
 Red. masses --      1.0662                 1.1144                 1.1346
 Frc consts  --      1.4342                 1.5010                 1.5341
 IR Inten    --     11.3602                10.7801                17.6014

                     82                     83                     84
                      A                      A                      A
 Frequencies --   1529.0335              1531.3693              1543.1734
 Red. masses --      1.0679                 1.0941                 1.0629
 Frc consts  --      1.4710                 1.5117                 1.4913
 IR Inten    --      5.6896                 5.0412                11.0689

                     85                     86                     87
                      A                      A                      A
 Frequencies --   1553.6040              1560.3640              1569.1561
 Red. masses --      1.1032                 1.0588                 2.8661
 Frc consts  --      1.5688                 1.5188                 4.1580
 IR Inten    --     42.8641                16.0693                95.6814

                     88                     89                     90
                      A                      A                      A
 Frequencies --   1645.5011              1657.1791              1692.5212
 Red. masses --      2.8472                 2.6498                 1.1142
 Frc consts  --      4.5422                 4.2874                 1.8805
 IR Inten    --     25.7215                18.8278                32.0037

                     91                     92                     93
                      A                      A                      A
 Frequencies --   1695.5338              1741.2106              2999.2175
 Red. masses --      2.1357                 9.2489                 1.0454
 Frc consts  --      3.6175                16.5213                 5.5405
 IR Inten    --     80.9258               223.4689                45.7951

                     94                     95                     96
                      A                      A                      A
 Frequencies --   3008.5806              3023.9546              3029.3906
 Red. masses --      1.0640                 1.0662                 1.0402
 Frc consts  --      5.6743                 5.7442                 5.6243
 IR Inten    --     19.0720               136.4196                 6.2144

                     97                     98                     99
                      A                      A                      A
 Frequencies --   3050.3248              3063.3244              3068.2289
 Red. masses --      1.0383                 1.0969                 1.0894
 Frc consts  --      5.6922                 6.0645                 6.0423
 IR Inten    --     27.8431                40.4033                47.1349

                    100                    101                    102
                      A                      A                      A
 Frequencies --   3081.0198              3083.1970              3100.3568
 Red. masses --      1.1017                 1.0587                 1.1033
 Frc consts  --      6.1618                 5.9294                 6.2483
 IR Inten    --     33.7301                19.4870                16.8043

                    103                    104                    105
                      A                      A                      A
 Frequencies --   3103.4678              3108.6096              3128.1761
 Red. masses --      1.1027                 1.1039                 1.1054
 Frc consts  --      6.2574                 6.2851                 6.3733
 IR Inten    --     53.4324                20.5437                12.8345

                    106                    107                    108
                      A                      A                      A
 Frequencies --   3150.8248              3160.6972              3167.1667
 Red. masses --      1.0997                 1.0895                 1.0899
 Frc consts  --      6.4324                 6.4128                 6.4416
 IR Inten    --     18.1921                23.3330                 5.0149

                    109                    110                    111
                      A                      A                      A
 Frequencies --   3173.2947              3216.5879              3491.0220
 Red. masses --      1.0891                 1.0925                 1.0514
 Frc consts  --      6.4617                 6.6595                 7.5494
 IR Inten    --     17.6563                 1.6293                 6.1886

                    112                    113                    114
                      A                      A                      A
 Frequencies --   3496.3144              3602.3124              3606.7352
 Red. masses --      1.0504                 1.0929                 1.0939
 Frc consts  --      7.5656                 8.3556                 8.3840
 IR Inten    --      5.4904                11.8809                 3.4224

 - Thermochemistry -
 -------------------
 Temperature   298.150 Kelvin.  Pressure   1.00000 Atm.
 Atom     1 has atomic number  6 and mass  12.00000

 Molecular mass:   250.17936 amu.
 Principal axes and moments of inertia in atomic units:
                           1         2         3
     Eigenvalues --  2843.031026376.114196987.76515
           X            0.99999   0.00334  -0.00400
           Y           -0.00301   0.99683   0.07948
           Z            0.00425  -0.07947   0.99683
 This molecule is an asymmetric top.
 Rotational symmetry number  1.
 Warning -- assumption of classical behavior for rotation
           may cause significant error
 Rotational temperatures (Kelvin)      0.03047     0.01358     0.01240
 Rotational constants (GHZ):           0.63479     0.28305     0.25827
 Zero-point vibrational energy     922035.1 (Joules/Mol)
                                  220.37168 (Kcal/Mol)
 Warning -- explicit consideration of  31 degrees of freedom as
           vibrations may cause significant error
 Vibrational temperatures:     27.57    49.48    63.05   118.15   128.18
          (Kelvin)            141.22   179.10   194.85   246.11   277.85
                              299.29   319.56   332.39   350.27   357.31
                              381.81   446.99   453.52   491.06   516.37
                              579.26   607.47   630.15   641.10   655.09
                              671.27   674.04   726.76   813.45   820.84
                              858.43   894.47  1008.31  1034.57  1061.18
                             1095.70  1128.73  1144.11  1171.31  1198.63
                             1223.95  1249.07  1300.02  1333.00  1348.83
                             1376.52  1424.70  1472.39  1549.46  1563.38
                             1580.66  1589.26  1631.49  1636.16  1651.40
                             1660.85  1688.16  1716.70  1722.52  1723.61
                             1777.12  1842.52  1854.50  1883.98  1903.89
                             1924.31  1931.26  1952.75  1980.72  2013.07
                             2032.73  2037.79  2076.70  2115.33  2142.66
                             2153.91  2158.82  2166.49  2174.01  2175.34
                             2179.59  2199.94  2203.30  2220.28  2235.29
                             2245.02  2257.67  2367.51  2384.31  2435.16
                             2439.49  2505.21  4315.21  4328.68  4350.80
                             4358.62  4388.74  4407.44  4414.50  4432.90
                             4436.03  4460.72  4465.20  4472.60  4500.75
                             4533.33  4547.54  4556.85  4565.66  4627.95
                             5022.80  5030.42  5182.92  5189.29

 Zero-point correction=                           0.351185 (Hartree/Particle)
 Thermal correction to Energy=                    0.370345
 Thermal correction to Enthalpy=                  0.371289
 Thermal correction to Gibbs Free Energy=         0.303395
 Sum of electronic and zero-point Energies=           -802.585758
 Sum of electronic and thermal Energies=              -802.566598
 Sum of electronic and thermal Enthalpies=            -802.565654
 Sum of electronic and thermal Free Energies=         -802.633548

                     E (Thermal)             CV                S
                      KCal/Mol        Cal/Mol-Kelvin    Cal/Mol-Kelvin
 Total                  232.395             72.780            142.895
 Electronic               0.000              0.000              0.000
 Translational            0.889              2.981             42.451
 Rotational               0.889              2.981             33.204
 Vibrational            230.617             66.819             67.240
 Vibration     1          0.593              1.986              6.719
 Vibration     2          0.594              1.983              5.559
 Vibration     3          0.595              1.980              5.078
 Vibration     4          0.600              1.961              3.840
 Vibration     5          0.602              1.957              3.680
 Vibration     6          0.604              1.950              3.491
 Vibration     7          0.610              1.929              3.030
 Vibration     8          0.613              1.918              2.868
 Vibration     9          0.626              1.878              2.424
 Vibration    10          0.635              1.849              2.198
 Vibration    11          0.641              1.828              2.061
 Vibration    12          0.648              1.807              1.942
 Vibration    13          0.653              1.794              1.871
 Vibration    14          0.659              1.774              1.778
 Vibration    15          0.662              1.766              1.742
 Vibration    16          0.671              1.737              1.626
 Vibration    17          0.700              1.653              1.359
 Vibration    18          0.703              1.645              1.335
 Vibration    19          0.721              1.593              1.206
 Vibration    20          0.734              1.557              1.127
 Vibration    21          0.768              1.465              0.953
 Vibration    22          0.785              1.422              0.884
 Vibration    23          0.798              1.387              0.833
 Vibration    24          0.805              1.371              0.809
 Vibration    25          0.814              1.349              0.780
 Vibration    26          0.824              1.324              0.747
 Vibration    27          0.826              1.320              0.742
 Vibration    28          0.860              1.239              0.645
 Vibration    29          0.921              1.106              0.513
 Vibration    30          0.927              1.095              0.503
 Vibration    31          0.954              1.039              0.455

 Optimization completed.
    -- Stationary point found.
 Normal termination of Gaussian 16 at Fri Dec 11 21:54:01 2020.

 ----------------------------------------------------------------------
 # B3LYP/6-311++G(d,p) empiricaldispersion=gd3bj scf=xqc pop=npa geom=c
 heck
 ----------------------------------------------------------------------

 ---------------------------------------
 CID_138754737_JID_8464_Energie_neutraal
 ---------------------------------------
 Structure from the checkpoint file:  "JID_8464.chk"
 Charge =  0 Multiplicity = 1

 SCF Done:  E(RB3LYP) =  -803.171620597     A.U. after   15 cycles
 Normal termination of Gaussian 16 at Fri Dec 11 22:03:49 2020.

 ----------------------------------------------------------------------
 # B3LYP/6-311++G(d,p) empiricaldispersion=gd3bj scf=xqc pop=npa geom=c
 heck
 ----------------------------------------------------------------------

 -------------------------------------
 CID_138754737_JID_8464_Energie_kation
 -------------------------------------
 Structure from the checkpoint file:  "JID_8464.chk"
 Charge =  1 Multiplicity = 2

 SCF Done:  E(UB3LYP) =  -802.916284346     A.U. after   27 cycles
 Normal termination of Gaussian 16 at Fri Dec 11 22:29:08 2020.
 Gaussian 16:  ES64L-G16RevA.03 25-Dec-2016

 ----------------------------------------------------------------------
 # B3LYP/6-311++G(d,p) empiricaldispersion=gd3bj scf=xqc pop=npa geom=c
 heck
 ----------------------------------------------------------------------

 ------------------------------------
 CID_138754737_JID_8464_Energie_anion
 ------------------------------------
 Structure from the checkpoint file:  "JID_8464.chk"
 Charge = -1 Multiplicity = 2

                         Standard orientation:
 ---------------------------------------------------------------------
 Center     Atomic      Atomic             Coordinates (Angstroms)
 Number     Number       Type             X           Y           Z
 ---------------------------------------------------------------------
      1          6           0        0.712753    1.795381   -0.908268
      2          7           0        2.086047    2.053245   -0.499544
      3          6           0        2.219261    2.291502    0.929927
      4          6           0        3.084666    1.157089   -1.051755
      5          6           0        3.279345   -0.233680   -0.403588
      6          7           0        2.094363   -1.088362   -0.396464
      7          6           0        1.557492   -1.522122   -1.679391
      8          6           0        1.524451   -1.421997    0.804447
      9          8           0        1.989584   -1.055092    1.883791
     10          6           0        0.212756   -2.208702    0.772562
     11          6           0       -0.952014   -1.243932    0.645962
     12          6           0       -1.813567   -1.290665   -0.455581
     13          6           0       -2.848426   -0.366227   -0.609892
     14          6           0       -3.044428    0.625246    0.375436
     15          6           0       -2.178460    0.674519    1.468732
     16          6           0       -1.137264   -0.242393    1.603661
     17          7           0       -4.086749    1.552880    0.171837
     18          7           0       -3.752704   -0.403068   -1.689086
     19          1           0        0.249298    0.914008   -0.443342
     20          1           0        0.676394    1.673596   -1.997207
     21          1           0        0.094232    2.663301   -0.649251
     22          1           0        1.969951    1.420066    1.557207
     23          1           0        3.251407    2.587963    1.153841
     24          1           0        1.562078    3.121098    1.215943
     25          1           0        2.868355    1.041184   -2.121665
     26          1           0        4.065779    1.652128   -0.987771
     27          1           0        4.089488   -0.748289   -0.941052
     28          1           0        3.583999   -0.129017    0.637274
     29          1           0        1.503633   -2.614304   -1.749254
     30          1           0        0.562495   -1.105950   -1.868849
     31          1           0        2.226355   -1.173977   -2.468765
     32          1           0        0.181422   -2.947376   -0.032801
     33          1           0        0.169279   -2.746394    1.723685
     34          1           0       -1.677474   -2.058590   -1.215226
     35          1           0       -2.325810    1.441975    2.225626
     36          1           0       -0.455926   -0.178325    2.445625
     37          1           0       -4.952255    1.094227   -0.104742
     38          1           0       -4.254279    2.137230    0.984022
     39          1           0       -3.451914   -1.017966   -2.437477
     40          1           0       -3.939266    0.527170   -2.056853
 ---------------------------------------------------------------------

 SCF Done:  E(UB3LYP) =  -803.163825314     A.U. after   33 cycles
 SCF Done:  E(UB3LYP) =  -803.163825314     a.u. after    1 cycles

 The electronic state is 2-A.
 Alpha  occ. eigenvalues --  -18.99175 -14.25141 -14.22184 -14.21624 -14.20763
 Alpha  occ. eigenvalues --  -10.17704 -10.11091 -10.11006 -10.10854 -10.10852
 Alpha  occ. eigenvalues --  -10.10525 -10.08926 -10.08841 -10.08406 -10.08147
 Alpha  occ. eigenvalues --  -10.07462 -10.07231 -10.06721  -0.94404  -0.84754
 Alpha  occ. eigenvalues --   -0.84047  -0.82189  -0.79437  -0.74659  -0.68218
 Alpha  occ. eigenvalues --   -0.65757  -0.63590  -0.61844  -0.60832  -0.60025
 Alpha  occ. eigenvalues --   -0.56324  -0.52386  -0.49666  -0.48580  -0.45048
 Alpha  occ. eigenvalues --   -0.43236  -0.42616  -0.40516  -0.39629  -0.39218
 Alpha  occ. eigenvalues --   -0.38856  -0.37875  -0.37300  -0.36168  -0.35142
 Alpha  occ. eigenvalues --   -0.34371  -0.33379  -0.33166  -0.31791  -0.31551
 Alpha  occ. eigenvalues --   -0.30992  -0.30394  -0.29611  -0.29056  -0.28662
 Alpha  occ. eigenvalues --   -0.27999  -0.27054  -0.26643  -0.26062  -0.25848
 Alpha  occ. eigenvalues --   -0.24897  -0.22062  -0.20936  -0.16406  -0.15649
 Alpha  occ. eigenvalues --   -0.13663  -0.11236  -0.10197   0.03844
 Alpha virt. eigenvalues --    0.05585   0.06463   0.07339   0.07848   0.08092
 Alpha virt. eigenvalues --    0.08621   0.08963   0.09456   0.09885   0.10104
 Alpha virt. eigenvalues --    0.10510   0.10889   0.11146   0.11980   0.12111

  Beta  occ. eigenvalues --  -18.99174 -14.25137 -14.22139 -14.21565 -14.20763
  Beta  occ. eigenvalues --  -10.17703 -10.11086 -10.11003 -10.10843 -10.10811
  Beta  occ. eigenvalues --  -10.10514 -10.08920 -10.08835 -10.08405 -10.08134
  Beta  occ. eigenvalues --  -10.07456 -10.07214 -10.06719  -0.94400  -0.84744
  Beta  occ. eigenvalues --   -0.83996  -0.82182  -0.79358  -0.74636  -0.68198
  Beta  occ. eigenvalues --   -0.65732  -0.63550  -0.61793  -0.60812  -0.59991
  Beta  occ. eigenvalues --   -0.56302  -0.52345  -0.49636  -0.48548  -0.45009
  Beta  occ. eigenvalues --   -0.43195  -0.42562  -0.40483  -0.39607  -0.39167
  Beta  occ. eigenvalues --   -0.38823  -0.37828  -0.37279  -0.36151  -0.35116
  Beta  occ. eigenvalues --   -0.34347  -0.33352  -0.33122  -0.31769  -0.31529
  Beta  occ. eigenvalues --   -0.30961  -0.30377  -0.29594  -0.29037  -0.28646
  Beta  occ. eigenvalues --   -0.27979  -0.27039  -0.26629  -0.26046  -0.25832
  Beta  occ. eigenvalues --   -0.24867  -0.22022  -0.20913  -0.16400  -0.15635
  Beta  occ. eigenvalues --   -0.13641  -0.11227  -0.10162
  Beta virt. eigenvalues --    0.06128   0.06474   0.07244   0.07750   0.08163
  Beta virt. eigenvalues --    0.08433   0.08910   0.09078   0.09742   0.10128
  Beta virt. eigenvalues --    0.10264   0.10736   0.11035   0.11369   0.12339

 Mulliken charges and spin densities:
               1          2
     1  C   -0.488068  -0.227349
     2  N    0.032233   0.067274
     3  C   -0.248143  -0.150689
     4  C   -0.051971  -0.425817
     5  C   -0.241896   0.138907
     6  N    0.014636   0.101087
     7  C    0.750591  -1.156590
     8  C   -0.251759   0.102911
     9  O   -0.282195  -0.000983
    10  C    0.720073  -1.345914
    11  C    0.748745  -0.171146
    12  C   -0.381158   0.303576
    13  C   -0.297187   0.019003
    14  C    0.865795  -1.290597
    15  C   -0.406116   0.156958
    16  C   -0.566094   0.435692
    17  N   -0.330731   0.007613
    18  N   -0.323525  -0.048280
    19  H    0.645416  -0.148916
    20  H   -0.132326   0.281287
    21  H    0.041088   0.081767
    22  H    0.132753   0.026337
    23  H    0.098051   0.030267
    24  H    0.126722   0.000121
    25  H    0.055854   0.102165
    26  H    0.049957   0.107283
    27  H   -0.167113   0.345509
    28  H    0.219666  -0.027072
    29  H   -0.398517   0.574480
    30  H    0.010794   0.191992
    31  H   -0.357913   0.501845
    32  H    0.185507  -0.051709
    33  H    0.200238   0.011981
    34  H   -0.570549   0.730426
    35  H   -0.098015   0.237797
    36  H    0.170738   0.020674
    37  H   -0.105543   0.347606
    38  H   -0.021927   0.261375
    39  H   -0.241083   0.508745
    40  H   -0.107030   0.350386
 Sum of Mulliken charges =  -1.00000   1.00000

 Dipole moment (field-independent basis, Debye):
    X=              4.0793    Y=              1.0660    Z=              5.0838  Tot=              6.6048
 Quadrupole moment (field-independent basis, Debye-Ang):
   XX=           -184.9975   YY=           -150.0294   ZZ=           -162.5560
   XY=              5.2514   XZ=             -9.0694   YZ=             -4.3471

 Summary of Natural Population Analysis:

                                       Natural Population
                Natural  -----------------------------------------------
    Atom  No    Charge         Core      Valence    Rydberg      Total
 -----------------------------------------------------------------------
      C    1   -0.17596      0.99963     2.16727    0.00905     3.17596
      N    2   -0.27987      0.99974     2.76785    0.01228     3.77987
      C    3   -0.18125      0.99965     2.17483    0.00678     3.18125
      C    4   -0.08595      0.99961     2.07442    0.01192     3.08595
      C    5   -0.09855      0.99960     2.08800    0.01095     3.09855
      N    6   -0.25851      0.99964     2.74677    0.01210     3.75851
      C    7   -0.18029      0.99963     2.17204    0.00863     3.18029
      C    8    0.35253      0.99963     1.62433    0.02351     2.64747
      O    9   -0.33705      0.99988     3.33210    0.00507     4.33705
      C   10   -0.23441      0.99956     2.22601    0.00883     3.23441
      C   11   -0.02681      0.99950     2.01742    0.00990     3.02681
      C   12   -0.12000      0.99947     2.11002    0.01050     3.12000
      C   13    0.07253      0.99945     1.91548    0.01254     2.92747
      C   14    0.06474      0.99944     1.92410    0.01172     2.93526
      C   15   -0.11476      0.99952     2.10585    0.00938     3.11476
      C   16   -0.11341      0.99951     2.10454    0.00935     3.11341
      N   17   -0.40405      0.99973     2.89401    0.01031     3.90405
      N   18   -0.40339      0.99972     2.89314    0.01052     3.90339
      H   19    0.08849      0.00000     0.40865    0.00285     0.41151
      H   20    0.09349      0.00000     0.40520    0.00131     0.40651
      H   21    0.09304      0.00000     0.40587    0.00109     0.40696
      H   22    0.09470      0.00000     0.40386    0.00144     0.40530
      H   23    0.08896      0.00000     0.41030    0.00074     0.41104
      H   24    0.09216      0.00000     0.40701    0.00082     0.40784
      H   25    0.09520      0.00000     0.40363    0.00117     0.40480
      H   26    0.09213      0.00000     0.40694    0.00093     0.40787
      H   27    0.09304      0.00000     0.40576    0.00121     0.40696
      H   28    0.11449      0.00000     0.38425    0.00126     0.38551
      H   29    0.09809      0.00000     0.40046    0.00145     0.40191
      H   30    0.10401      0.00000     0.39368    0.00231     0.39599
      H   31    0.10258      0.00000     0.39586    0.00156     0.39742
      H   32    0.10701      0.00000     0.39169    0.00130     0.39299
      H   33    0.11296      0.00000     0.38602    0.00102     0.38704
      H   34    0.10092      0.00000     0.39734    0.00174     0.39908
      H   35    0.09725      0.00000     0.40188    0.00087     0.40275
      H   36    0.10765      0.00000     0.39091    0.00145     0.39235
      H   37    0.18796      0.00000     0.30948    0.00256     0.31204
      H   38    0.18263      0.00000     0.31526    0.00210     0.31737
      H   39    0.18824      0.00000     0.30713    0.00463     0.31176
      H   40    0.18943      0.00000     0.30699    0.00358     0.31057
 =======================================================================
   * Total *    0.00000     17.99289    49.77638    0.23073    68.00000

 Normal termination of Gaussian 16 at Fri Dec 11 22:59:46 2020.
