 Gaussian 16, Revision A.03,

 -----------------------------------------------------------
 # opt freq B3LYP/6-31G(d) empiricaldispersion=gd3bj scf=xqc
 -----------------------------------------------------------

 ------------------------------
 CID_82127858_JID_6495_neutraal
 ------------------------------
 Symbolic Z-matrix:
 Charge =  0 Multiplicity = 1

 SCF Done:  E(RB3LYP) =  -766.690873288     A.U. after   15 cycles
 SCF Done:  E(RB3LYP) =  -766.694923459     A.U. after   12 cycles
 SCF Done:  E(RB3LYP) =  -766.694389691     A.U. after   13 cycles
 SCF Done:  E(RB3LYP) =  -766.695577505     A.U. after   12 cycles
 SCF Done:  E(RB3LYP) =  -766.695663785     A.U. after   11 cycles
 SCF Done:  E(RB3LYP) =  -766.695684075     A.U. after   11 cycles
 SCF Done:  E(RB3LYP) =  -766.695715892     A.U. after   10 cycles
 SCF Done:  E(RB3LYP) =  -766.695737095     A.U. after   10 cycles
 SCF Done:  E(RB3LYP) =  -766.695755225     A.U. after   11 cycles
 SCF Done:  E(RB3LYP) =  -766.695785651     A.U. after   12 cycles
 SCF Done:  E(RB3LYP) =  -766.696023080     A.U. after    9 cycles
 SCF Done:  E(RB3LYP) =  -766.696023361     A.U. after    9 cycles
 SCF Done:  E(RB3LYP) =  -766.696023649     A.U. after    9 cycles
 SCF Done:  E(RB3LYP) =  -766.696023802     A.U. after    7 cycles
 SCF Done:  E(RB3LYP) =  -766.696023857     A.U. after    8 cycles
 Optimization completed.
    -- Stationary point found.
 Normal termination of Gaussian 16 at Thu Dec 10 23:29:13 2020.

 --------------------------------------------------------------------
 #N Geom=AllCheck Guess=TCheck SCRF=Check GenChk RB3LYP/6-31G(d) Freq
 --------------------------------------------------------------------

 Structure from the checkpoint file:  "JID_6495.chk"
 ------------------------------
 CID_82127858_JID_6495_neutraal
 ------------------------------
 Charge =  0 Multiplicity = 1

 SCF Done:  E(RB3LYP) =  -766.696023857     A.U. after    1 cycles

  Exact polarizability: 164.069  -0.062 138.043 -11.772  -5.882  87.794
 Approx polarizability: 225.933   3.519 227.262 -22.890 -16.466 139.489

                      1                      2                      3
                      A                      A                      A
 Frequencies --     14.7250                22.9830                31.9193
 Red. masses --      6.6358                 1.0197                 5.9385
 Frc consts  --      0.0008                 0.0003                 0.0036
 IR Inten    --      0.4984                 0.2050                 0.4994

                      4                      5                      6
                      A                      A                      A
 Frequencies --     62.3675                71.0536               100.1260
 Red. masses --      6.6940                 4.4281                 6.9382
 Frc consts  --      0.0153                 0.0132                 0.0410
 IR Inten    --      0.4848                 0.7123                 2.2619

                      7                      8                      9
                      A                      A                      A
 Frequencies --    156.6378               181.1382               206.1323
 Red. masses --      6.7204                 5.0781                 4.5465
 Frc consts  --      0.0971                 0.0982                 0.1138
 IR Inten    --      0.5562                 0.1404                 1.5243

                     10                     11                     12
                      A                      A                      A
 Frequencies --    218.8222               252.9100               270.3305
 Red. masses --      3.1831                 2.3896                 1.3961
 Frc consts  --      0.0898                 0.0901                 0.0601
 IR Inten    --      1.7691                 0.1232                 1.0559

                     13                     14                     15
                      A                      A                      A
 Frequencies --    290.7803               300.7336               344.7571
 Red. masses --      2.9143                 3.2655                 2.6166
 Frc consts  --      0.1452                 0.1740                 0.1832
 IR Inten    --      0.8258                 3.2726                 1.8381

                     16                     17                     18
                      A                      A                      A
 Frequencies --    393.9081               419.4947               447.9800
 Red. masses --      6.0679                 2.3639                 3.1099
 Frc consts  --      0.5547                 0.2451                 0.3677
 IR Inten    --      0.7259                 1.8037                 0.4798

                     19                     20                     21
                      A                      A                      A
 Frequencies --    486.7455               518.4926               529.9971
 Red. masses --      4.3839                 3.6646                 4.9916
 Frc consts  --      0.6120                 0.5804                 0.8261
 IR Inten    --      5.9838                 1.8073                 1.1841

                     22                     23                     24
                      A                      A                      A
 Frequencies --    547.1069               610.8372               615.1121
 Red. masses --      3.3306                 1.5514                 3.1054
 Frc consts  --      0.5874                 0.3411                 0.6923
 IR Inten    --      2.2883                66.7489                43.6168

                     25                     26                     27
                      A                      A                      A
 Frequencies --    618.9931               662.2769               716.9887
 Red. masses --      1.7504                 2.4340                 3.2254
 Frc consts  --      0.3951                 0.6290                 0.9769
 IR Inten    --    103.6309                94.3198                25.2982

                     28                     29                     30
                      A                      A                      A
 Frequencies --    740.3792               747.7873               762.2297
 Red. masses --      2.7295                 3.7389                 4.5262
 Frc consts  --      0.8815                 1.2318                 1.5494
 IR Inten    --      2.0107                 1.7327                14.9438

                     31                     32                     33
                      A                      A                      A
 Frequencies --    787.9796               813.1356               867.9368
 Red. masses --      4.8631                 1.5566                 2.1411
 Frc consts  --      1.7791                 0.6064                 0.9503
 IR Inten    --     21.8695                23.5865                14.9532

                     34                     35                     36
                      A                      A                      A
 Frequencies --    907.6270               927.6367               946.4122
 Red. masses --      1.3480                 1.4643                 2.5580
 Frc consts  --      0.6543                 0.7424                 1.3499
 IR Inten    --      2.7365                 5.1709                 4.7909

                     37                     38                     39
                      A                      A                      A
 Frequencies --    957.9249               968.9849               985.7290
 Red. masses --      2.2259                 1.8307                 1.2854
 Frc consts  --      1.2034                 1.0127                 0.7359
 IR Inten    --     12.5356                 1.8657                 1.9038

                     40                     41                     42
                      A                      A                      A
 Frequencies --   1022.7209              1032.6730              1076.0620
 Red. masses --      5.6144                 1.5612                 1.5219
 Frc consts  --      3.4599                 0.9809                 1.0383
 IR Inten    --      0.3876                 1.1599                 6.6460

                     43                     44                     45
                      A                      A                      A
 Frequencies --   1112.0614              1130.0947              1139.0548
 Red. masses --      2.0627                 3.0713                 1.9152
 Frc consts  --      1.5030                 2.3110                 1.4640
 IR Inten    --     65.9475               142.5705                16.9583

                     46                     47                     48
                      A                      A                      A
 Frequencies --   1160.4794              1195.4626              1208.3639
 Red. masses --      2.4722                 1.6551                 1.8743
 Frc consts  --      1.9616                 1.3936                 1.6125
 IR Inten    --     85.6595                11.4293                86.7294

                     49                     50                     51
                      A                      A                      A
 Frequencies --   1213.1163              1232.5552              1282.3768
 Red. masses --      1.1963                 2.0728                 3.4251
 Frc consts  --      1.0373                 1.8553                 3.3186
 IR Inten    --      6.1350               129.9415                 1.4217

                     52                     53                     54
                      A                      A                      A
 Frequencies --   1295.3481              1357.8910              1364.7055
 Red. masses --      1.6755                 1.5818                 2.0457
 Frc consts  --      1.6564                 1.7184                 2.2448
 IR Inten    --      3.9013                 1.6678                10.8810

                     55                     56                     57
                      A                      A                      A
 Frequencies --   1366.8137              1373.3777              1391.5370
 Red. masses --      1.9117                 1.9990                 2.3369
 Frc consts  --      2.1042                 2.2215                 2.6661
 IR Inten    --      8.3754                31.1332                35.8825

                     58                     59                     60
                      A                      A                      A
 Frequencies --   1442.7748              1445.6342              1483.9299
 Red. masses --      1.2491                 1.2603                 2.1265
 Frc consts  --      1.5320                 1.5518                 2.7589
 IR Inten    --      0.1248                 1.8805                 1.8964

                     61                     62                     63
                      A                      A                      A
 Frequencies --   1517.3016              1517.6296              1523.7642
 Red. masses --      1.1112                 1.0498                 1.0729
 Frc consts  --      1.5072                 1.4246                 1.4678
 IR Inten    --      3.2195                 5.0643                12.3761

                     64                     65                     66
                      A                      A                      A
 Frequencies --   1527.5910              1533.3489              1545.8011
 Red. masses --      1.2616                 1.0789                 2.0302
 Frc consts  --      1.7346                 1.4945                 2.8582
 IR Inten    --     17.1993                22.3040                12.9205

                     67                     68                     69
                      A                      A                      A
 Frequencies --   1648.8358              1670.4989              1831.6093
 Red. masses --      5.3787                 5.6704                10.4896
 Frc consts  --      8.6156                 9.3229                20.7336
 IR Inten    --      5.0085                15.1180               251.2244

                     70                     71                     72
                      A                      A                      A
 Frequencies --   1848.4474              3041.7590              3083.4970
 Red. masses --     10.0941                 1.0401                 1.0360
 Frc consts  --     20.3203                 5.6698                 5.8036
 IR Inten    --    262.8522                31.8723                12.3700

                     73                     74                     75
                      A                      A                      A
 Frequencies --   3087.2745              3098.0618              3125.4559
 Red. masses --      1.0569                 1.0964                 1.1024
 Frc consts  --      5.9351                 6.2000                 6.3448
 IR Inten    --      8.2351                22.3672                15.8694

                     76                     77                     78
                      A                      A                      A
 Frequencies --   3134.2714              3161.2519              3164.6425
 Red. masses --      1.1054                 1.1031                 1.1038
 Frc consts  --      6.3982                 6.4950                 6.5134
 IR Inten    --      4.3539                 8.1448                14.5760

                     79                     80                     81
                      A                      A                      A
 Frequencies --   3168.8562              3176.1801              3196.0605
 Red. masses --      1.0903                 1.0872                 1.0932
 Frc consts  --      6.4504                 6.4618                 6.5792
 IR Inten    --     21.5784                10.8173                26.4992

                     82                     83                     84
                      A                      A                      A
 Frequencies --   3228.5463              3686.5329              3687.2868
 Red. masses --      1.0928                 1.0641                 1.0640
 Frc consts  --      6.7110                 8.5206                 8.5230
 IR Inten    --      2.8825                76.2955                49.2907

 - Thermochemistry -
 -------------------
 Temperature   298.150 Kelvin.  Pressure   1.00000 Atm.
 Atom     1 has atomic number  6 and mass  12.00000

 Molecular mass:   222.08921 amu.
 Principal axes and moments of inertia in atomic units:
                           1         2         3
     Eigenvalues --  1860.877365508.468416431.87820
           X            0.99997   0.00730  -0.00357
           Y           -0.00736   0.99985  -0.01589
           Z            0.00346   0.01591   0.99987
 This molecule is an asymmetric top.
 Rotational symmetry number  1.
 Warning -- assumption of classical behavior for rotation
           may cause significant error
 Rotational temperatures (Kelvin)      0.04654     0.01572     0.01347
 Rotational constants (GHZ):           0.96983     0.32763     0.28059
 Zero-point vibrational energy     640233.3 (Joules/Mol)
                                  153.01943 (Kcal/Mol)
 Warning -- explicit consideration of  25 degrees of freedom as
           vibrations may cause significant error
 Vibrational temperatures:     21.19    33.07    45.92    89.73   102.23
          (Kelvin)            144.06   225.37   260.62   296.58   314.84
                              363.88   388.95   418.37   432.69   496.03
                              566.75   603.56   644.54   700.32   746.00
                              762.55   787.16   878.86   885.01   890.59
                              952.87  1031.59  1065.24  1075.90  1096.68
                             1133.73  1169.92  1248.77  1305.87  1334.66
                             1361.68  1378.24  1394.15  1418.24  1471.47
                             1485.79  1548.21  1600.01  1625.95  1638.85
                             1669.67  1720.00  1738.57  1745.40  1773.37
                             1845.05  1863.72  1953.70  1963.51  1966.54
                             1975.98  2002.11  2075.83  2079.95  2135.04
                             2183.06  2183.53  2192.36  2197.86  2206.15
                             2224.06  2372.31  2403.48  2635.28  2659.50
                             4376.41  4436.46  4441.90  4457.42  4496.83
                             4509.52  4548.34  4553.21  4559.28  4569.81
                             4598.42  4645.16  5304.10  5305.18

 Zero-point correction=                           0.243852 (Hartree/Particle)
 Thermal correction to Energy=                    0.259694
 Thermal correction to Enthalpy=                  0.260639
 Thermal correction to Gibbs Free Energy=         0.197828
 Sum of electronic and zero-point Energies=           -766.452172
 Sum of electronic and thermal Energies=              -766.436330
 Sum of electronic and thermal Enthalpies=            -766.435385
 Sum of electronic and thermal Free Energies=         -766.498196

                     E (Thermal)             CV                S
                      KCal/Mol        Cal/Mol-Kelvin    Cal/Mol-Kelvin
 Total                  162.961             58.600            132.196
 Electronic               0.000              0.000              0.000
 Translational            0.889              2.981             42.096
 Rotational               0.889              2.981             32.555
 Vibrational            161.183             52.639             57.544
 Vibration     1          0.593              1.986              7.242
 Vibration     2          0.593              1.985              6.358
 Vibration     3          0.594              1.983              5.706
 Vibration     4          0.597              1.972              4.381
 Vibration     5          0.598              1.968              4.124
 Vibration     6          0.604              1.949              3.452
 Vibration     7          0.620              1.895              2.590
 Vibration     8          0.630              1.865              2.317
 Vibration     9          0.641              1.831              2.078
 Vibration    10          0.647              1.812              1.969
 Vibration    11          0.664              1.758              1.710
 Vibration    12          0.674              1.728              1.594
 Vibration    13          0.687              1.691              1.469
 Vibration    14          0.693              1.672              1.413
 Vibration    15          0.723              1.586              1.190
 Vibration    16          0.761              1.483              0.985
 Vibration    17          0.782              1.428              0.894
 Vibration    18          0.807              1.365              0.802
 Vibration    19          0.843              1.279              0.692
 Vibration    20          0.873              1.209              0.613
 Vibration    21          0.885              1.184              0.587
 Vibration    22          0.902              1.146              0.550
 Vibration    23          0.970              1.009              0.431
 Vibration    24          0.975              1.000              0.424
 Vibration    25          0.979              0.992              0.418

 Optimization completed.
    -- Stationary point found.
 Normal termination of Gaussian 16 at Thu Dec 10 23:39:13 2020.

 ----------------------------------------------------------------------
 # B3LYP/6-311++G(d,p) empiricaldispersion=gd3bj scf=xqc pop=npa geom=c
 heck
 ----------------------------------------------------------------------

 --------------------------------------
 CID_82127858_JID_6495_Energie_neutraal
 --------------------------------------
 Structure from the checkpoint file:  "JID_6495.chk"
 Charge =  0 Multiplicity = 1

 SCF Done:  E(RB3LYP) =  -766.927904331     A.U. after   15 cycles
 Normal termination of Gaussian 16 at Thu Dec 10 23:43:11 2020.

 ----------------------------------------------------------------------
 # B3LYP/6-311++G(d,p) empiricaldispersion=gd3bj scf=xqc pop=npa geom=c
 heck
 ----------------------------------------------------------------------

 ------------------------------------
 CID_82127858_JID_6495_Energie_kation
 ------------------------------------
 Structure from the checkpoint file:  "JID_6495.chk"
 Charge =  1 Multiplicity = 2

 SCF Done:  E(UB3LYP) =  -766.613645036     A.U. after   26 cycles
 Normal termination of Gaussian 16 at Thu Dec 10 23:52:27 2020.
 Gaussian 16:  ES64L-G16RevA.03 25-Dec-2016

 ----------------------------------------------------------------------
 # B3LYP/6-311++G(d,p) empiricaldispersion=gd3bj scf=xqc pop=npa geom=c
 heck
 ----------------------------------------------------------------------

 -----------------------------------
 CID_82127858_JID_6495_Energie_anion
 -----------------------------------
 Structure from the checkpoint file:  "JID_6495.chk"
 Charge = -1 Multiplicity = 2

                         Standard orientation:
 ---------------------------------------------------------------------
 Center     Atomic      Atomic             Coordinates (Angstroms)
 Number     Number       Type             X           Y           Z
 ---------------------------------------------------------------------
      1          6           0       -4.257033   -1.607732    0.574360
      2          6           0       -3.276484   -0.559388    0.106709
      3          6           0       -1.972310   -0.908053   -0.256564
      4          6           0       -1.035632    0.048476   -0.667955
      5          6           0       -1.428843    1.390910   -0.727205
      6          6           0       -2.728105    1.754272   -0.373211
      7          6           0       -3.644550    0.789912    0.042062
      8          6           0        0.368258   -0.380177   -1.032018
      9          6           0        1.401323   -0.241152    0.130388
     10          6           0        0.894985   -0.898325    1.429733
     11          6           0        2.706114   -0.912294   -0.304282
     12          8           0        3.760179   -0.349534   -0.495441
     13          8           0        2.554239   -2.248949   -0.465487
     14          6           0        1.756775    1.236785    0.335304
     15          8           0        1.634719    2.106393   -0.497023
     16          8           0        2.251555    1.476559    1.568146
     17          1           0       -3.958277   -2.608826    0.247441
     18          1           0       -4.325500   -1.627062    1.670050
     19          1           0       -5.264766   -1.412581    0.191627
     20          1           0       -1.677357   -1.955083   -0.223044
     21          1           0       -0.716812    2.141316   -1.052084
     22          1           0       -3.029390    2.796864   -0.429982
     23          1           0       -4.656768    1.082659    0.311264
     24          1           0        0.359152   -1.431777   -1.330673
     25          1           0        0.738276    0.206027   -1.877489
     26          1           0        0.619612   -1.937371    1.234667
     27          1           0        1.662881   -0.875931    2.205736
     28          1           0        0.013207   -0.369314    1.797254
     29          1           0        3.425426   -2.584699   -0.748836
     30          1           0        2.497793    2.420629    1.578573
 ---------------------------------------------------------------------

 SCF Done:  E(UB3LYP) =  -766.918475553     A.U. after   33 cycles
 SCF Done:  E(UB3LYP) =  -766.918475553     a.u. after    1 cycles

 The electronic state is 2-A.
 Alpha  occ. eigenvalues --  -19.07912 -19.06971 -19.02101 -19.02027 -10.21165
 Alpha  occ. eigenvalues --  -10.21130 -10.11986 -10.08914 -10.08524 -10.08320
 Alpha  occ. eigenvalues --  -10.07974 -10.07631 -10.07588 -10.07309 -10.07214
 Alpha  occ. eigenvalues --  -10.07064  -1.02186  -1.01212  -0.92963  -0.92509
 Alpha  occ. eigenvalues --   -0.76928  -0.73623  -0.68166  -0.66159  -0.60119
 Alpha  occ. eigenvalues --   -0.59063  -0.57343  -0.55667  -0.50593  -0.49210
 Alpha  occ. eigenvalues --   -0.46661  -0.41778  -0.41110  -0.39998  -0.39427
 Alpha  occ. eigenvalues --   -0.38353  -0.37160  -0.36656  -0.34989  -0.34193
 Alpha  occ. eigenvalues --   -0.33095  -0.32592  -0.32041  -0.31585  -0.30975
 Alpha  occ. eigenvalues --   -0.30290  -0.29175  -0.28492  -0.27606  -0.26806
 Alpha  occ. eigenvalues --   -0.25013  -0.24527  -0.24413  -0.23561  -0.22535
 Alpha  occ. eigenvalues --   -0.19133  -0.18530  -0.15692  -0.14852   0.04201
 Alpha virt. eigenvalues --    0.05964   0.06534   0.07239   0.07480   0.07752
 Alpha virt. eigenvalues --    0.08571   0.08817   0.09229   0.09515   0.10196
 Alpha virt. eigenvalues --    0.10556   0.10666   0.12253   0.12578   0.13041

  Beta  occ. eigenvalues --  -19.07883 -19.06898 -19.02062 -19.02005 -10.21134
  Beta  occ. eigenvalues --  -10.21074 -10.11976 -10.08922 -10.08503 -10.08312
  Beta  occ. eigenvalues --  -10.07960 -10.07602 -10.07553 -10.07280 -10.07211
  Beta  occ. eigenvalues --  -10.07032  -1.02106  -1.01110  -0.92892  -0.92424
  Beta  occ. eigenvalues --   -0.76886  -0.73562  -0.68128  -0.66100  -0.60068
  Beta  occ. eigenvalues --   -0.59010  -0.57253  -0.55519  -0.50535  -0.49129
  Beta  occ. eigenvalues --   -0.46601  -0.41705  -0.41043  -0.39951  -0.39367
  Beta  occ. eigenvalues --   -0.38303  -0.37113  -0.36578  -0.34923  -0.34056
  Beta  occ. eigenvalues --   -0.33054  -0.32551  -0.32000  -0.31547  -0.30941
  Beta  occ. eigenvalues --   -0.30252  -0.29133  -0.28431  -0.27550  -0.26757
  Beta  occ. eigenvalues --   -0.24945  -0.24488  -0.24373  -0.23435  -0.22433
  Beta  occ. eigenvalues --   -0.19075  -0.18469  -0.15562  -0.14758
  Beta virt. eigenvalues --    0.06206   0.06881   0.07245   0.07504   0.07763
  Beta virt. eigenvalues --    0.08243   0.09068   0.09221   0.09510   0.09820
  Beta virt. eigenvalues --    0.10534   0.10701   0.10913   0.12397   0.12704

 Mulliken charges and spin densities:
               1          2
     1  C    1.414747  -1.909944
     2  C   -0.266843   0.585110
     3  C   -0.370663   0.035761
     4  C    0.526729   0.600659
     5  C   -0.980675   0.708411
     6  C   -0.072946  -0.369838
     7  C   -1.286223   0.846358
     8  C    1.322106  -2.085524
     9  C    0.120902   0.298485
    10  C    0.548972  -1.217761
    11  C   -0.071439   0.039988
    12  O   -0.268368   0.017886
    13  O   -0.166953   0.049411
    14  C   -0.151591  -0.267334
    15  O   -0.293356   0.038168
    16  O   -0.177732   0.066250
    17  H   -0.338497   0.493223
    18  H   -0.043936   0.219482
    19  H   -0.035266   0.166157
    20  H   -0.058531   0.208489
    21  H    0.162545   0.051684
    22  H    0.039711   0.114411
    23  H   -0.212426   0.353640
    24  H   -0.058398   0.264797
    25  H    0.211650   0.025315
    26  H   -0.161347   0.351032
    27  H    0.102315   0.090595
    28  H    0.140108   0.051530
    29  H   -0.595310   0.921399
    30  H    0.020713   0.252158
 Sum of Mulliken charges =  -1.00000   1.00000

 Dipole moment (field-independent basis, Debye):
    X=             -2.8874    Y=              4.7498    Z=              1.0115  Tot=              5.6498
 Quadrupole moment (field-independent basis, Debye-Ang):
   XX=           -172.0817   YY=           -140.3964   ZZ=           -121.2433
   XY=              5.0698   XZ=              7.6388   YZ=             -1.1098

 Summary of Natural Population Analysis:

                                       Natural Population
                Natural  -----------------------------------------------
    Atom  No    Charge         Core      Valence    Rydberg      Total
 -----------------------------------------------------------------------
      C    1   -0.29038      0.99964     2.28569    0.00505     3.29038
      C    2   -0.01832      0.99952     2.00820    0.01061     3.01832
      C    3   -0.09619      0.99946     2.08751    0.00922     3.09619
      C    4   -0.01217      0.99951     2.00164    0.01102     3.01217
      C    5   -0.10560      0.99950     2.09796    0.00813     3.10560
      C    6   -0.09596      0.99957     2.08701    0.00939     3.09596
      C    7   -0.10108      0.99951     2.09265    0.00892     3.10108
      C    8   -0.19562      0.99957     2.18451    0.01153     3.19562
      C    9   -0.11446      0.99948     2.10082    0.01417     3.11446
      C   10   -0.28477      0.99964     2.27735    0.00778     3.28477
      C   11    0.42119      0.99964     1.55257    0.02659     2.57881
      O   12   -0.30127      0.99987     3.29517    0.00623     4.30127
      O   13   -0.34462      0.99987     3.33714    0.00761     4.34462
      C   14    0.42811      0.99966     1.54380    0.02843     2.57189
      O   15   -0.30566      0.99986     3.29986    0.00593     4.30566
      O   16   -0.34139      0.99987     3.33526    0.00625     4.34139
      H   17    0.10389      0.00000     0.39490    0.00121     0.39611
      H   18    0.10454      0.00000     0.39405    0.00142     0.39546
      H   19    0.10097      0.00000     0.39793    0.00110     0.39903
      H   20    0.10027      0.00000     0.39799    0.00174     0.39973
      H   21    0.11089      0.00000     0.38778    0.00133     0.38911
      H   22    0.09735      0.00000     0.40188    0.00077     0.40265
      H   23    0.09715      0.00000     0.40195    0.00091     0.40285
      H   24    0.11301      0.00000     0.38524    0.00175     0.38699
      H   25    0.11486      0.00000     0.38398    0.00116     0.38514
      H   26    0.10933      0.00000     0.38917    0.00150     0.39067
      H   27    0.10902      0.00000     0.38975    0.00123     0.39098
      H   28    0.10806      0.00000     0.39075    0.00119     0.39194
      H   29    0.24884      0.00000     0.22091    0.03025     0.25116
      H   30    0.24000      0.00000     0.25592    0.00409     0.26000
 =======================================================================
   * Total *    0.00000     15.99417    42.77932    0.22651    59.00000

 Normal termination of Gaussian 16 at Fri Dec 11 00:03:46 2020.
