 Gaussian 16, Revision A.03,

 -----------------------------------------------------------
 # opt freq B3LYP/6-31G(d) empiricaldispersion=gd3bj scf=xqc
 -----------------------------------------------------------

 -------------------------------
 CID_116503357_JID_6471_neutraal
 -------------------------------
 Symbolic Z-matrix:
 Charge =  0 Multiplicity = 1

 SCF Done:  E(RB3LYP) =  -751.589945706     A.U. after   14 cycles
 SCF Done:  E(RB3LYP) =  -751.594474710     A.U. after   12 cycles
 SCF Done:  E(RB3LYP) =  -751.588078389     A.U. after   12 cycles
 SCF Done:  E(RB3LYP) =  -751.594791200     A.U. after   11 cycles
 SCF Done:  E(RB3LYP) =  -751.595987421     A.U. after   12 cycles
 SCF Done:  E(RB3LYP) =  -751.596904537     A.U. after   11 cycles
 SCF Done:  E(RB3LYP) =  -751.597175534     A.U. after   11 cycles
 SCF Done:  E(RB3LYP) =  -751.596920997     A.U. after   12 cycles
 SCF Done:  E(RB3LYP) =  -751.597235453     A.U. after   11 cycles
 SCF Done:  E(RB3LYP) =  -751.597275245     A.U. after   10 cycles
 SCF Done:  E(RB3LYP) =  -751.597288177     A.U. after    8 cycles
 SCF Done:  E(RB3LYP) =  -751.597289573     A.U. after    8 cycles
 SCF Done:  E(RB3LYP) =  -751.597289886     A.U. after    8 cycles
 SCF Done:  E(RB3LYP) =  -751.597290093     A.U. after    7 cycles
 SCF Done:  E(RB3LYP) =  -751.597290153     A.U. after    7 cycles
 Optimization completed.
    -- Stationary point found.
 Normal termination of Gaussian 16 at Thu Dec 10 23:11:11 2020.

 --------------------------------------------------------------------
 #N Geom=AllCheck Guess=TCheck SCRF=Check GenChk RB3LYP/6-31G(d) Freq
 --------------------------------------------------------------------

 Structure from the checkpoint file:  "JID_6471.chk"
 -------------------------------
 CID_116503357_JID_6471_neutraal
 -------------------------------
 Charge =  0 Multiplicity = 1

 SCF Done:  E(RB3LYP) =  -751.597290153     A.U. after    1 cycles

  Exact polarizability: 159.930   2.318 135.774   1.045   0.165 120.608
 Approx polarizability: 204.468   1.921 184.017   7.548   2.368 187.768

                      1                      2                      3
                      A                      A                      A
 Frequencies --     32.7930                38.8218                60.5156
 Red. masses --      9.5751                 3.3385                 3.9031
 Frc consts  --      0.0061                 0.0030                 0.0084
 IR Inten    --      1.0965                 0.1903                 0.6512

                      4                      5                      6
                      A                      A                      A
 Frequencies --     79.7498                83.0668               112.1571
 Red. masses --      2.6379                 3.6257                 2.0896
 Frc consts  --      0.0099                 0.0147                 0.0155
 IR Inten    --      3.0000                 0.0448                 1.0060

                      7                      8                      9
                      A                      A                      A
 Frequencies --    126.5694               147.7655               174.6879
 Red. masses --      2.0513                 2.6905                 3.1438
 Frc consts  --      0.0194                 0.0346                 0.0565
 IR Inten    --      0.7201                 0.2344                 0.0889

                     10                     11                     12
                      A                      A                      A
 Frequencies --    189.3201               206.3892               212.9362
 Red. masses --      2.7998                 1.9274                 2.9265
 Frc consts  --      0.0591                 0.0484                 0.0782
 IR Inten    --      0.7294                 0.1216                 0.4474

                     13                     14                     15
                      A                      A                      A
 Frequencies --    237.4819               246.1909               273.4938
 Red. masses --      1.3257                 1.5942                 2.2813
 Frc consts  --      0.0441                 0.0569                 0.1005
 IR Inten    --      3.1165                 0.1515                 1.1954

                     16                     17                     18
                      A                      A                      A
 Frequencies --    286.4546               296.2420               301.4784
 Red. masses --      1.5920                 1.5526                 2.5656
 Frc consts  --      0.0770                 0.0803                 0.1374
 IR Inten    --      0.8042                 0.0704                 0.6720

                     19                     20                     21
                      A                      A                      A
 Frequencies --    346.5448               358.7589               414.0120
 Red. masses --      2.9158                 3.7434                 3.0130
 Frc consts  --      0.2063                 0.2839                 0.3043
 IR Inten    --      2.6155                 4.2840                 4.2173

                     22                     23                     24
                      A                      A                      A
 Frequencies --    429.4907               455.9800               478.6068
 Red. masses --      2.7876                 2.2043                 4.0824
 Frc consts  --      0.3030                 0.2700                 0.5510
 IR Inten    --      0.3400                 0.4728                 2.0909

                     25                     26                     27
                      A                      A                      A
 Frequencies --    550.2841               591.7445               620.2430
 Red. masses --      2.9354                 3.5560                 3.2812
 Frc consts  --      0.5237                 0.7336                 0.7437
 IR Inten    --      2.8150                 4.6333                44.8648

                     28                     29                     30
                      A                      A                      A
 Frequencies --    623.9208               658.1078               738.4790
 Red. masses --      1.3595                 3.3393                 2.8457
 Frc consts  --      0.3118                 0.8521                 0.9143
 IR Inten    --     64.4002                 9.8861                20.4821

                     31                     32                     33
                      A                      A                      A
 Frequencies --    760.0417               772.8356               790.9946
 Red. masses --      1.5521                 3.1841                 1.4008
 Frc consts  --      0.5283                 1.1205                 0.5164
 IR Inten    --     13.4130                19.7587                12.3821

                     34                     35                     36
                      A                      A                      A
 Frequencies --    829.9966               869.2018               901.3695
 Red. masses --      2.6252                 1.9377                 2.2352
 Frc consts  --      1.0655                 0.8625                 1.0700
 IR Inten    --      6.6865                 3.6828                 2.9240

                     37                     38                     39
                      A                      A                      A
 Frequencies --    919.8679               924.5008               948.1568
 Red. masses --      1.7882                 1.5903                 1.8487
 Frc consts  --      0.8915                 0.8008                 0.9792
 IR Inten    --      8.8945                12.7782                 2.4713

                     40                     41                     42
                      A                      A                      A
 Frequencies --    973.6095               977.8924               985.3248
 Red. masses --      2.0637                 1.5653                 2.4363
 Frc consts  --      1.1526                 0.8819                 1.3936
 IR Inten    --     20.9887                 3.6896                 0.5190

                     43                     44                     45
                      A                      A                      A
 Frequencies --   1001.9925              1022.9585              1067.5707
 Red. masses --      4.0439                 2.6893                 2.1851
 Frc consts  --      2.3921                 1.6581                 1.4673
 IR Inten    --     27.5359                 0.8418                15.1047

                     46                     47                     48
                      A                      A                      A
 Frequencies --   1090.2425              1121.4270              1135.1078
 Red. masses --      1.9157                 2.2627                 1.9990
 Frc consts  --      1.3416                 1.6765                 1.5175
 IR Inten    --     11.6180                28.7662                 5.7892

                     49                     50                     51
                      A                      A                      A
 Frequencies --   1149.7070              1155.6879              1170.4079
 Red. masses --      2.4678                 2.4121                 2.6421
 Frc consts  --      1.9219                 1.8982                 2.1324
 IR Inten    --     90.4518                73.2461                43.6528

                     52                     53                     54
                      A                      A                      A
 Frequencies --   1179.0432              1183.3033              1196.2394
 Red. masses --      2.1398                 2.1677                 1.4273
 Frc consts  --      1.7526                 1.7883                 1.2034
 IR Inten    --     53.6470                96.4076                18.4997

                     55                     56                     57
                      A                      A                      A
 Frequencies --   1211.9057              1218.5366              1243.0694
 Red. masses --      2.2857                 2.1198                 1.7108
 Frc consts  --      1.9779                 1.8545                 1.5576
 IR Inten    --      5.9085                83.5818                33.9046

                     58                     59                     60
                      A                      A                      A
 Frequencies --   1253.1196              1273.1921              1275.7509
 Red. masses --      1.4263                 1.3227                 1.2381
 Frc consts  --      1.3196                 1.2632                 1.1873
 IR Inten    --     11.7242                 3.0180                 2.4415

                     61                     62                     63
                      A                      A                      A
 Frequencies --   1314.3215              1331.6485              1338.3021
 Red. masses --      1.3351                 1.4648                 1.3425
 Frc consts  --      1.3588                 1.5304                 1.4166
 IR Inten    --     15.4678                 8.0459                 9.0289

                     64                     65                     66
                      A                      A                      A
 Frequencies --   1345.4393              1354.3720              1364.2632
 Red. masses --      1.3453                 1.4118                 1.4537
 Frc consts  --      1.4348                 1.5258                 1.5941
 IR Inten    --      3.4344                16.5339                 9.1744

                     67                     68                     69
                      A                      A                      A
 Frequencies --   1380.4757              1384.7744              1400.7365
 Red. masses --      1.4451                 1.8661                 1.2869
 Frc consts  --      1.6226                 2.1084                 1.4877
 IR Inten    --     18.7423                21.6456                 4.0552

                     70                     71                     72
                      A                      A                      A
 Frequencies --   1415.8644              1422.6730              1439.1007
 Red. masses --      1.3198                 1.3282                 1.3857
 Frc consts  --      1.5588                 1.5839                 1.6908
 IR Inten    --     11.1439                 0.4725                14.7021

                     73                     74                     75
                      A                      A                      A
 Frequencies --   1448.0599              1455.8959              1502.9582
 Red. masses --      1.2438                 1.2289                 1.1624
 Frc consts  --      1.5367                 1.5347                 1.5470
 IR Inten    --     13.6359                 5.1800                 2.9868

                     76                     77                     78
                      A                      A                      A
 Frequencies --   1507.1198              1509.3992              1514.6468
 Red. masses --      1.0769                 1.0823                 1.0477
 Frc consts  --      1.4412                 1.4528                 1.4162
 IR Inten    --      4.5004                 2.6530                 5.1202

                     79                     80                     81
                      A                      A                      A
 Frequencies --   1521.8235              1523.3081              1531.1761
 Red. masses --      1.0723                 1.0830                 1.0655
 Frc consts  --      1.4632                 1.4807                 1.4718
 IR Inten    --      2.9468                 6.6787                 7.0761

                     82                     83                     84
                      A                      A                      A
 Frequencies --   1533.3264              1538.2386              1541.0768
 Red. masses --      1.0553                 1.0752                 1.0454
 Frc consts  --      1.4619                 1.4990                 1.4628
 IR Inten    --     12.8640                 6.5918                 8.3880

                     85                     86                     87
                      A                      A                      A
 Frequencies --   1552.0869              1555.6297              1556.7578
 Red. masses --      1.0638                 1.0737                 1.0724
 Frc consts  --      1.5099                 1.5308                 1.5312
 IR Inten    --      3.4585                 2.5644                 3.1560

                     88                     89                     90
                      A                      A                      A
 Frequencies --   1824.9022              2958.8725              2991.7504
 Red. masses --      9.8029                 1.0580                 1.0594
 Frc consts  --     19.2346                 5.4576                 5.5867
 IR Inten    --    225.0860                39.7037                62.9574

                     91                     92                     93
                      A                      A                      A
 Frequencies --   2995.9868              3013.5434              3016.7143
 Red. masses --      1.0778                 1.0729                 1.0764
 Frc consts  --      5.6997                 5.7408                 5.7715
 IR Inten    --     91.2833                37.2938                66.3056

                     94                     95                     96
                      A                      A                      A
 Frequencies --   3036.7592              3042.9647              3043.5952
 Red. masses --      1.1051                 1.0660                 1.0432
 Frc consts  --      6.0045                 5.8158                 5.6935
 IR Inten    --     60.5543                33.1712                26.6178

                     97                     98                     99
                      A                      A                      A
 Frequencies --   3060.1417              3074.8612              3077.2525
 Red. masses --      1.0428                 1.0671                 1.0792
 Frc consts  --      5.7533                 5.9445                 6.0209
 IR Inten    --     24.6184                26.7254                30.3217

                    100                    101                    102
                      A                      A                      A
 Frequencies --   3092.3034              3096.7008              3100.3475
 Red. masses --      1.0948                 1.0753                 1.0918
 Frc consts  --      6.1683                 6.0755                 6.1835
 IR Inten    --     13.9269                 1.0626                54.9927

                    103                    104                    105
                      A                      A                      A
 Frequencies --   3115.2984              3118.6288              3132.8388
 Red. masses --      1.0960                 1.1005                 1.0892
 Frc consts  --      6.2671                 6.3062                 6.2982
 IR Inten    --     40.4956                25.5191                11.3892

                    106                    107                    108
                      A                      A                      A
 Frequencies --   3139.8772              3142.7819              3151.7381
 Red. masses --      1.0969                 1.0919                 1.1042
 Frc consts  --      6.3713                 6.3544                 6.4625
 IR Inten    --     27.4380                35.6934                34.5183

                    109                    110                    111
                      A                      A                      A
 Frequencies --   3159.6293              3180.2889              3682.2410
 Red. masses --      1.0939                 1.0973                 1.0639
 Frc consts  --      6.4345                 6.5391                 8.4992
 IR Inten    --     13.7700                 0.9444                45.4602

 - Thermochemistry -
 -------------------
 Temperature   298.150 Kelvin.  Pressure   1.00000 Atm.
 Atom     1 has atomic number  6 and mass  12.00000

 Molecular mass:   229.16779 amu.
 Principal axes and moments of inertia in atomic units:
                           1         2         3
     Eigenvalues --  2139.236005355.263366253.13404
           X            0.99995   0.00893   0.00543
           Y           -0.00886   0.99987  -0.01325
           Z           -0.00554   0.01320   0.99990
 This molecule is an asymmetric top.
 Rotational symmetry number  1.
 Warning -- assumption of classical behavior for rotation
           may cause significant error
 Rotational temperatures (Kelvin)      0.04049     0.01617     0.01385
 Rotational constants (GHZ):           0.84364     0.33700     0.28861
 Zero-point vibrational energy     918186.7 (Joules/Mol)
                                  219.45189 (Kcal/Mol)
 Warning -- explicit consideration of  27 degrees of freedom as
           vibrations may cause significant error
 Vibrational temperatures:     47.18    55.86    87.07   114.74   119.51
          (Kelvin)            161.37   182.11   212.60   251.34   272.39
                              296.95   306.37   341.68   354.21   393.50
                              412.14   426.23   433.76   498.60   516.17
                              595.67   617.94   656.05   688.61   791.74
                              851.39   892.39   897.68   946.87  1062.51
                             1093.53  1111.94  1138.06  1194.18  1250.59
                             1296.87  1323.48  1330.15  1364.19  1400.81
                             1406.97  1417.66  1441.64  1471.81  1536.00
                             1568.62  1613.48  1633.17  1654.17  1662.78
                             1683.96  1696.38  1702.51  1721.12  1743.66
                             1753.20  1788.50  1802.96  1831.84  1835.52
                             1891.02  1915.95  1925.52  1935.79  1948.64
                             1962.87  1986.20  1992.38  2015.35  2037.11
                             2046.91  2070.54  2083.44  2094.71  2162.42
                             2168.41  2171.69  2179.24  2189.56  2191.70
                             2203.02  2206.11  2213.18  2217.27  2233.11
                             2238.20  2239.83  2625.63  4257.16  4304.46
                             4310.56  4335.82  4340.38  4369.22  4378.15
                             4379.05  4402.86  4424.04  4427.48  4449.13
                             4455.46  4460.71  4482.22  4487.01  4507.46
                             4517.58  4521.76  4534.65  4546.00  4575.73
                             5297.92

 Zero-point correction=                           0.349719 (Hartree/Particle)
 Thermal correction to Energy=                    0.367597
 Thermal correction to Enthalpy=                  0.368542
 Thermal correction to Gibbs Free Energy=         0.303787
 Sum of electronic and zero-point Energies=           -751.247571
 Sum of electronic and thermal Energies=              -751.229693
 Sum of electronic and thermal Enthalpies=            -751.228749
 Sum of electronic and thermal Free Energies=         -751.293503

                     E (Thermal)             CV                S
                      KCal/Mol        Cal/Mol-Kelvin    Cal/Mol-Kelvin
 Total                  230.671             66.787            136.287
 Electronic               0.000              0.000              0.000
 Translational            0.889              2.981             42.190
 Rotational               0.889              2.981             32.638
 Vibrational            228.893             60.825             61.459
 Vibration     1          0.594              1.983              5.653
 Vibration     2          0.594              1.981              5.318
 Vibration     3          0.597              1.973              4.440
 Vibration     4          0.600              1.963              3.897
 Vibration     5          0.600              1.961              3.817
 Vibration     6          0.607              1.939              3.231
 Vibration     7          0.611              1.927              2.998
 Vibration     8          0.617              1.905              2.701
 Vibration     9          0.627              1.874              2.384
 Vibration    10          0.633              1.855              2.234
 Vibration    11          0.641              1.831              2.075
 Vibration    12          0.644              1.821              2.018
 Vibration    13          0.656              1.783              1.822
 Vibration    14          0.661              1.769              1.758
 Vibration    15          0.676              1.722              1.574
 Vibration    16          0.684              1.699              1.495
 Vibration    17          0.690              1.681              1.438
 Vibration    18          0.693              1.671              1.409
 Vibration    19          0.725              1.582              1.182
 Vibration    20          0.734              1.557              1.127
 Vibration    21          0.778              1.440              0.913
 Vibration    22          0.791              1.406              0.860
 Vibration    23          0.814              1.348              0.778
 Vibration    24          0.835              1.298              0.714
 Vibration    25          0.906              1.139              0.544
 Vibration    26          0.949              1.049              0.464
 Vibration    27          0.980              0.989              0.416

 Optimization completed.
    -- Stationary point found.
 Normal termination of Gaussian 16 at Thu Dec 10 23:26:17 2020.

 ----------------------------------------------------------------------
 # B3LYP/6-311++G(d,p) empiricaldispersion=gd3bj scf=xqc pop=npa geom=c
 heck
 ----------------------------------------------------------------------

 ---------------------------------------
 CID_116503357_JID_6471_Energie_neutraal
 ---------------------------------------
 Structure from the checkpoint file:  "JID_6471.chk"
 Charge =  0 Multiplicity = 1

 SCF Done:  E(RB3LYP) =  -751.820479844     A.U. after   15 cycles
 Normal termination of Gaussian 16 at Thu Dec 10 23:33:11 2020.

 ----------------------------------------------------------------------
 # B3LYP/6-311++G(d,p) empiricaldispersion=gd3bj scf=xqc pop=npa geom=c
 heck
 ----------------------------------------------------------------------

 -------------------------------------
 CID_116503357_JID_6471_Energie_kation
 -------------------------------------
 Structure from the checkpoint file:  "JID_6471.chk"
 Charge =  1 Multiplicity = 2

 SCF Done:  E(UB3LYP) =  -751.547115442     A.U. after   20 cycles
 Normal termination of Gaussian 16 at Thu Dec 10 23:45:41 2020.
 Gaussian 16:  ES64L-G16RevA.03 25-Dec-2016

 ----------------------------------------------------------------------
 # B3LYP/6-311++G(d,p) empiricaldispersion=gd3bj scf=xqc pop=npa geom=c
 heck
 ----------------------------------------------------------------------

 ------------------------------------
 CID_116503357_JID_6471_Energie_anion
 ------------------------------------
 Structure from the checkpoint file:  "JID_6471.chk"
 Charge = -1 Multiplicity = 2

                         Standard orientation:
 ---------------------------------------------------------------------
 Center     Atomic      Atomic             Coordinates (Angstroms)
 Number     Number       Type             X           Y           Z
 ---------------------------------------------------------------------
      1          6           0       -0.360859   -1.982712    1.446317
      2          6           0        0.791447   -1.824379    0.449004
      3          6           0        1.382823   -0.412837    0.200569
      4          6           0        1.578638    0.481964    1.447080
      5          6           0        1.787782    1.892448    0.849659
      6          6           0        1.336675    1.749453   -0.636903
      7          7           0        0.682635    0.445576   -0.766211
      8          6           0       -0.759564    0.397381   -0.934378
      9          6           0       -1.714310    1.000217    0.135102
     10          6           0       -1.726421    2.534028    0.187812
     11          6           0       -3.138602    0.519841   -0.153091
     12          8           0       -3.194044   -0.893472   -0.086070
     13          6           0       -4.477349   -1.407057   -0.364500
     14          6           0        2.782502   -0.694087   -0.398474
     15          8           0        3.840958   -0.538575    0.173805
     16          8           0        2.716344   -1.193390   -1.654334
     17          1           0       -0.115144   -1.549762    2.421511
     18          1           0       -0.541031   -3.052229    1.606092
     19          1           0       -1.297801   -1.549787    1.094985
     20          1           0        1.622896   -2.442363    0.811870
     21          1           0        0.512743   -2.243460   -0.523927
     22          1           0        0.667633    0.451899    2.049547
     23          1           0        2.414894    0.154560    2.067382
     24          1           0        1.199854    2.642851    1.387191
     25          1           0        2.836833    2.194915    0.906848
     26          1           0        0.676269    2.547542   -0.978121
     27          1           0        2.222615    1.770055   -1.287755
     28          1           0       -0.987379    0.894950   -1.888992
     29          1           0       -1.037368   -0.649549   -1.071611
     30          1           0       -1.435357    0.619106    1.123706
     31          1           0       -1.905377    2.961426   -0.807175
     32          1           0       -2.522455    2.893860    0.851143
     33          1           0       -0.786242    2.940050    0.564519
     34          1           0       -3.840973    0.957965    0.576045
     35          1           0       -3.455689    0.862412   -1.155170
     36          1           0       -5.226630   -1.038585    0.354342
     37          1           0       -4.809692   -1.136658   -1.379415
     38          1           0       -4.414319   -2.495305   -0.287489
     39          1           0        3.640632   -1.374994   -1.908444
 ---------------------------------------------------------------------

 SCF Done:  E(UB3LYP) =  -751.806098508     A.U. after   33 cycles
 SCF Done:  E(UB3LYP) =  -751.806098508     a.u. after    1 cycles

 The electronic state is 2-A.
 Alpha  occ. eigenvalues --  -19.07546 -19.03182 -19.02550 -14.20702 -10.21100
 Alpha  occ. eigenvalues --  -10.13020 -10.11870 -10.11397 -10.09949 -10.09546
 Alpha  occ. eigenvalues --  -10.08558 -10.07975 -10.07670 -10.07496 -10.06858
 Alpha  occ. eigenvalues --  -10.06466  -1.01876  -0.94567  -0.92843  -0.84511
 Alpha  occ. eigenvalues --   -0.71975  -0.69759  -0.67762  -0.62926  -0.61445
 Alpha  occ. eigenvalues --   -0.59988  -0.55590  -0.54461  -0.52738  -0.49817
 Alpha  occ. eigenvalues --   -0.48495  -0.45604  -0.41071  -0.40833  -0.40163
 Alpha  occ. eigenvalues --   -0.39478  -0.38898  -0.37111  -0.36524  -0.35813
 Alpha  occ. eigenvalues --   -0.34819  -0.34343  -0.33399  -0.32350  -0.32113
 Alpha  occ. eigenvalues --   -0.31219  -0.30033  -0.29302  -0.28805  -0.28012
 Alpha  occ. eigenvalues --   -0.26856  -0.26249  -0.25861  -0.24847  -0.24562
 Alpha  occ. eigenvalues --   -0.24230  -0.23800  -0.23323  -0.23028  -0.22246
 Alpha  occ. eigenvalues --   -0.19233  -0.16865  -0.11421   0.04252
 Alpha virt. eigenvalues --    0.05633   0.06549   0.07025   0.07930   0.08241
 Alpha virt. eigenvalues --    0.08794   0.09041   0.09441   0.09843   0.10479
 Alpha virt. eigenvalues --    0.11079   0.11121   0.11260   0.12533   0.12605

  Beta  occ. eigenvalues --  -19.07509 -19.03172 -19.02541 -14.20702 -10.21099
  Beta  occ. eigenvalues --  -10.13014 -10.11844 -10.11352 -10.09939 -10.09537
  Beta  occ. eigenvalues --  -10.08549 -10.07969 -10.07663 -10.07492 -10.06831
  Beta  occ. eigenvalues --  -10.06458  -1.01829  -0.94547  -0.92803  -0.84503
  Beta  occ. eigenvalues --   -0.71956  -0.69741  -0.67746  -0.62902  -0.61391
  Beta  occ. eigenvalues --   -0.59961  -0.55539  -0.54386  -0.52691  -0.49781
  Beta  occ. eigenvalues --   -0.48457  -0.45567  -0.41048  -0.40812  -0.40142
  Beta  occ. eigenvalues --   -0.39427  -0.38876  -0.37080  -0.36491  -0.35797
  Beta  occ. eigenvalues --   -0.34793  -0.34319  -0.33379  -0.32320  -0.32086
  Beta  occ. eigenvalues --   -0.31189  -0.30006  -0.29271  -0.28783  -0.27995
  Beta  occ. eigenvalues --   -0.26835  -0.26222  -0.25845  -0.24830  -0.24540
  Beta  occ. eigenvalues --   -0.24198  -0.23781  -0.23303  -0.23008  -0.22190
  Beta  occ. eigenvalues --   -0.19205  -0.16840  -0.11412
  Beta virt. eigenvalues --    0.06329   0.06828   0.07078   0.07338   0.08410
  Beta virt. eigenvalues --    0.08626   0.08953   0.09369   0.09745   0.10000
  Beta virt. eigenvalues --    0.10694   0.11314   0.11424   0.11730   0.12608

 Mulliken charges and spin densities:
               1          2
     1  C   -0.255721  -0.325057
     2  C   -0.743907   0.376378
     3  C   -0.430472   0.119054
     4  C   -0.071225  -0.282471
     5  C   -0.240378  -0.346560
     6  C   -0.042657  -0.027047
     7  N    0.474013   0.032977
     8  C    0.531341  -1.136909
     9  C   -0.877407   1.475599
    10  C    0.381452  -1.029923
    11  C   -0.158670  -0.435968
    12  O   -0.185447   0.075543
    13  C    1.049969  -1.353686
    14  C    0.488264  -0.611890
    15  O   -0.216726   0.019571
    16  O   -0.140245   0.076620
    17  H    0.001704   0.131172
    18  H   -0.056084   0.201787
    19  H    0.128359   0.101194
    20  H    0.125729   0.075124
    21  H    0.096017   0.098290
    22  H    0.202076  -0.109543
    23  H    0.171122   0.060583
    24  H   -0.016369   0.157704
    25  H    0.123638   0.026823
    26  H    0.077792   0.103255
    27  H   -0.069262   0.259033
    28  H   -0.090347   0.254518
    29  H    0.264340  -0.106116
    30  H    0.132812   0.055495
    31  H   -0.157277   0.325495
    32  H   -0.380583   0.523461
    33  H    0.110805  -0.018006
    34  H   -0.040584   0.189078
    35  H    0.122355   0.033444
    36  H   -0.490649   0.636567
    37  H   -0.392592   0.527169
    38  H   -0.182160   0.317404
    39  H   -0.243027   0.529839
 Sum of Mulliken charges =  -1.00000   1.00000

 Dipole moment (field-independent basis, Debye):
    X=              4.6626    Y=              1.0971    Z=              2.0174  Tot=              5.1975
 Quadrupole moment (field-independent basis, Debye-Ang):
   XX=           -203.6482   YY=           -142.7051   ZZ=           -136.6050
   XY=              2.3982   XZ=              5.8287   YZ=             -3.2463

 Summary of Natural Population Analysis:

                                       Natural Population
                Natural  -----------------------------------------------
    Atom  No    Charge         Core      Valence    Rydberg      Total
 -----------------------------------------------------------------------
      C    1   -0.29367      0.99965     2.28830    0.00572     3.29367
      C    2   -0.19391      0.99959     2.18560    0.00872     3.19391
      C    3    0.03814      0.99950     1.94683    0.01553     2.96186
      C    4   -0.20077      0.99960     2.19291    0.00826     3.20077
      C    5   -0.20148      0.99964     2.19527    0.00657     3.20148
      C    6   -0.08975      0.99963     2.08035    0.00977     3.08975
      N    7   -0.28214      0.99969     2.76828    0.01417     3.78214
      C    8   -0.08193      0.99958     2.06944    0.01291     3.08193
      C    9   -0.13648      0.99959     2.12683    0.01006     3.13648
      C   10   -0.28694      0.99964     2.28119    0.00611     3.28694
      C   11   -0.00327      0.99955     1.99113    0.01259     3.00327
      O   12   -0.30165      0.99988     3.29205    0.00973     4.30165
      C   13   -0.09536      0.99962     2.08674    0.00900     3.09536
      C   14    0.41346      0.99963     1.55778    0.02913     2.58654
      O   15   -0.31372      0.99987     3.30747    0.00638     4.31372
      O   16   -0.33779      0.99987     3.33040    0.00752     4.33779
      H   17    0.09380      0.00000     0.40527    0.00094     0.40620
      H   18    0.09996      0.00000     0.39931    0.00073     0.40004
      H   19    0.11288      0.00000     0.38515    0.00197     0.38712
      H   20    0.10086      0.00000     0.39812    0.00102     0.39914
      H   21    0.10877      0.00000     0.38987    0.00135     0.39123
      H   22    0.09971      0.00000     0.39891    0.00138     0.40029
      H   23    0.11010      0.00000     0.38882    0.00107     0.38990
      H   24    0.09659      0.00000     0.40225    0.00116     0.40341
      H   25    0.10067      0.00000     0.39812    0.00120     0.39933
      H   26    0.10127      0.00000     0.39766    0.00107     0.39873
      H   27    0.09125      0.00000     0.40758    0.00117     0.40875
      H   28    0.09417      0.00000     0.40463    0.00120     0.40583
      H   29    0.10721      0.00000     0.39076    0.00204     0.39279
      H   30    0.09681      0.00000     0.40047    0.00272     0.40319
      H   31    0.09752      0.00000     0.40142    0.00106     0.40248
      H   32    0.10194      0.00000     0.39694    0.00112     0.39806
      H   33    0.09992      0.00000     0.39898    0.00111     0.40008
      H   34    0.08405      0.00000     0.41417    0.00178     0.41595
      H   35    0.07885      0.00000     0.41948    0.00167     0.42115
      H   36    0.08038      0.00000     0.41743    0.00220     0.41962
      H   37    0.07950      0.00000     0.41872    0.00177     0.42050
      H   38    0.09073      0.00000     0.40801    0.00126     0.40927
      H   39    0.24033      0.00000     0.25040    0.00928     0.25967
 =======================================================================
   * Total *    0.00000     15.99451    46.79304    0.21244    63.00000

 Normal termination of Gaussian 16 at Fri Dec 11 00:07:03 2020.
