 Gaussian 16, Revision A.03,

 -----------------------------------------------------------
 # opt freq B3LYP/6-31G(d) empiricaldispersion=gd3bj scf=xqc
 -----------------------------------------------------------

 ----------------------------
 CID_79479573_JID_16_neutraal
 ----------------------------
 Symbolic Z-matrix:
 Charge =  0 Multiplicity = 1

 SCF Done:  E(RB3LYP) =  -461.064667128     A.U. after   13 cycles
 SCF Done:  E(RB3LYP) =  -461.068086068     A.U. after   11 cycles
 SCF Done:  E(RB3LYP) =  -461.066590405     A.U. after   11 cycles
 SCF Done:  E(RB3LYP) =  -461.068904016     A.U. after   11 cycles
 SCF Done:  E(RB3LYP) =  -461.069580165     A.U. after   10 cycles
 SCF Done:  E(RB3LYP) =  -461.069822111     A.U. after   13 cycles
 SCF Done:  E(RB3LYP) =  -461.070532770     A.U. after   10 cycles
 SCF Done:  E(RB3LYP) =  -461.070779043     A.U. after   11 cycles
 SCF Done:  E(RB3LYP) =  -461.070845183     A.U. after   10 cycles
 SCF Done:  E(RB3LYP) =  -461.070886067     A.U. after   10 cycles
 SCF Done:  E(RB3LYP) =  -461.070899934     A.U. after    9 cycles
 SCF Done:  E(RB3LYP) =  -461.070902403     A.U. after    8 cycles
 SCF Done:  E(RB3LYP) =  -461.070902707     A.U. after    7 cycles
 SCF Done:  E(RB3LYP) =  -461.070902792     A.U. after    7 cycles
 Optimization completed.
    -- Stationary point found.
 Normal termination of Gaussian 16 at Tue Dec  8 10:17:23 2020.

 --------------------------------------------------------------------
 #N Geom=AllCheck Guess=TCheck SCRF=Check GenChk RB3LYP/6-31G(d) Freq
 --------------------------------------------------------------------

 Structure from the checkpoint file:  "JID_16.chk"
 ----------------------------
 CID_79479573_JID_16_neutraal
 ----------------------------
 Charge =  0 Multiplicity = 1

 SCF Done:  E(RB3LYP) =  -461.070902792     A.U. after    1 cycles

  Exact polarizability: 100.119   0.633  89.959   0.438   1.929  79.777
 Approx polarizability: 122.410   1.991 121.972  -0.631   1.756 117.418

                      1                      2                      3
                      A                      A                      A
 Frequencies --     49.5413                63.4803                76.2878
 Red. masses --      3.3991                 2.8789                 2.9533
 Frc consts  --      0.0049                 0.0068                 0.0101
 IR Inten    --      0.8427                 1.7962                 0.5189

                      4                      5                      6
                      A                      A                      A
 Frequencies --     89.1478               136.6427               181.6940
 Red. masses --      3.2100                 3.2328                 3.3457
 Frc consts  --      0.0150                 0.0356                 0.0651
 IR Inten    --      0.0399                 0.5497                 6.4968

                      7                      8                      9
                      A                      A                      A
 Frequencies --    242.0533               277.2204               298.1276
 Red. masses --      2.2908                 1.7682                 2.5940
 Frc consts  --      0.0791                 0.0801                 0.1358
 IR Inten    --      2.6670                20.2777                 0.4873

                     10                     11                     12
                      A                      A                      A
 Frequencies --    322.0966               404.8038               422.2258
 Red. masses --      1.4894                 2.6402                 1.9514
 Frc consts  --      0.0910                 0.2549                 0.2050
 IR Inten    --     50.0079                 2.7878                 5.2200

                     13                     14                     15
                      A                      A                      A
 Frequencies --    461.8566               514.0621               536.4810
 Red. masses --      2.2001                 2.1680                 2.0384
 Frc consts  --      0.2765                 0.3376                 0.3457
 IR Inten    --      6.0321                 6.4963                27.7323

                     16                     17                     18
                      A                      A                      A
 Frequencies --    755.6880               794.0617               805.1893
 Red. masses --      1.5251                 1.3514                 2.3604
 Frc consts  --      0.5131                 0.5020                 0.9017
 IR Inten    --     31.0642                39.9125                14.2749

                     19                     20                     21
                      A                      A                      A
 Frequencies --    826.1097               847.5856               878.3733
 Red. masses --      1.5774                 1.3526                 1.9345
 Frc consts  --      0.6343                 0.5725                 0.8794
 IR Inten    --      4.3344                11.6337                69.6540

                     22                     23                     24
                      A                      A                      A
 Frequencies --    892.3755               920.0420               938.1947
 Red. masses --      2.1226                 1.5578                 2.1891
 Frc consts  --      0.9959                 0.7769                 1.1353
 IR Inten    --     20.4340                69.3475                27.2416

                     25                     26                     27
                      A                      A                      A
 Frequencies --    972.4074               996.6212              1012.4326
 Red. masses --      2.5588                 2.0262                 2.1949
 Frc consts  --      1.4255                 1.1857                 1.3255
 IR Inten    --     19.1632                15.4171                 7.1333

                     28                     29                     30
                      A                      A                      A
 Frequencies --   1063.0679              1083.2665              1089.8860
 Red. masses --      1.3485                 1.4211                 1.9681
 Frc consts  --      0.8979                 0.9825                 1.3774
 IR Inten    --     12.5544                 9.1620                45.5878

                     31                     32                     33
                      A                      A                      A
 Frequencies --   1110.9153              1134.8811              1146.6504
 Red. masses --      1.8511                 2.9531                 1.2538
 Frc consts  --      1.3460                 2.2409                 0.9712
 IR Inten    --      8.6039                59.8240                 5.5033

                     34                     35                     36
                      A                      A                      A
 Frequencies --   1163.1913              1167.0078              1199.7071
 Red. masses --      2.4341                 2.1707                 1.5059
 Frc consts  --      1.9404                 1.7418                 1.2771
 IR Inten    --     24.5201                 3.6677                 3.6865

                     37                     38                     39
                      A                      A                      A
 Frequencies --   1203.7802              1211.8412              1254.9927
 Red. masses --      1.6195                 1.4149                 1.7041
 Frc consts  --      1.3827                 1.2243                 1.5813
 IR Inten    --      6.4221                 0.6181                 1.5692

                     40                     41                     42
                      A                      A                      A
 Frequencies --   1294.6991              1317.7773              1342.4655
 Red. masses --      1.2400                 1.2677                 1.1710
 Frc consts  --      1.2247                 1.2970                 1.2434
 IR Inten    --     16.1798                 6.8792                 9.3798

                     43                     44                     45
                      A                      A                      A
 Frequencies --   1361.9044              1397.3007              1403.6185
 Red. masses --      1.1656                 1.3575                 1.2706
 Frc consts  --      1.2738                 1.5616                 1.4749
 IR Inten    --      2.0433                41.1084                32.6711

                     46                     47                     48
                      A                      A                      A
 Frequencies --   1434.6161              1442.2553              1450.9826
 Red. masses --      1.3123                 1.3378                 1.4600
 Frc consts  --      1.5913                 1.6396                 1.8111
 IR Inten    --      5.0787                 3.3977                 9.7039

                     49                     50                     51
                      A                      A                      A
 Frequencies --   1482.8256              1498.5743              1509.0438
 Red. masses --      1.1080                 1.2920                 1.1047
 Frc consts  --      1.4354                 1.7095                 1.4822
 IR Inten    --      0.9423                 2.7477                 2.9191

                     52                     53                     54
                      A                      A                      A
 Frequencies --   1518.1231              1528.1722              1536.0008
 Red. masses --      1.0996                 1.1402                 1.3337
 Frc consts  --      1.4932                 1.5689                 1.8539
 IR Inten    --      2.2118                 2.0240                 7.8163

                     55                     56                     57
                      A                      A                      A
 Frequencies --   1542.5476              1688.9535              2935.3731
 Red. masses --      1.0936                 1.0871                 1.0728
 Frc consts  --      1.5332                 1.8270                 5.4464
 IR Inten    --      8.0974                33.9664                86.7017

                     58                     59                     60
                      A                      A                      A
 Frequencies --   2941.5771              3042.3639              3047.9709
 Red. masses --      1.0736                 1.0600                 1.0855
 Frc consts  --      5.4736                 5.7809                 5.9416
 IR Inten    --    100.4083                32.4435                73.6729

                     61                     62                     63
                      A                      A                      A
 Frequencies --   3053.1750              3077.5853              3084.9586
 Red. masses --      1.0837                 1.0603                 1.0992
 Frc consts  --      5.9520                 5.9171                 6.1632
 IR Inten    --     29.7501                42.0130                25.8504

                     64                     65                     66
                      A                      A                      A
 Frequencies --   3098.1914              3128.3944              3153.2305
 Red. masses --      1.0946                 1.1098                 1.0518
 Frc consts  --      6.1904                 6.3993                 6.1618
 IR Inten    --     51.3122                21.1382                17.0923

                     67                     68                     69
                      A                      A                      A
 Frequencies --   3159.2865              3233.3917              3248.2562
 Red. masses --      1.0586                 1.1192                 1.1158
 Frc consts  --      6.2253                 6.8939                 6.9361
 IR Inten    --      8.3210                 2.1790                18.8108

                     70                     71                     72
                      A                      A                      A
 Frequencies --   3471.1287              3496.3609              3557.3411
 Red. masses --      1.0493                 1.0746                 1.0924
 Frc consts  --      7.4492                 7.7395                 8.1450
 IR Inten    --      4.3756                 0.3228                 0.1891

 - Thermochemistry -
 -------------------
 Temperature   298.150 Kelvin.  Pressure   1.00000 Atm.
 Atom     1 has atomic number  6 and mass  12.00000

 Molecular mass:   144.12626 amu.
 Principal axes and moments of inertia in atomic units:
                           1         2         3
     Eigenvalues --   897.116412466.077722995.23518
           X            0.99997  -0.00734   0.00324
           Y            0.00732   0.99995   0.00652
           Z           -0.00328  -0.00650   0.99997
 This molecule is an asymmetric top.
 Rotational symmetry number  1.
 Warning -- assumption of classical behavior for rotation
           may cause significant error
 Rotational temperatures (Kelvin)      0.09655     0.03512     0.02892
 Rotational constants (GHZ):           2.01171     0.73183     0.60254
 Zero-point vibrational energy     622192.3 (Joules/Mol)
                                  148.70754 (Kcal/Mol)
 Warning -- explicit consideration of  15 degrees of freedom as
           vibrations may cause significant error
 Vibrational temperatures:     71.28    91.33   109.76   128.26   196.60
          (Kelvin)            261.42   348.26   398.86   428.94   463.43
                              582.42   607.49   664.51   739.62   771.88
                             1087.27  1142.48  1158.49  1188.59  1219.49
                             1263.78  1283.93  1323.74  1349.85  1399.08
                             1433.92  1456.66  1529.52  1558.58  1568.10
                             1598.36  1632.84  1649.77  1673.57  1679.06
                             1726.11  1731.97  1743.57  1805.65  1862.78
                             1895.99  1931.51  1959.48  2010.40  2019.49
                             2064.09  2075.08  2087.64  2133.46  2156.11
                             2171.18  2184.24  2198.70  2209.96  2219.38
                             2430.03  4223.35  4232.27  4377.28  4385.35
                             4392.84  4427.96  4438.57  4457.61  4501.06
                             4536.80  4545.51  4652.13  4673.52  4994.18
                             5030.48  5118.22

 Zero-point correction=                           0.236981 (Hartree/Particle)
 Thermal correction to Energy=                    0.248339
 Thermal correction to Enthalpy=                  0.249283
 Thermal correction to Gibbs Free Energy=         0.199075
 Sum of electronic and zero-point Energies=           -460.833922
 Sum of electronic and thermal Energies=              -460.822564
 Sum of electronic and thermal Enthalpies=            -460.821620
 Sum of electronic and thermal Free Energies=         -460.871828

                     E (Thermal)             CV                S
                      KCal/Mol        Cal/Mol-Kelvin    Cal/Mol-Kelvin
 Total                  155.835             41.805            105.672
 Electronic               0.000              0.000              0.000
 Translational            0.889              2.981             40.808
 Rotational               0.889              2.981             30.273
 Vibrational            154.058             35.844             34.592
 Vibration     1          0.595              1.978              4.836
 Vibration     2          0.597              1.972              4.346
 Vibration     3          0.599              1.965              3.984
 Vibration     4          0.602              1.957              3.679
 Vibration     5          0.614              1.917              2.850
 Vibration     6          0.630              1.865              2.311
 Vibration     7          0.658              1.776              1.788
 Vibration     8          0.678              1.716              1.551
 Vibration     9          0.691              1.677              1.427
 Vibration    10          0.707              1.631              1.299
 Vibration    11          0.770              1.460              0.945
 Vibration    12          0.785              1.422              0.884
 Vibration    13          0.820              1.335              0.761
 Vibration    14          0.869              1.219              0.624
 Vibration    15          0.891              1.169              0.573

 Optimization completed.
    -- Stationary point found.
 Normal termination of Gaussian 16 at Tue Dec  8 10:21:55 2020.

 ----------------------------------------------------------------------
 # B3LYP/6-311++G(d,p) empiricaldispersion=gd3bj scf=xqc pop=npa geom=c
 heck
 ----------------------------------------------------------------------

 ------------------------------------
 CID_79479573_JID_16_Energie_neutraal
 ------------------------------------
 Structure from the checkpoint file:  "JID_16.chk"
 Charge =  0 Multiplicity = 1

 SCF Done:  E(RB3LYP) =  -461.217153199     A.U. after   13 cycles
 Normal termination of Gaussian 16 at Tue Dec  8 10:23:35 2020.

 ----------------------------------------------------------------------
 # B3LYP/6-311++G(d,p) empiricaldispersion=gd3bj scf=xqc pop=npa geom=c
 heck
 ----------------------------------------------------------------------

 ----------------------------------
 CID_79479573_JID_16_Energie_kation
 ----------------------------------
 Structure from the checkpoint file:  "JID_16.chk"
 Charge =  1 Multiplicity = 2

 SCF Done:  E(UB3LYP) =  -460.921029864     A.U. after   20 cycles
 Normal termination of Gaussian 16 at Tue Dec  8 10:26:56 2020.
 Gaussian 16:  ES64L-G16RevA.03 25-Dec-2016

 ----------------------------------------------------------------------
 # B3LYP/6-311++G(d,p) empiricaldispersion=gd3bj scf=xqc pop=npa geom=c
 heck
 ----------------------------------------------------------------------

 ---------------------------------
 CID_79479573_JID_16_Energie_anion
 ---------------------------------
 Structure from the checkpoint file:  "JID_16.chk"
 Charge = -1 Multiplicity = 2

                         Standard orientation:
 ---------------------------------------------------------------------
 Center     Atomic      Atomic             Coordinates (Angstroms)
 Number     Number       Type             X           Y           Z
 ---------------------------------------------------------------------
      1          6           0       -2.916299   -1.362249   -0.377898
      2          6           0       -1.852534   -1.397321    0.691972
      3          6           0       -2.410117   -0.076783    0.216086
      4          7           0       -1.592376    0.765428   -0.617235
      5          6           0       -0.861765    1.804171    0.117377
      6          6           0        0.441870    1.309030    0.745722
      7          8           0        1.496830    1.156241   -0.192637
      8          6           0        1.517834   -0.081379   -0.913275
      9          6           0        2.157310   -1.195476   -0.092325
     10          7           0        3.534546   -0.825374    0.234497
     11          1           0       -3.922008   -1.686171   -0.126955
     12          1           0       -2.605406   -1.583926   -1.394508
     13          1           0       -2.125953   -1.740748    1.685662
     14          1           0       -0.844581   -1.652366    0.383103
     15          1           0       -3.080612    0.434534    0.917086
     16          1           0       -2.180043    1.202458   -1.323529
     17          1           0       -0.605695    2.604930   -0.584591
     18          1           0       -1.482147    2.252026    0.918059
     19          1           0        0.790546    2.065982    1.457904
     20          1           0        0.263793    0.383828    1.309822
     21          1           0        0.508688   -0.350821   -1.239312
     22          1           0        2.140077    0.111667   -1.792730
     23          1           0        1.524965   -1.405836    0.791040
     24          1           0        2.162911   -2.112025   -0.697338
     25          1           0        3.914528   -1.456946    0.936518
     26          1           0        3.513314    0.103137    0.654085
 ---------------------------------------------------------------------

 SCF Done:  E(UB3LYP) =  -461.199896199     A.U. after   28 cycles

 The electronic state is 2-A.
 Alpha  occ. eigenvalues --  -19.01782 -14.20002 -14.18721 -10.10787 -10.10484
 Alpha  occ. eigenvalues --  -10.09756 -10.08900 -10.08847 -10.06906 -10.06697
 Alpha  occ. eigenvalues --   -0.92764  -0.81726  -0.77801  -0.73229  -0.64653
 Alpha  occ. eigenvalues --   -0.60164  -0.52921  -0.50257  -0.48561  -0.46487
 Alpha  occ. eigenvalues --   -0.40785  -0.40377  -0.39704  -0.38063  -0.36837
 Alpha  occ. eigenvalues --   -0.36362  -0.32896  -0.31705  -0.29696  -0.29072
 Alpha  occ. eigenvalues --   -0.28138  -0.26655  -0.26090  -0.25611  -0.21705
 Alpha  occ. eigenvalues --   -0.19675  -0.19036  -0.16727  -0.14131  -0.12448
 Alpha  occ. eigenvalues --    0.04748
 Alpha virt. eigenvalues --    0.06568   0.07474   0.07819   0.09042   0.09524
 Alpha virt. eigenvalues --    0.09915   0.10461   0.10837   0.12125   0.12623
 Alpha virt. eigenvalues --    0.13289   0.13417   0.14460   0.14589   0.15667

  Beta  occ. eigenvalues --  -19.01780 -14.19977 -14.18690 -10.10772 -10.10482
  Beta  occ. eigenvalues --  -10.09736 -10.08886 -10.08823 -10.06888 -10.06680
  Beta  occ. eigenvalues --   -0.92758  -0.81691  -0.77750  -0.73193  -0.64616
  Beta  occ. eigenvalues --   -0.60118  -0.52873  -0.50201  -0.48513  -0.46423
  Beta  occ. eigenvalues --   -0.40733  -0.40344  -0.39656  -0.38019  -0.36786
  Beta  occ. eigenvalues --   -0.36318  -0.32855  -0.31667  -0.29653  -0.29042
  Beta  occ. eigenvalues --   -0.28111  -0.26625  -0.26067  -0.25570  -0.21684
  Beta  occ. eigenvalues --   -0.19651  -0.19006  -0.16703  -0.14095  -0.12385
  Beta virt. eigenvalues --    0.07166   0.07750   0.08187   0.08439   0.09565
  Beta virt. eigenvalues --    0.10090   0.10454   0.10780   0.11257   0.12592
  Beta virt. eigenvalues --    0.13097   0.13726   0.13875   0.14564   0.14853

 Mulliken charges and spin densities:
               1          2
     1  C    1.407922  -1.776979
     2  C    0.190555  -0.479481
     3  C   -1.123312   0.933593
     4  N   -0.216611   0.097085
     5  C    0.941531  -1.195817
     6  C   -0.425497   0.144187
     7  O   -0.131072   0.026861
     8  C   -0.155890  -0.246537
     9  C    0.651386  -0.954012
    10  N   -0.468287   0.137795
    11  H   -0.268637   0.418127
    12  H   -0.021982   0.135992
    13  H   -0.574060   0.744381
    14  H    0.598438  -0.477795
    15  H   -0.536291   0.721664
    16  H   -0.016561   0.275747
    17  H   -0.147451   0.324588
    18  H   -0.330499   0.435803
    19  H   -0.431142   0.596175
    20  H    0.144903  -0.019997
    21  H    0.395184  -0.187260
    22  H    0.141355   0.011100
    23  H   -0.425188   0.543489
    24  H   -0.070812   0.206695
    25  H   -0.200046   0.429956
    26  H    0.072063   0.154639
 Sum of Mulliken charges =  -1.00000   1.00000

 Dipole moment (field-independent basis, Debye):
    X=              1.2712    Y=             -0.3349    Z=             -3.8279  Tot=              4.0473
 Quadrupole moment (field-independent basis, Debye-Ang):
   XX=           -139.3112   YY=           -102.9764   ZZ=            -96.9399
   XY=              3.3235   XZ=              3.6547   YZ=              2.6382

 Summary of Natural Population Analysis:

                                       Natural Population
                Natural  -----------------------------------------------
    Atom  No    Charge         Core      Valence    Rydberg      Total
 -----------------------------------------------------------------------
      C    1   -0.20020      0.99961     2.19077    0.00981     3.20020
      C    2   -0.20307      0.99961     2.19317    0.01028     3.20307
      C    3   -0.02079      0.99957     2.00698    0.01424     3.02079
      N    4   -0.34364      0.99972     2.83007    0.01386     3.84364
      C    5   -0.09796      0.99961     2.08656    0.01178     3.09796
      C    6   -0.01565      0.99956     2.00255    0.01354     3.01565
      O    7   -0.30857      0.99989     3.29894    0.00974     4.30857
      C    8   -0.01938      0.99956     2.00865    0.01118     3.01938
      C    9   -0.10509      0.99964     2.09432    0.01113     3.10509
      N   10   -0.42648      0.99977     2.91575    0.01096     3.92648
      H   11    0.10399      0.00000     0.39473    0.00128     0.39601
      H   12    0.10211      0.00000     0.39678    0.00111     0.39789
      H   13    0.10400      0.00000     0.39433    0.00167     0.39600
      H   14    0.10240      0.00000     0.39584    0.00176     0.39760
      H   15    0.09106      0.00000     0.40532    0.00363     0.40894
      H   16    0.17767      0.00000     0.31932    0.00301     0.32233
      H   17    0.09634      0.00000     0.40240    0.00126     0.40366
      H   18    0.08393      0.00000     0.41365    0.00241     0.41607
      H   19    0.08969      0.00000     0.40885    0.00146     0.41031
      H   20    0.08360      0.00000     0.41435    0.00205     0.41640
      H   21    0.09655      0.00000     0.40172    0.00173     0.40345
      H   22    0.08794      0.00000     0.41075    0.00131     0.41206
      H   23    0.07963      0.00000     0.41806    0.00231     0.42037
      H   24    0.08873      0.00000     0.41008    0.00119     0.41127
      H   25    0.17506      0.00000     0.32242    0.00252     0.32494
      H   26    0.17811      0.00000     0.31947    0.00242     0.32189
 =======================================================================
   * Total *   -0.00000      9.99655    29.85582    0.14763    40.00000

 Normal termination of Gaussian 16 at Tue Dec  8 10:31:17 2020.
