 Gaussian 16, Revision A.03,

 -----------------------------------------------------------
 # opt freq B3LYP/6-31G(d) empiricaldispersion=gd3bj scf=xqc
 -----------------------------------------------------------

 -------------------------------
 CID_149375773_JID_4329_neutraal
 -------------------------------
 Symbolic Z-matrix:
 Charge =  0 Multiplicity = 1

 SCF Done:  E(RB3LYP) =  -561.555447665     A.U. after   14 cycles
 SCF Done:  E(RB3LYP) =  -561.559838129     A.U. after   12 cycles
 SCF Done:  E(RB3LYP) =  -561.561218716     A.U. after   13 cycles
 SCF Done:  E(RB3LYP) =  -561.562416680     A.U. after   11 cycles
 SCF Done:  E(RB3LYP) =  -561.563473188     A.U. after   12 cycles
 SCF Done:  E(RB3LYP) =  -561.563814938     A.U. after   12 cycles
 SCF Done:  E(RB3LYP) =  -561.563879903     A.U. after   12 cycles
 SCF Done:  E(RB3LYP) =  -561.563968031     A.U. after   11 cycles
 SCF Done:  E(RB3LYP) =  -561.563993646     A.U. after   10 cycles
 SCF Done:  E(RB3LYP) =  -561.563919436     A.U. after   12 cycles
 SCF Done:  E(RB3LYP) =  -561.567853650     A.U. after    9 cycles
 SCF Done:  E(RB3LYP) =  -561.567859081     A.U. after    9 cycles
 SCF Done:  E(RB3LYP) =  -561.567859555     A.U. after    8 cycles
 SCF Done:  E(RB3LYP) =  -561.567859720     A.U. after    7 cycles
 SCF Done:  E(RB3LYP) =  -561.567859768     A.U. after    7 cycles
 Optimization completed.
    -- Stationary point found.
 Normal termination of Gaussian 16 at Thu Dec 10 09:39:45 2020.

 --------------------------------------------------------------------
 #N Geom=AllCheck Guess=TCheck SCRF=Check GenChk RB3LYP/6-31G(d) Freq
 --------------------------------------------------------------------

 Structure from the checkpoint file:  "JID_4329.chk"
 -------------------------------
 CID_149375773_JID_4329_neutraal
 -------------------------------
 Charge =  0 Multiplicity = 1

 SCF Done:  E(RB3LYP) =  -561.567859768     A.U. after    1 cycles

  Exact polarizability: 174.023  30.304 145.456  12.204  -4.806 123.114
 Approx polarizability: 234.772  59.004 223.479  23.126  -7.575 195.914

                      1                      2                      3
                      A                      A                      A
 Frequencies --     36.3208                50.8109                55.9313
 Red. masses --      3.2900                 2.9559                 3.1969
 Frc consts  --      0.0026                 0.0045                 0.0059
 IR Inten    --      0.0343                 0.2403                 0.5072

                      4                      5                      6
                      A                      A                      A
 Frequencies --     78.7852                97.5843               129.3882
 Red. masses --      2.0201                 3.4988                 3.4508
 Frc consts  --      0.0074                 0.0196                 0.0340
 IR Inten    --      0.4345                 1.2102                 0.1056

                      7                      8                      9
                      A                      A                      A
 Frequencies --    170.9282               218.3337               238.3360
 Red. masses --      3.1462                 3.1229                 1.2317
 Frc consts  --      0.0542                 0.0877                 0.0412
 IR Inten    --      0.5534                 0.7490                 0.3012

                     10                     11                     12
                      A                      A                      A
 Frequencies --    240.7490               273.1653               291.7300
 Red. masses --      1.0968                 2.2402                 2.7584
 Frc consts  --      0.0375                 0.0985                 0.1383
 IR Inten    --      0.0671                 1.2432                 0.2250

                     13                     14                     15
                      A                      A                      A
 Frequencies --    310.3680               329.8985               380.8245
 Red. masses --      2.6433                 2.8086                 3.3317
 Frc consts  --      0.1500                 0.1801                 0.2847
 IR Inten    --      5.0741                 1.6574                12.7494

                     16                     17                     18
                      A                      A                      A
 Frequencies --    384.1173               400.8287               443.3790
 Red. masses --      2.4098                 2.3294                 1.9797
 Frc consts  --      0.2095                 0.2205                 0.2293
 IR Inten    --      9.0730                43.7958                 7.0004

                     19                     20                     21
                      A                      A                      A
 Frequencies --    468.6086               533.0174               588.2113
 Red. masses --      1.7602                 2.9535                 4.4555
 Frc consts  --      0.2277                 0.4944                 0.9083
 IR Inten    --     20.2562                11.3143                 1.2767

                     22                     23                     24
                      A                      A                      A
 Frequencies --    616.1022               632.0271               678.5579
 Red. masses --      2.1091                 2.5333                 2.1600
 Frc consts  --      0.4717                 0.5962                 0.5860
 IR Inten    --     16.0047                 6.2647                10.2183

                     25                     26                     27
                      A                      A                      A
 Frequencies --    713.2781               756.1487               763.9611
 Red. masses --      1.4497                 1.6470                 2.4740
 Frc consts  --      0.4345                 0.5548                 0.8507
 IR Inten    --     12.5206                 4.2500                 5.2632

                     28                     29                     30
                      A                      A                      A
 Frequencies --    780.7800               786.8719               817.5562
 Red. masses --      1.5850                 1.7365                 1.6328
 Frc consts  --      0.5693                 0.6335                 0.6430
 IR Inten    --     28.2351                 5.0853                64.0812

                     31                     32                     33
                      A                      A                      A
 Frequencies --    819.4071               833.2281               848.0752
 Red. masses --      1.3479                 2.8995                 2.3851
 Frc consts  --      0.5332                 1.1861                 1.0107
 IR Inten    --      7.9347                 1.8928                 0.5935

                     34                     35                     36
                      A                      A                      A
 Frequencies --    898.8747               935.3110               949.7459
 Red. masses --      1.5963                 1.9041                 1.7647
 Frc consts  --      0.7599                 0.9814                 0.9379
 IR Inten    --      5.3186                 7.0795                 2.0077

                     37                     38                     39
                      A                      A                      A
 Frequencies --    968.8155               979.5454              1003.9244
 Red. masses --      1.7174                 1.5898                 1.4902
 Frc consts  --      0.9498                 0.8988                 0.8849
 IR Inten    --      2.5205                 1.6755                 1.1972

                     40                     41                     42
                      A                      A                      A
 Frequencies --   1010.7870              1042.7792              1069.6529
 Red. masses --      1.4477                 2.4646                 1.5746
 Frc consts  --      0.8714                 1.5790                 1.0615
 IR Inten    --      2.2492                 2.2065                 5.4918

                     43                     44                     45
                      A                      A                      A
 Frequencies --   1085.2484              1104.3270              1121.1657
 Red. masses --      2.1011                 1.6878                 2.3336
 Frc consts  --      1.4580                 1.2127                 1.7283
 IR Inten    --      4.2376                 4.4714                 2.7921

                     46                     47                     48
                      A                      A                      A
 Frequencies --   1139.3602              1165.4786              1208.3846
 Red. masses --      1.6883                 1.5237                 1.1814
 Frc consts  --      1.2913                 1.2194                 1.0164
 IR Inten    --      2.0907                 2.0336                 2.6694

                     49                     50                     51
                      A                      A                      A
 Frequencies --   1233.7852              1274.2891              1294.4904
 Red. masses --      1.3814                 1.5467                 1.3214
 Frc consts  --      1.2389                 1.4797                 1.3047
 IR Inten    --     30.1253                 5.8201                28.1819

                     52                     53                     54
                      A                      A                      A
 Frequencies --   1308.4223              1320.2932              1336.2424
 Red. masses --      1.2667                 1.3042                 1.5338
 Frc consts  --      1.2776                 1.3395                 1.6135
 IR Inten    --     26.1618                 7.8530                39.8121

                     55                     56                     57
                      A                      A                      A
 Frequencies --   1358.8034              1371.3799              1385.2198
 Red. masses --      1.3292                 1.7844                 1.6534
 Frc consts  --      1.4459                 1.9772                 1.8692
 IR Inten    --      5.2818                34.5767                38.0655

                     58                     59                     60
                      A                      A                      A
 Frequencies --   1395.4953              1418.0998              1436.5079
 Red. masses --      1.9478                 1.5242                 1.2697
 Frc consts  --      2.2349                 1.8059                 1.5437
 IR Inten    --      1.9245                29.3782                 7.9951

                     61                     62                     63
                      A                      A                      A
 Frequencies --   1437.0179              1457.6508              1467.5993
 Red. masses --      1.2481                 1.8934                 1.6889
 Frc consts  --      1.5186                 2.3703                 2.1433
 IR Inten    --      1.8346                61.5319                 1.5716

                     64                     65                     66
                      A                      A                      A
 Frequencies --   1503.3945              1505.8387              1516.0167
 Red. masses --      1.0772                 1.0998                 1.2979
 Frc consts  --      1.4345                 1.4693                 1.7575
 IR Inten    --      6.8571                 1.1952                 4.6669

                     67                     68                     69
                      A                      A                      A
 Frequencies --   1527.7443              1529.0640              1530.9970
 Red. masses --      1.0469                 1.0438                 1.0573
 Frc consts  --      1.4396                 1.4379                 1.4602
 IR Inten    --      4.8204                 5.0155                 2.6855

                     70                     71                     72
                      A                      A                      A
 Frequencies --   1535.6340              1661.7675              1671.4587
 Red. masses --      1.0595                 7.2813                 4.4925
 Frc consts  --      1.4720                11.8468                 7.3948
 IR Inten    --      4.0877                13.5818               123.1095

                     73                     74                     75
                      A                      A                      A
 Frequencies --   1727.1286              1730.0639              2952.3017
 Red. masses --      6.6467                 6.1145                 1.0757
 Frc consts  --     11.6817                10.7829                 5.5241
 IR Inten    --     12.4244                95.1325                10.5183

                     76                     77                     78
                      A                      A                      A
 Frequencies --   2966.4395              3023.2102              3042.6717
 Red. masses --      1.0776                 1.0726                 1.0352
 Frc consts  --      5.5870                 5.7757                 5.6465
 IR Inten    --     82.2032                19.2638                40.1861

                     79                     80                     81
                      A                      A                      A
 Frequencies --   3044.6730              3072.9263              3104.8981
 Red. masses --      1.0357                 1.0879                 1.0997
 Frc consts  --      5.6565                 6.0524                 6.2463
 IR Inten    --     39.5797                32.4640                23.4617

                     82                     83                     84
                      A                      A                      A
 Frequencies --   3108.6982              3113.5915              3119.0302
 Red. masses --      1.1024                 1.1025                 1.1025
 Frc consts  --      6.2768                 6.2970                 6.3192
 IR Inten    --     33.6167                30.8632                31.6371

                     85                     86                     87
                      A                      A                      A
 Frequencies --   3125.8341              3146.9017              3169.9598
 Red. masses --      1.0859                 1.0900                 1.0863
 Frc consts  --      6.2515                 6.3597                 6.4313
 IR Inten    --      7.9047                19.6313                17.9956

                     88                     89                     90
                      A                      A                      A
 Frequencies --   3170.7196              3173.5396              3175.7021
 Red. masses --      1.0881                 1.0899                 1.0652
 Frc consts  --      6.4451                 6.4673                 6.3295
 IR Inten    --     31.9308                11.9923                 4.1455

                     91                     92                     93
                      A                      A                      A
 Frequencies --   3218.2765              3260.8251              3602.2353
 Red. masses --      1.0937                 1.1155                 1.0754
 Frc consts  --      6.6741                 6.9886                 8.2219
 IR Inten    --     10.2646                13.0735                 9.3311

 - Thermochemistry -
 -------------------
 Temperature   298.150 Kelvin.  Pressure   1.00000 Atm.
 Atom     1 has atomic number  6 and mass  12.00000

 Molecular mass:   189.15175 amu.
 Principal axes and moments of inertia in atomic units:
                           1         2         3
     Eigenvalues --  1923.760893953.999864807.78596
           X            0.99999  -0.00330  -0.00185
           Y            0.00332   0.99997   0.00755
           Z            0.00183  -0.00756   0.99997
 This molecule is an asymmetric top.
 Rotational symmetry number  1.
 Warning -- assumption of classical behavior for rotation
           may cause significant error
 Rotational temperatures (Kelvin)      0.04502     0.02191     0.01802
 Rotational constants (GHZ):           0.93813     0.45643     0.37538
 Zero-point vibrational energy     765475.7 (Joules/Mol)
                                  182.95309 (Kcal/Mol)
 Warning -- explicit consideration of  22 degrees of freedom as
           vibrations may cause significant error
 Vibrational temperatures:     52.26    73.11    80.47   113.35   140.40
          (Kelvin)            186.16   245.93   314.13   342.91   346.38
                              393.02   419.73   446.55   474.65   547.92
                              552.66   576.70   637.92   674.22   766.89
                              846.30   886.43   909.35   976.29  1026.25
                             1087.93  1099.17  1123.37  1132.13  1176.28
                             1178.94  1198.83  1220.19  1293.28  1345.70
                             1366.47  1393.91  1409.35  1444.42  1454.30
                             1500.33  1538.99  1561.43  1588.88  1613.11
                             1639.29  1676.86  1738.60  1775.14  1833.42
                             1862.48  1882.53  1899.61  1922.55  1955.01
                             1973.11  1993.02  2007.81  2040.33  2066.81
                             2067.55  2097.23  2111.55  2163.05  2166.57
                             2181.21  2198.08  2199.98  2202.76  2209.43
                             2390.91  2404.86  2484.95  2489.18  4247.70
                             4268.04  4349.73  4377.73  4380.61  4421.26
                             4467.26  4472.72  4479.76  4487.59  4497.38
                             4527.69  4560.87  4561.96  4566.02  4569.13
                             4630.38  4691.60  5182.81

 Zero-point correction=                           0.291554 (Hartree/Particle)
 Thermal correction to Energy=                    0.306584
 Thermal correction to Enthalpy=                  0.307528
 Thermal correction to Gibbs Free Energy=         0.249151
 Sum of electronic and zero-point Energies=           -561.276305
 Sum of electronic and thermal Energies=              -561.261276
 Sum of electronic and thermal Enthalpies=            -561.260332
 Sum of electronic and thermal Free Energies=         -561.318708

                     E (Thermal)             CV                S
                      KCal/Mol        Cal/Mol-Kelvin    Cal/Mol-Kelvin
 Total                  192.384             57.475            122.864
 Electronic               0.000              0.000              0.000
 Translational            0.889              2.981             41.618
 Rotational               0.889              2.981             31.970
 Vibrational            190.607             51.513             49.277
 Vibration     1          0.594              1.982              5.450
 Vibration     2          0.595              1.977              4.786
 Vibration     3          0.596              1.975              4.596
 Vibration     4          0.600              1.963              3.921
 Vibration     5          0.603              1.951              3.502
 Vibration     6          0.612              1.924              2.955
 Vibration     7          0.626              1.878              2.425
 Vibration     8          0.646              1.813              1.973
 Vibration     9          0.656              1.782              1.815
 Vibration    10          0.658              1.778              1.797
 Vibration    11          0.676              1.723              1.576
 Vibration    12          0.687              1.689              1.464
 Vibration    13          0.699              1.654              1.360
 Vibration    14          0.713              1.616              1.261
 Vibration    15          0.751              1.511              1.036
 Vibration    16          0.753              1.504              1.023
 Vibration    17          0.767              1.468              0.960
 Vibration    18          0.803              1.375              0.816
 Vibration    19          0.826              1.320              0.741
 Vibration    20          0.888              1.177              0.581
 Vibration    21          0.945              1.057              0.470
 Vibration    22          0.976              0.998              0.423

                           ! Non-Optimized Parameters !
 Normal termination of Gaussian 16 at Thu Dec 10 09:50:40 2020.

 ----------------------------------------------------------------------
 # B3LYP/6-311++G(d,p) empiricaldispersion=gd3bj scf=xqc pop=npa geom=c
 heck
 ----------------------------------------------------------------------

 ---------------------------------------
 CID_149375773_JID_4329_Energie_neutraal
 ---------------------------------------
 Structure from the checkpoint file:  "JID_4329.chk"
 Charge =  0 Multiplicity = 1

 SCF Done:  E(RB3LYP) =  -561.724156451     A.U. after   16 cycles
 Normal termination of Gaussian 16 at Thu Dec 10 09:56:27 2020.

 ----------------------------------------------------------------------
 # B3LYP/6-311++G(d,p) empiricaldispersion=gd3bj scf=xqc pop=npa geom=c
 heck
 ----------------------------------------------------------------------

 -------------------------------------
 CID_149375773_JID_4329_Energie_kation
 -------------------------------------
 Structure from the checkpoint file:  "JID_4329.chk"
 Charge =  1 Multiplicity = 2

 SCF Done:  E(UB3LYP) =  -561.473785341     A.U. after   21 cycles
 Normal termination of Gaussian 16 at Thu Dec 10 10:07:15 2020.
 Gaussian 16:  ES64L-G16RevA.03 25-Dec-2016

 ----------------------------------------------------------------------
 # B3LYP/6-311++G(d,p) empiricaldispersion=gd3bj scf=xqc pop=npa geom=c
 heck
 ----------------------------------------------------------------------

 ------------------------------------
 CID_149375773_JID_4329_Energie_anion
 ------------------------------------
 Structure from the checkpoint file:  "JID_4329.chk"
 Charge = -1 Multiplicity = 2

                         Standard orientation:
 ---------------------------------------------------------------------
 Center     Atomic      Atomic             Coordinates (Angstroms)
 Number     Number       Type             X           Y           Z
 ---------------------------------------------------------------------
      1          6           0        1.934134   -3.183214   -0.688541
      2          6           0        1.294627   -1.838723   -0.314017
      3          6           0        2.023724   -1.177569    0.821262
      4          6           0        2.391063    0.105035    0.978560
      5          6           0        2.163948    1.265141    0.097719
      6          6           0        3.028696    2.301680    0.108159
      7          7           0        1.083440    1.246449   -0.798614
      8          6           0       -0.246361    0.907559   -0.486844
      9          6           0       -1.171442    0.735021   -1.455195
     10          6           0       -2.611357    0.471743   -1.092223
     11          6           0       -2.729423   -0.361354    0.193989
     12          6           0       -1.813807    0.214298    1.252923
     13          6           0       -0.649031    0.790223    0.922834
     14          6           0       -4.179321   -0.468948    0.674297
     15          1           0        2.967030   -3.045990   -1.027873
     16          1           0        1.374604   -3.671211   -1.494056
     17          1           0        1.954020   -3.867674    0.168432
     18          1           0        1.261950   -1.180804   -1.183912
     19          1           0        0.248821   -2.007500   -0.016435
     20          1           0        2.315059   -1.858194    1.623285
     21          1           0        2.968516    0.350737    1.867548
     22          1           0        2.876760    3.179053   -0.513833
     23          1           0        3.933959    2.263603    0.702984
     24          1           0        1.184310    1.869597   -1.588065
     25          1           0       -0.899454    0.853519   -2.501706
     26          1           0       -3.123048   -0.046318   -1.911783
     27          1           0       -3.150021    1.426376   -0.948291
     28          1           0       -2.367313   -1.380002   -0.034829
     29          1           0       -2.105025    0.122500    2.297392
     30          1           0        0.018098    1.185017    1.681207
     31          1           0       -4.814945   -0.927092   -0.091818
     32          1           0       -4.252519   -1.079156    1.582122
     33          1           0       -4.587586    0.523047    0.902381
 ---------------------------------------------------------------------

 SCF Done:  E(UB3LYP) =  -561.714709065     A.U. after   33 cycles
 SCF Done:  E(UB3LYP) =  -561.714709065     a.u. after    1 cycles

 The electronic state is 2-A.
 Alpha  occ. eigenvalues --  -14.20184 -10.08228 -10.07200 -10.05759 -10.05216
 Alpha  occ. eigenvalues --  -10.05121 -10.04693 -10.04630 -10.04449 -10.04278
 Alpha  occ. eigenvalues --  -10.03781 -10.03696 -10.02076 -10.01928  -0.81459
 Alpha  occ. eigenvalues --   -0.71597  -0.68322  -0.65616  -0.62845  -0.61299
 Alpha  occ. eigenvalues --   -0.59519  -0.54881  -0.51522  -0.48995  -0.46843
 Alpha  occ. eigenvalues --   -0.46159  -0.42034  -0.39154  -0.37611  -0.36128
 Alpha  occ. eigenvalues --   -0.34185  -0.33083  -0.32097  -0.31594  -0.30868
 Alpha  occ. eigenvalues --   -0.29549  -0.28438  -0.27892  -0.27187  -0.26538
 Alpha  occ. eigenvalues --   -0.25889  -0.25367  -0.23555  -0.23454  -0.22467
 Alpha  occ. eigenvalues --   -0.21486  -0.20719  -0.19446  -0.18361  -0.13012
 Alpha  occ. eigenvalues --   -0.10587  -0.06393   0.05026
 Alpha virt. eigenvalues --    0.07331   0.07666   0.08393   0.08826   0.09407
 Alpha virt. eigenvalues --    0.09901   0.10190   0.10336   0.10824   0.11332
 Alpha virt. eigenvalues --    0.12002   0.12166   0.12587   0.12877   0.13395

  Beta  occ. eigenvalues --  -14.20218 -10.08136 -10.07187 -10.05762 -10.05192
  Beta  occ. eigenvalues --  -10.05101 -10.04706 -10.04631 -10.04448 -10.04092
  Beta  occ. eigenvalues --  -10.03699 -10.03593 -10.01964 -10.01714  -0.81396
  Beta  occ. eigenvalues --   -0.71433  -0.68132  -0.65470  -0.62742  -0.61040
  Beta  occ. eigenvalues --   -0.59349  -0.54762  -0.51385  -0.48797  -0.46700
  Beta  occ. eigenvalues --   -0.45831  -0.41902  -0.39027  -0.37445  -0.36011
  Beta  occ. eigenvalues --   -0.34082  -0.32973  -0.32020  -0.31501  -0.30761
  Beta  occ. eigenvalues --   -0.29455  -0.28338  -0.27776  -0.27086  -0.26444
  Beta  occ. eigenvalues --   -0.25796  -0.25234  -0.23386  -0.23365  -0.22343
  Beta  occ. eigenvalues --   -0.21371  -0.20575  -0.19293  -0.17854  -0.12578
  Beta  occ. eigenvalues --   -0.09812  -0.05598
  Beta virt. eigenvalues --    0.07347   0.07880   0.08520   0.08674   0.09321
  Beta virt. eigenvalues --    0.09960   0.10107   0.10251   0.10684   0.10964
  Beta virt. eigenvalues --    0.11431   0.12093   0.12233   0.12635   0.12865

 Mulliken charges and spin densities:
               1          2
     1  C   -0.163459  -0.455581
     2  C   -0.561399   0.218444
     3  C    0.209503   0.080191
     4  C   -0.097618  -0.285889
     5  C    0.434583  -0.051066
     6  C   -0.921469   0.346505
     7  N   -0.164773  -0.019091
     8  C    0.354881  -0.276059
     9  C   -0.945799   0.726895
    10  C    0.080697  -0.889885
    11  C   -0.385747   0.757841
    12  C   -0.436698   0.269656
    13  C    0.490148  -0.349066
    14  C    0.329144  -0.955514
    15  H    0.016186   0.115656
    16  H   -0.088357   0.217280
    17  H    0.038037   0.084439
    18  H    0.223198  -0.028371
    19  H    0.145444  -0.032400
    20  H    0.134556  -0.006970
    21  H    0.144171  -0.003547
    22  H    0.073618   0.008888
    23  H    0.091547   0.012808
    24  H    0.080403   0.204591
    25  H   -0.259385   0.400017
    26  H    0.032563   0.095932
    27  H    0.051611   0.065463
    28  H   -0.034732   0.176791
    29  H    0.109909   0.034169
    30  H    0.184705  -0.015522
    31  H   -0.245111   0.385865
    32  H    0.006582   0.115186
    33  H    0.073061   0.052344
 Sum of Mulliken charges =  -1.00000   1.00000

 Dipole moment (field-independent basis, Debye):
    X=              0.6398    Y=             -0.1544    Z=              2.1845  Tot=              2.2815
 Quadrupole moment (field-independent basis, Debye-Ang):
   XX=           -144.4186   YY=           -121.2065   ZZ=           -108.9281
   XY=             -4.4174   XZ=              0.0266   YZ=             -1.7777

 Summary of Natural Population Analysis:

                                       Natural Population
                Natural  -----------------------------------------------
    Atom  No    Charge         Core      Valence    Rydberg      Total
 -----------------------------------------------------------------------
      C    1   -0.27730      0.99967     2.27388    0.00375     3.27730
      C    2   -0.22062      0.99962     2.21243    0.00856     3.22062
      C    3   -0.03535      0.99954     2.02575    0.01005     3.03535
      C    4   -0.12564      0.99949     2.11605    0.01009     3.12564
      C    5    0.08641      0.99948     1.90178    0.01234     2.91359
      C    6   -0.22246      0.99955     2.21428    0.00863     3.22246
      N    7   -0.31675      0.99964     2.80637    0.01073     3.81675
      C    8    0.06719      0.99943     1.92160    0.01178     2.93281
      C    9   -0.08044      0.99950     2.07051    0.01043     3.08044
      C   10   -0.19568      0.99962     2.18679    0.00927     3.19568
      C   11   -0.12872      0.99960     2.11898    0.01014     3.12872
      C   12   -0.06817      0.99953     2.05918    0.00946     3.06817
      C   13   -0.10002      0.99950     2.09207    0.00845     3.10002
      C   14   -0.28018      0.99966     2.27442    0.00611     3.28018
      H   15    0.09462      0.00000     0.40437    0.00101     0.40538
      H   16    0.09635      0.00000     0.40263    0.00102     0.40365
      H   17    0.09038      0.00000     0.40856    0.00106     0.40962
      H   18    0.10876      0.00000     0.38931    0.00193     0.39124
      H   19    0.10557      0.00000     0.39254    0.00189     0.39443
      H   20    0.08357      0.00000     0.41538    0.00105     0.41643
      H   21    0.09348      0.00000     0.40531    0.00121     0.40652
      H   22    0.08826      0.00000     0.41088    0.00085     0.41174
      H   23    0.08960      0.00000     0.40959    0.00081     0.41040
      H   24    0.18929      0.00000     0.30798    0.00272     0.31071
      H   25    0.08995      0.00000     0.40897    0.00108     0.41005
      H   26    0.09922      0.00000     0.39925    0.00153     0.40078
      H   27    0.09266      0.00000     0.40609    0.00125     0.40734
      H   28    0.09627      0.00000     0.40117    0.00256     0.40373
      H   29    0.08974      0.00000     0.40929    0.00097     0.41026
      H   30    0.10287      0.00000     0.39599    0.00114     0.39713
      H   31    0.09753      0.00000     0.40143    0.00104     0.40247
      H   32    0.09487      0.00000     0.40434    0.00079     0.40513
      H   33    0.09473      0.00000     0.40410    0.00117     0.40527
 =======================================================================
   * Total *    0.00000     13.99382    37.85129    0.15489    52.00000

 Normal termination of Gaussian 16 at Thu Dec 10 10:24:16 2020.
