 Gaussian 16, Revision A.03,

 -----------------------------------------------------------
 # opt freq B3LYP/6-31G(d) empiricaldispersion=gd3bj scf=xqc
 -----------------------------------------------------------

 ------------------------------
 CID_61529457_JID_5876_neutraal
 ------------------------------
 Symbolic Z-matrix:
 Charge =  0 Multiplicity = 1

 SCF Done:  E(RB3LYP) =  -1066.34819891     A.U. after   15 cycles
 SCF Done:  E(RB3LYP) =  -1066.35257848     A.U. after   13 cycles
 SCF Done:  E(RB3LYP) =  -1066.35291196     A.U. after   13 cycles
 SCF Done:  E(RB3LYP) =  -1066.35337398     A.U. after   12 cycles
 SCF Done:  E(RB3LYP) =  -1066.35345768     A.U. after   12 cycles
 SCF Done:  E(RB3LYP) =  -1066.35351720     A.U. after   12 cycles
 SCF Done:  E(RB3LYP) =  -1066.35354820     A.U. after   11 cycles
 SCF Done:  E(RB3LYP) =  -1066.35356868     A.U. after   10 cycles
 SCF Done:  E(RB3LYP) =  -1066.35357632     A.U. after    9 cycles
 SCF Done:  E(RB3LYP) =  -1066.35357876     A.U. after    9 cycles
 SCF Done:  E(RB3LYP) =  -1066.35358025     A.U. after    9 cycles
 SCF Done:  E(RB3LYP) =  -1066.35358039     A.U. after    9 cycles
 SCF Done:  E(RB3LYP) =  -1066.35358054     A.U. after    9 cycles
 SCF Done:  E(RB3LYP) =  -1066.35358065     A.U. after    8 cycles
 SCF Done:  E(RB3LYP) =  -1066.35358071     A.U. after    7 cycles
 Optimization completed.
    -- Stationary point found.
 Normal termination of Gaussian 16 at Thu Dec 10 17:45:15 2020.

 --------------------------------------------------------------------
 #N Geom=AllCheck Guess=TCheck SCRF=Check GenChk RB3LYP/6-31G(d) Freq
 --------------------------------------------------------------------

 Structure from the checkpoint file:  "JID_5876.chk"
 ------------------------------
 CID_61529457_JID_5876_neutraal
 ------------------------------
 Charge =  0 Multiplicity = 1

 SCF Done:  E(RB3LYP) =  -1066.35358071     A.U. after    1 cycles

  Exact polarizability: 250.711  11.245 131.471  14.153  12.297  79.161
 Approx polarizability: 352.599  33.788 256.912  38.740  34.178 122.692

                      1                      2                      3
                      A                      A                      A
 Frequencies --     11.6613                33.5043                48.1137
 Red. masses --      2.8320                 4.9916                 5.6407
 Frc consts  --      0.0002                 0.0033                 0.0077
 IR Inten    --      0.1076                 0.4262                 0.8475

                      4                      5                      6
                      A                      A                      A
 Frequencies --     66.2703                70.6258                93.9964
 Red. masses --      7.7715                 6.8872                 5.1834
 Frc consts  --      0.0201                 0.0202                 0.0270
 IR Inten    --      0.2100                 0.1629                 3.3668

                      7                      8                      9
                      A                      A                      A
 Frequencies --    129.4416               145.0722               167.1774
 Red. masses --      5.0616                 3.1867                 6.1049
 Frc consts  --      0.0500                 0.0395                 0.1005
 IR Inten    --      2.1774                 1.8981                 2.6231

                     10                     11                     12
                      A                      A                      A
 Frequencies --    199.0625               228.8232               280.1732
 Red. masses --      5.2211                 1.5446                 2.1387
 Frc consts  --      0.1219                 0.0476                 0.0989
 IR Inten    --      0.1979                 0.2751                 0.4439

                     13                     14                     15
                      A                      A                      A
 Frequencies --    311.3392               350.8790               408.4232
 Red. masses --      6.6186                 4.3148                 3.3517
 Frc consts  --      0.3780                 0.3130                 0.3294
 IR Inten    --      2.3962                 1.0960                 7.5544

                     16                     17                     18
                      A                      A                      A
 Frequencies --    436.1081               479.6860               504.9743
 Red. masses --      3.4713                 4.4181                 5.8435
 Frc consts  --      0.3890                 0.5990                 0.8779
 IR Inten    --     13.9613                 0.7787                 5.1863

                     19                     20                     21
                      A                      A                      A
 Frequencies --    532.0557               574.4381               588.0996
 Red. masses --      4.5335                 1.9650                 2.4681
 Frc consts  --      0.7561                 0.3820                 0.5029
 IR Inten    --      7.4763                33.3286                50.7425

                     22                     23                     24
                      A                      A                      A
 Frequencies --    595.4604               625.1627               701.3567
 Red. masses --      2.4149                 3.7176                 3.3942
 Frc consts  --      0.5045                 0.8561                 0.9837
 IR Inten    --     26.7264               114.1911                26.6720

                     25                     26                     27
                      A                      A                      A
 Frequencies --    707.8772               711.8290               731.9518
 Red. masses --      5.2992                 2.6146                 3.9399
 Frc consts  --      1.5645                 0.7805                 1.2436
 IR Inten    --      0.0911                24.5411                22.2028

                     28                     29                     30
                      A                      A                      A
 Frequencies --    774.2309               790.6349               804.4673
 Red. masses --      4.4895                 2.2086                 1.5341
 Frc consts  --      1.5856                 0.8134                 0.5849
 IR Inten    --     17.9470                57.3547                39.0316

                     31                     32                     33
                      A                      A                      A
 Frequencies --    827.6679               887.4551               915.8180
 Red. masses --      1.4068                 2.0543                 1.4485
 Frc consts  --      0.5678                 0.9533                 0.7158
 IR Inten    --     34.7606                 6.1710                 6.0651

                     34                     35                     36
                      A                      A                      A
 Frequencies --    924.6183               928.1857              1012.2354
 Red. masses --      4.0583                 2.0006                 1.1276
 Frc consts  --      2.0442                 1.0155                 0.6807
 IR Inten    --     12.1109                 6.5345                27.6352

                     37                     38                     39
                      A                      A                      A
 Frequencies --   1016.7744              1081.8100              1111.0563
 Red. masses --      2.8067                 1.5821                 1.9767
 Frc consts  --      1.7096                 1.0909                 1.4377
 IR Inten    --      9.4232                22.6829                12.2228

                     40                     41                     42
                      A                      A                      A
 Frequencies --   1150.9520              1185.3036              1190.0952
 Red. masses --      2.3524                 2.3561                 1.9947
 Frc consts  --      1.8360                 1.9503                 1.6645
 IR Inten    --     43.9011               125.5294               334.1840

                     43                     44                     45
                      A                      A                      A
 Frequencies --   1237.9323              1261.7511              1294.4267
 Red. masses --      1.4499                 4.9767                 1.4307
 Frc consts  --      1.3092                 4.6681                 1.4123
 IR Inten    --     51.2662                69.1975                12.0012

                     46                     47                     48
                      A                      A                      A
 Frequencies --   1321.2095              1340.9216              1366.0514
 Red. masses --      1.4885                 1.4082                 2.0874
 Frc consts  --      1.5308                 1.4918                 2.2951
 IR Inten    --    157.0389                 6.4242               214.8524

                     49                     50                     51
                      A                      A                      A
 Frequencies --   1383.0910              1402.5670              1419.4318
 Red. masses --      1.9812                 2.8579                 1.7069
 Frc consts  --      2.2330                 3.3125                 2.0263
 IR Inten    --     58.1826               153.8205                94.0729

                     52                     53                     54
                      A                      A                      A
 Frequencies --   1440.4949              1489.4951              1508.1777
 Red. masses --      1.2557                 1.4871                 4.0029
 Frc consts  --      1.5352                 1.9438                 5.3645
 IR Inten    --      7.3411                52.9119                12.7376

                     55                     56                     57
                      A                      A                      A
 Frequencies --   1518.8126              1523.5946              1534.4361
 Red. masses --      1.1028                 1.0698                 1.1066
 Frc consts  --      1.4989                 1.4631                 1.5351
 IR Inten    --     24.1232                 1.2454                13.3604

                     58                     59                     60
                      A                      A                      A
 Frequencies --   1580.8037              1691.3692              1756.1714
 Red. masses --      5.1771                 5.9421                 8.0222
 Frc consts  --      7.6224                10.0153                14.5773
 IR Inten    --     13.7636               131.3936               251.6235

                     61                     62                     63
                      A                      A                      A
 Frequencies --   1818.0737              3050.7373              3078.3764
 Red. masses --      8.9972                 1.0351                 1.0727
 Frc consts  --     17.5218                 5.6759                 5.9893
 IR Inten    --    519.3961                17.5616                34.7964

                     64                     65                     66
                      A                      A                      A
 Frequencies --   3118.1721              3127.2940              3166.5236
 Red. masses --      1.1021                 1.1014                 1.0949
 Frc consts  --      6.3132                 6.3464                 6.4685
 IR Inten    --     15.2703                39.4827                24.8647

                     67                     68                     69
                      A                      A                      A
 Frequencies --   3194.0231              3215.2118              3220.3315
 Red. masses --      1.0904                 1.0895                 1.0905
 Frc consts  --      6.5541                 6.6361                 6.6630
 IR Inten    --      0.6548                 3.9535                 7.7130

                     70                     71                     72
                      A                      A                      A
 Frequencies --   3240.6823              3549.9570              3706.3283
 Red. masses --      1.0962                 1.0745                 1.0643
 Frc consts  --      6.7827                 7.9781                 8.6137
 IR Inten    --      4.3774                22.5437                88.7906

 - Thermochemistry -
 -------------------
 Temperature   298.150 Kelvin.  Pressure   1.00000 Atm.
 Atom     1 has atomic number  6 and mass  12.00000

 Molecular mass:   225.04597 amu.
 Principal axes and moments of inertia in atomic units:
                           1         2         3
     Eigenvalues --  1293.959198938.732389302.89873
           X            0.99991   0.00500  -0.01263
           Y           -0.00480   0.99986   0.01572
           Z            0.01271  -0.01565   0.99980
 This molecule is an asymmetric top.
 Rotational symmetry number  1.
 Warning -- assumption of classical behavior for rotation
           may cause significant error
 Rotational temperatures (Kelvin)      0.06694     0.00969     0.00931
 Rotational constants (GHZ):           1.39474     0.20190     0.19400
 Zero-point vibrational energy     525706.8 (Joules/Mol)
                                  125.64695 (Kcal/Mol)
 Warning -- explicit consideration of  22 degrees of freedom as
           vibrations may cause significant error
 Vibrational temperatures:     16.78    48.21    69.22    95.35   101.61
          (Kelvin)            135.24   186.24   208.73   240.53   286.41
                              329.23   403.11   447.95   504.84   587.63
                              627.46   690.16   726.55   765.51   826.49
                              846.14   856.73   899.47  1009.10  1018.48
                             1024.16  1053.12  1113.95  1137.55  1157.45
                             1190.83  1276.85  1317.66  1330.32  1335.45
                             1456.38  1462.91  1556.48  1598.56  1655.96
                             1705.39  1712.28  1781.11  1815.38  1862.39
                             1900.93  1929.29  1965.44  1989.96  2017.98
                             2042.25  2072.55  2143.05  2169.93  2185.23
                             2192.11  2207.71  2274.42  2433.50  2526.74
                             2615.80  4389.33  4429.10  4486.35  4499.48
                             4555.92  4595.49  4625.97  4633.34  4662.62
                             5107.60  5332.58

 Zero-point correction=                           0.200231 (Hartree/Particle)
 Thermal correction to Energy=                    0.215410
 Thermal correction to Enthalpy=                  0.216354
 Thermal correction to Gibbs Free Energy=         0.154389
 Sum of electronic and zero-point Energies=          -1066.153350
 Sum of electronic and thermal Energies=             -1066.138171
 Sum of electronic and thermal Enthalpies=           -1066.137227
 Sum of electronic and thermal Free Energies=        -1066.199192

                     E (Thermal)             CV                S
                      KCal/Mol        Cal/Mol-Kelvin    Cal/Mol-Kelvin
 Total                  135.172             54.318            130.416
 Electronic               0.000              0.000              0.000
 Translational            0.889              2.981             42.136
 Rotational               0.889              2.981             33.042
 Vibrational            133.394             48.356             55.238
 Vibration     1          0.593              1.987              7.706
 Vibration     2          0.594              1.983              5.610
 Vibration     3          0.595              1.978              4.893
 Vibration     4          0.598              1.970              4.261
 Vibration     5          0.598              1.968              4.136
 Vibration     6          0.603              1.953              3.575
 Vibration     7          0.612              1.924              2.954
 Vibration     8          0.616              1.908              2.736
 Vibration     9          0.624              1.883              2.467
 Vibration    10          0.637              1.841              2.142
 Vibration    11          0.651              1.797              1.888
 Vibration    12          0.680              1.710              1.533
 Vibration    13          0.700              1.652              1.355
 Vibration    14          0.728              1.573              1.162
 Vibration    15          0.773              1.452              0.932
 Vibration    16          0.797              1.392              0.839
 Vibration    17          0.836              1.295              0.711
 Vibration    18          0.860              1.239              0.646
 Vibration    19          0.887              1.179              0.583
 Vibration    20          0.931              1.087              0.496
 Vibration    21          0.945              1.057              0.471
 Vibration    22          0.953              1.041              0.458

 Optimization completed.
    -- Stationary point found.
 Normal termination of Gaussian 16 at Thu Dec 10 17:51:51 2020.

 ----------------------------------------------------------------------
 # B3LYP/6-311++G(d,p) empiricaldispersion=gd3bj scf=xqc pop=npa geom=c
 heck
 ----------------------------------------------------------------------

 --------------------------------------
 CID_61529457_JID_5876_Energie_neutraal
 --------------------------------------
 Structure from the checkpoint file:  "JID_5876.chk"
 Charge =  0 Multiplicity = 1

 SCF Done:  E(RB3LYP) =  -1066.58251262     A.U. after   16 cycles
 Normal termination of Gaussian 16 at Thu Dec 10 17:55:39 2020.

 ----------------------------------------------------------------------
 # B3LYP/6-311++G(d,p) empiricaldispersion=gd3bj scf=xqc pop=npa geom=c
 heck
 ----------------------------------------------------------------------

 ------------------------------------
 CID_61529457_JID_5876_Energie_kation
 ------------------------------------
 Structure from the checkpoint file:  "JID_5876.chk"
 Charge =  1 Multiplicity = 2

 SCF Done:  E(UB3LYP) =  -1066.27426652     A.U. after   33 cycles
 SCF Done:  E(UB3LYP) =  -1066.27426652     a.u. after    1 cycles
 Normal termination of Gaussian 16 at Thu Dec 10 18:05:38 2020.
 Gaussian 16:  ES64L-G16RevA.03 25-Dec-2016

 ----------------------------------------------------------------------
 # B3LYP/6-311++G(d,p) empiricaldispersion=gd3bj scf=xqc pop=npa geom=c
 heck
 ----------------------------------------------------------------------

 -----------------------------------
 CID_61529457_JID_5876_Energie_anion
 -----------------------------------
 Structure from the checkpoint file:  "JID_5876.chk"
 Charge = -1 Multiplicity = 2

                         Standard orientation:
 ---------------------------------------------------------------------
 Center     Atomic      Atomic             Coordinates (Angstroms)
 Number     Number       Type             X           Y           Z
 ---------------------------------------------------------------------
      1          6           0       -4.202439   -0.468967    2.047749
      2          6           0       -4.150585   -0.939170    0.592682
      3          7           0       -3.952541    0.160203   -0.357998
      4          6           0       -2.766731    0.834096   -0.562583
      5          8           0       -2.740267    2.037059   -0.803956
      6          6           0       -1.510897    0.041034   -0.544466
      7          6           0       -1.260378   -1.258303   -0.930819
      8          6           0        0.111092   -1.598340   -0.855883
      9          6           0        0.909675   -0.557589   -0.414423
     10         16           0       -0.044974    0.875261   -0.116189
     11          6           0        2.337666   -0.618045   -0.220110
     12          6           0        3.131228    0.378975    0.220176
     13          6           0        4.582805    0.246890    0.397364
     14          8           0        5.308365    1.137182    0.796262
     15          8           0        5.063605   -0.986288    0.070940
     16          1           0       -3.254410   -0.000722    2.333725
     17          1           0       -4.386001   -1.314431    2.720425
     18          1           0       -5.002257    0.265091    2.197748
     19          1           0       -3.346510   -1.663419    0.464766
     20          1           0       -5.082184   -1.444412    0.316050
     21          1           0       -4.723582    0.821127   -0.392609
     22          1           0       -2.031647   -1.929095   -1.289751
     23          1           0        0.512950   -2.571165   -1.118130
     24          1           0        2.793906   -1.575906   -0.458652
     25          1           0        2.741300    1.359160    0.476537
     26          1           0        6.023571   -0.938933    0.230800
 ---------------------------------------------------------------------

 SCF Done:  E(UB3LYP) =  -1066.62661611     A.U. after   20 cycles

 The electronic state is 2-A.
 Alpha  occ. eigenvalues --  -88.72937 -19.03563 -18.96302 -18.96265 -14.22085
 Alpha  occ. eigenvalues --  -10.15213 -10.14794 -10.11619 -10.08024 -10.06323
 Alpha  occ. eigenvalues --  -10.06003 -10.05038 -10.04124 -10.03949 -10.02198
 Alpha  occ. eigenvalues --   -7.81605  -5.77903  -5.77539  -5.77211  -0.97029
 Alpha  occ. eigenvalues --   -0.91657  -0.87668  -0.81170  -0.74890  -0.66514
 Alpha  occ. eigenvalues --   -0.66048  -0.60794  -0.59988  -0.54975  -0.52952
 Alpha  occ. eigenvalues --   -0.48836  -0.45001  -0.43142  -0.40499  -0.39225
 Alpha  occ. eigenvalues --   -0.38112  -0.35468  -0.35056  -0.33932  -0.33845
 Alpha  occ. eigenvalues --   -0.31660  -0.31361  -0.29893  -0.28940  -0.28310
 Alpha  occ. eigenvalues --   -0.27586  -0.26720  -0.26483  -0.25151  -0.24716
 Alpha  occ. eigenvalues --   -0.23356  -0.20392  -0.19551  -0.17104  -0.15627
 Alpha  occ. eigenvalues --   -0.14339  -0.13892  -0.12372  -0.09380   0.01308
 Alpha virt. eigenvalues --    0.06354   0.08470   0.08639   0.08892   0.09903
 Alpha virt. eigenvalues --    0.10090   0.11677   0.11967   0.12464   0.12950
 Alpha virt. eigenvalues --    0.13442   0.14663   0.14793   0.15010   0.15808

  Beta  occ. eigenvalues --  -88.72872 -19.03536 -18.96098 -18.96067 -14.22057
  Beta  occ. eigenvalues --  -10.15117 -10.14720 -10.11616 -10.08022 -10.06209
  Beta  occ. eigenvalues --  -10.05713 -10.05066 -10.04015 -10.03737 -10.01984
  Beta  occ. eigenvalues --   -7.81546  -5.77870  -5.77509  -5.77001  -0.96865
  Beta  occ. eigenvalues --   -0.91377  -0.87338  -0.81049  -0.74590  -0.66291
  Beta  occ. eigenvalues --   -0.65647  -0.60338  -0.59635  -0.54882  -0.52429
  Beta  occ. eigenvalues --   -0.48674  -0.44639  -0.42957  -0.40197  -0.39161
  Beta  occ. eigenvalues --   -0.37929  -0.35307  -0.34928  -0.33774  -0.33713
  Beta  occ. eigenvalues --   -0.31463  -0.30610  -0.29776  -0.28540  -0.28053
  Beta  occ. eigenvalues --   -0.27306  -0.26651  -0.26237  -0.24913  -0.23994
  Beta  occ. eigenvalues --   -0.23083  -0.20161  -0.18733  -0.15577  -0.15194
  Beta  occ. eigenvalues --   -0.14088  -0.13479  -0.11480  -0.07748
  Beta virt. eigenvalues --    0.06324   0.06501   0.08492   0.08671   0.08912
  Beta virt. eigenvalues --    0.09905   0.11436   0.11670   0.11955   0.12464
  Beta virt. eigenvalues --    0.13040   0.13453   0.14663   0.14959   0.15214

 Mulliken charges and spin densities:
               1          2
     1  C   -0.569574  -0.002305
     2  C   -0.044689   0.005482
     3  N   -0.166298   0.009319
     4  C   -0.170616   0.049201
     5  O   -0.381950   0.057150
     6  C    0.005987   0.151125
     7  C    0.210526   0.023467
     8  C    0.281948   0.107292
     9  C    0.085369   0.043013
    10  S   -0.818608   0.123064
    11  C   -0.417418   0.131899
    12  C   -0.087549   0.133382
    13  C   -0.052268   0.106595
    14  O   -0.396502   0.077469
    15  O   -0.227241   0.006701
    16  H    0.173708   0.002082
    17  H    0.119106   0.000184
    18  H    0.113089   0.000984
    19  H    0.090155   0.000968
    20  H    0.143038   0.003548
    21  H    0.264278   0.001502
    22  H    0.149652   0.001591
    23  H    0.114131  -0.004522
    24  H    0.167147  -0.013473
    25  H    0.157884  -0.015562
    26  H    0.256695  -0.000155
 Sum of Mulliken charges =  -1.00000   1.00000

 Dipole moment (field-independent basis, Debye):
    X=             -6.6109    Y=             -5.4817    Z=              1.1818  Tot=              8.6689
 Quadrupole moment (field-independent basis, Debye-Ang):
   XX=           -147.3583   YY=           -113.9101   ZZ=           -107.4371
   XY=             -3.0317   XZ=            -12.2133   YZ=              1.5782

 Summary of Natural Population Analysis:

                                       Natural Population
                Natural  -----------------------------------------------
    Atom  No    Charge         Core      Valence    Rydberg      Total
 -----------------------------------------------------------------------
      C    1   -0.29297      0.99967     2.28938    0.00392     3.29297
      C    2   -0.08937      0.99964     2.08116    0.00857     3.08937
      N    3   -0.32565      0.99968     2.81387    0.01210     3.82565
      C    4    0.33388      0.99959     1.64439    0.02214     2.66612
      O    5   -0.30679      0.99988     3.30052    0.00639     4.30679
      C    6   -0.09416      0.99946     2.08248    0.01222     3.09416
      C    7   -0.13555      0.99950     2.12662    0.00943     3.13555
      C    8   -0.10013      0.99949     2.09111    0.00953     3.10013
      C    9   -0.09113      0.99947     2.07932    0.01234     3.09113
      S   10    0.24755      4.99940     2.73227    0.02078     7.75245
      C   11   -0.04184      0.99951     2.03222    0.01011     3.04184
      C   12   -0.12004      0.99949     2.11131    0.00924     3.12004
      C   13    0.39136      0.99969     1.58403    0.02492     2.60864
      O   14   -0.30696      0.99987     3.29931    0.00778     4.30696
      O   15   -0.35847      0.99988     3.35252    0.00607     4.35847
      H   16    0.10615      0.00000     0.39284    0.00101     0.39385
      H   17    0.09445      0.00000     0.40462    0.00094     0.40555
      H   18    0.09269      0.00000     0.40633    0.00098     0.40731
      H   19    0.10447      0.00000     0.39406    0.00147     0.39553
      H   20    0.08558      0.00000     0.41326    0.00116     0.41442
      H   21    0.18195      0.00000     0.31580    0.00225     0.31805
      H   22    0.09940      0.00000     0.39950    0.00109     0.40060
      H   23    0.09672      0.00000     0.40217    0.00111     0.40328
      H   24    0.09858      0.00000     0.39975    0.00167     0.40142
      H   25    0.09912      0.00000     0.39988    0.00100     0.40088
      H   26    0.23116      0.00000     0.26555    0.00329     0.26884
 =======================================================================
   * Total *    0.00000     18.99422    39.81427    0.19150    59.00000

 Normal termination of Gaussian 16 at Thu Dec 10 18:11:02 2020.
