 Gaussian 16, Revision A.03,

 -----------------------------------------------------------
 # opt freq B3LYP/6-31G(d) empiricaldispersion=gd3bj scf=xqc
 -----------------------------------------------------------

 ------------------------------
 CID_79623090_JID_7299_neutraal
 ------------------------------
 Symbolic Z-matrix:
 Charge =  0 Multiplicity = 1

 SCF Done:  E(RB3LYP) =  -1150.95327045     A.U. after   14 cycles
 SCF Done:  E(RB3LYP) =  -1150.95782109     A.U. after   11 cycles
 SCF Done:  E(RB3LYP) =  -1150.95846262     A.U. after   12 cycles
 SCF Done:  E(RB3LYP) =  -1150.95870341     A.U. after   12 cycles
 SCF Done:  E(RB3LYP) =  -1150.95886222     A.U. after   10 cycles
 SCF Done:  E(RB3LYP) =  -1150.95898822     A.U. after   11 cycles
 SCF Done:  E(RB3LYP) =  -1150.95906508     A.U. after   11 cycles
 SCF Done:  E(RB3LYP) =  -1150.95911685     A.U. after   10 cycles
 SCF Done:  E(RB3LYP) =  -1150.95911920     A.U. after   11 cycles
 SCF Done:  E(RB3LYP) =  -1150.95914318     A.U. after   11 cycles
 SCF Done:  E(RB3LYP) =  -1150.96241980     A.U. after   10 cycles
 SCF Done:  E(RB3LYP) =  -1150.96241962     A.U. after    9 cycles
 SCF Done:  E(RB3LYP) =  -1150.96242067     A.U. after    9 cycles
 SCF Done:  E(RB3LYP) =  -1150.96242070     A.U. after    7 cycles
 SCF Done:  E(RB3LYP) =  -1150.96242082     A.U. after    8 cycles
 SCF Done:  E(RB3LYP) =  -1150.96242080     A.U. after    6 cycles
 Optimization completed.
    -- Stationary point found.
 Normal termination of Gaussian 16 at Fri Dec 11 13:14:19 2020.

 --------------------------------------------------------------------
 #N Geom=AllCheck Guess=TCheck SCRF=Check GenChk RB3LYP/6-31G(d) Freq
 --------------------------------------------------------------------

 Structure from the checkpoint file:  "JID_7299.chk"
 ------------------------------
 CID_79623090_JID_7299_neutraal
 ------------------------------
 Charge =  0 Multiplicity = 1

 SCF Done:  E(RB3LYP) =  -1150.96242080     A.U. after    1 cycles

  Exact polarizability: 167.817  -1.187 164.342  -1.139  -2.908 132.439
 Approx polarizability: 230.091   2.172 221.632  -2.756   3.309 209.512

                      1                      2                      3
                      A                      A                      A
 Frequencies --     20.3009                33.6183                46.1933
 Red. masses --      4.4063                 4.0586                 4.4761
 Frc consts  --      0.0011                 0.0027                 0.0056
 IR Inten    --      0.2014                 1.1378                 3.1342

                      4                      5                      6
                      A                      A                      A
 Frequencies --     54.7286                80.2220                97.9946
 Red. masses --      3.7926                 3.9350                 2.9967
 Frc consts  --      0.0067                 0.0149                 0.0170
 IR Inten    --      3.3692                 1.2811                 2.0157

                      7                      8                      9
                      A                      A                      A
 Frequencies --    143.7784               160.9448               180.0418
 Red. masses --      3.4991                 3.0355                 2.8484
 Frc consts  --      0.0426                 0.0463                 0.0544
 IR Inten    --      1.7777                 1.5081                 2.6543

                     10                     11                     12
                      A                      A                      A
 Frequencies --    195.4011               219.4734               229.0307
 Red. masses --      2.1191                 1.5637                 2.6384
 Frc consts  --      0.0477                 0.0444                 0.0815
 IR Inten    --      0.5422                 0.5830                 0.3222

                     13                     14                     15
                      A                      A                      A
 Frequencies --    242.0614               247.8778               268.1671
 Red. masses --      1.1230                 1.1991                 2.4587
 Frc consts  --      0.0388                 0.0434                 0.1042
 IR Inten    --      0.0093                 0.3910                 1.7845

                     16                     17                     18
                      A                      A                      A
 Frequencies --    290.5375               307.2435               316.0245
 Red. masses --      3.8998                 3.3032                 2.3236
 Frc consts  --      0.1940                 0.1837                 0.1367
 IR Inten    --      1.3563                 0.5146                 4.3335

                     19                     20                     21
                      A                      A                      A
 Frequencies --    339.2536               347.0632               362.9709
 Red. masses --      2.6811                 1.4777                 1.6655
 Frc consts  --      0.1818                 0.1049                 0.1293
 IR Inten    --      4.8998                42.9272                49.2452

                     22                     23                     24
                      A                      A                      A
 Frequencies --    401.5402               412.1000               427.3238
 Red. masses --      2.4908                 2.2377                 2.4186
 Frc consts  --      0.2366                 0.2239                 0.2602
 IR Inten    --      1.9459                 0.7724                 1.2769

                     25                     26                     27
                      A                      A                      A
 Frequencies --    441.1649               453.7059               486.2584
 Red. masses --      3.7070                 2.5855                 3.2654
 Frc consts  --      0.4251                 0.3136                 0.4549
 IR Inten    --      5.1853                 5.1812                 9.0196

                     28                     29                     30
                      A                      A                      A
 Frequencies --    492.6377               504.8316               526.8537
 Red. masses --      4.1434                 2.3879                 3.9422
 Frc consts  --      0.5925                 0.3586                 0.6447
 IR Inten    --     26.2985                 5.0004                29.9249

                     31                     32                     33
                      A                      A                      A
 Frequencies --    585.6075               627.3453               710.9764
 Red. masses --      2.9239                 3.0249                 2.6982
 Frc consts  --      0.5908                 0.7014                 0.8036
 IR Inten    --     20.8191                 5.0172                10.4631

                     34                     35                     36
                      A                      A                      A
 Frequencies --    760.3055               802.9045               841.9792
 Red. masses --      5.3584                 2.7211                 2.5238
 Frc consts  --      1.8250                 1.0335                 1.0541
 IR Inten    --     58.7834                11.8062                 2.0627

                     37                     38                     39
                      A                      A                      A
 Frequencies --    850.4399               879.8642               882.6256
 Red. masses --      2.4599                 1.7422                 2.0954
 Frc consts  --      1.0482                 0.7947                 0.9618
 IR Inten    --      4.2001                 4.5845                 0.3947

                     40                     41                     42
                      A                      A                      A
 Frequencies --    890.0200               911.9468               928.7400
 Red. masses --      1.5470                 1.4642                 3.0732
 Frc consts  --      0.7220                 0.7175                 1.5618
 IR Inten    --      5.5160                 6.8399                97.4465

                     43                     44                     45
                      A                      A                      A
 Frequencies --    948.8842               963.9146               991.3028
 Red. masses --      2.1131                 1.7966                 1.7596
 Frc consts  --      1.1210                 0.9835                 1.0188
 IR Inten    --     44.8620                 6.0394                11.1033

                     46                     47                     48
                      A                      A                      A
 Frequencies --    995.7337               998.9407              1011.1252
 Red. masses --      1.4130                 1.4264                 1.8118
 Frc consts  --      0.8254                 0.8386                 1.0914
 IR Inten    --      6.8242                 9.7698                 2.3477

                     49                     50                     51
                      A                      A                      A
 Frequencies --   1031.1766              1052.4482              1063.6942
 Red. masses --      1.9261                 1.7382                 1.8505
 Frc consts  --      1.2067                 1.1344                 1.2336
 IR Inten    --      3.8522                 1.9985                 7.3550

                     52                     53                     54
                      A                      A                      A
 Frequencies --   1073.7818              1092.3806              1110.4734
 Red. masses --      2.2712                 1.9227                 1.8790
 Frc consts  --      1.5429                 1.3518                 1.3652
 IR Inten    --     43.9268                11.8625                38.1145

                     55                     56                     57
                      A                      A                      A
 Frequencies --   1122.1897              1131.8535              1141.5311
 Red. masses --      2.7173                 2.8376                 2.7437
 Frc consts  --      2.0162                 2.1418                 2.1065
 IR Inten    --     83.5046                69.7383                45.0045

                     58                     59                     60
                      A                      A                      A
 Frequencies --   1159.9746              1186.3656              1200.7570
 Red. masses --      2.0476                 2.2718                 2.0260
 Frc consts  --      1.6233                 1.8839                 1.7211
 IR Inten    --     15.9940                13.3869                 2.5943

                     61                     62                     63
                      A                      A                      A
 Frequencies --   1219.2676              1249.1425              1257.6464
 Red. masses --      1.2468                 1.8068                 1.2140
 Frc consts  --      1.0921                 1.6611                 1.1313
 IR Inten    --      9.4934                 9.8586                12.0050

                     64                     65                     66
                      A                      A                      A
 Frequencies --   1272.2250              1297.6229              1312.9641
 Red. masses --      1.2446                 1.2932                 1.5264
 Frc consts  --      1.1869                 1.2829                 1.5503
 IR Inten    --      6.7173                 2.6025                91.2814

                     67                     68                     69
                      A                      A                      A
 Frequencies --   1320.6564              1326.6991              1353.0265
 Red. masses --      3.4463                 1.3339                 1.3825
 Frc consts  --      3.5415                 1.3833                 1.4912
 IR Inten    --    157.0584                 3.3745                16.0730

                     70                     71                     72
                      A                      A                      A
 Frequencies --   1363.0720              1371.8994              1381.1562
 Red. masses --      1.3595                 1.3211                 1.2817
 Frc consts  --      1.4882                 1.4650                 1.4405
 IR Inten    --      1.5540                 1.2049                17.7285

                     73                     74                     75
                      A                      A                      A
 Frequencies --   1381.5450              1389.5172              1402.7180
 Red. masses --      1.3008                 1.3993                 1.4336
 Frc consts  --      1.4629                 1.5918                 1.6620
 IR Inten    --      2.5148                11.2361                 1.5444

                     76                     77                     78
                      A                      A                      A
 Frequencies --   1405.2107              1411.4705              1418.6530
 Red. masses --      1.3720                 1.3454                 1.4257
 Frc consts  --      1.5963                 1.5793                 1.6906
 IR Inten    --      2.2612                 5.8725                 5.0723

                     79                     80                     81
                      A                      A                      A
 Frequencies --   1426.2054              1431.6612              1437.7723
 Red. masses --      1.3592                 1.2971                 1.2988
 Frc consts  --      1.6289                 1.5664                 1.5819
 IR Inten    --      5.9732                 8.4139                22.8938

                     82                     83                     84
                      A                      A                      A
 Frequencies --   1439.4912              1448.8015              1484.5192
 Red. masses --      1.2783                 1.3044                 1.0531
 Frc consts  --      1.5607                 1.6131                 1.3674
 IR Inten    --     52.9026                13.1526                 4.2880

                     85                     86                     87
                      A                      A                      A
 Frequencies --   1486.8524              1508.9979              1512.3847
 Red. masses --      1.0501                 1.0776                 1.0799
 Frc consts  --      1.3678                 1.4458                 1.4554
 IR Inten    --      1.7990                 2.8543                 3.4919

                     88                     89                     90
                      A                      A                      A
 Frequencies --   1517.6076              1519.5659              1521.1774
 Red. masses --      1.0729                 1.0710                 1.0944
 Frc consts  --      1.4559                 1.4571                 1.4921
 IR Inten    --      1.3104                 0.3168                 9.2852

                     91                     92                     93
                      A                      A                      A
 Frequencies --   1526.6748              1528.5796              1532.8988
 Red. masses --      1.0624                 1.0633                 1.0638
 Frc consts  --      1.4589                 1.4637                 1.4728
 IR Inten    --      1.1109                 4.6712                16.9565

                     94                     95                     96
                      A                      A                      A
 Frequencies --   1535.6516              1553.8870              2998.5660
 Red. masses --      1.0642                 1.0832                 1.0756
 Frc consts  --      1.4786                 1.5410                 5.6982
 IR Inten    --      8.6700                 8.8674                42.9067

                     97                     98                     99
                      A                      A                      A
 Frequencies --   3015.1660              3021.0795              3031.6297
 Red. masses --      1.0780                 1.0706                 1.0652
 Frc consts  --      5.7742                 5.7569                 5.7679
 IR Inten    --     12.9316                26.7994                24.5045

                    100                    101                    102
                      A                      A                      A
 Frequencies --   3033.8884              3037.0702              3042.0381
 Red. masses --      1.0682                 1.0490                 1.0481
 Frc consts  --      5.7931                 5.7008                 5.7145
 IR Inten    --     28.7999                25.8684                 3.4874

                    103                    104                    105
                      A                      A                      A
 Frequencies --   3046.1064              3052.9379              3055.1049
 Red. masses --      1.0722                 1.0743                 1.0610
 Frc consts  --      5.8618                 5.8995                 5.8348
 IR Inten    --     18.7710                62.7200                25.1405

                    106                    107                    108
                      A                      A                      A
 Frequencies --   3058.5327              3081.5783              3085.3122
 Red. masses --      1.0644                 1.0946                 1.0980
 Frc consts  --      5.8667                 6.1242                 6.1582
 IR Inten    --     16.2939                25.8474                52.0041

                    109                    110                    111
                      A                      A                      A
 Frequencies --   3089.4600              3098.5481              3101.4991
 Red. masses --      1.0300                 1.1011                 1.1012
 Frc consts  --      5.7926                 6.2285                 6.2411
 IR Inten    --      0.3310                12.1677                46.6425

                    112                    113                    114
                      A                      A                      A
 Frequencies --   3105.4344              3109.6336              3113.1673
 Red. masses --      1.0991                 1.1017                 1.1015
 Frc consts  --      6.2450                 6.2766                 6.2901
 IR Inten    --     67.9379                46.3503                39.6614

                    115                    116                    117
                      A                      A                      A
 Frequencies --   3116.1944              3133.0356              3186.9168
 Red. masses --      1.0950                 1.1008                 1.1060
 Frc consts  --      6.2650                 6.3664                 6.6182
 IR Inten    --     32.5248                31.1016                 1.1628

                    118                    119                    120
                      A                      A                      A
 Frequencies --   3197.1084              3225.6698              3706.9630
 Red. masses --      1.1081                 1.0868                 1.0665
 Frc consts  --      6.6731                 6.6625                 8.6345
 IR Inten    --      1.4740                 1.4283                29.0974

 - Thermochemistry -
 -------------------
 Temperature   298.150 Kelvin.  Pressure   1.00000 Atm.
 Atom     1 has atomic number  6 and mass  12.00000

 Molecular mass:   263.15552 amu.
 Principal axes and moments of inertia in atomic units:
                           1         2         3
     Eigenvalues --  3654.194065228.996017585.10107
           X            0.99974  -0.02281  -0.00254
           Y            0.02274   0.99941  -0.02589
           Z            0.00313   0.02583   0.99966
 This molecule is an asymmetric top.
 Rotational symmetry number  1.
 Warning -- assumption of classical behavior for rotation
           may cause significant error
 Rotational temperatures (Kelvin)      0.02370     0.01656     0.01142
 Rotational constants (GHZ):           0.49388     0.34514     0.23793
 Zero-point vibrational energy     984338.2 (Joules/Mol)
                                  235.26246 (Kcal/Mol)
 Warning -- explicit consideration of  31 degrees of freedom as
           vibrations may cause significant error
 Vibrational temperatures:     29.21    48.37    66.46    78.74   115.42
          (Kelvin)            140.99   206.87   231.56   259.04   281.14
                              315.77   329.52   348.27   356.64   385.83
                              418.02   442.05   454.69   488.11   499.35
                              522.23   577.73   592.92   614.82   634.74
                              652.78   699.62   708.80   726.34   758.02
                              842.56   902.61  1022.94  1093.91  1155.20
                             1211.42  1223.59  1265.93  1269.90  1280.54
                             1312.09  1336.25  1365.23  1386.86  1426.26
                             1432.64  1437.25  1454.78  1483.63  1514.24
                             1530.42  1544.93  1571.69  1597.72  1614.58
                             1628.48  1642.41  1668.94  1706.92  1727.62
                             1754.25  1797.24  1809.47  1830.45  1866.99
                             1889.06  1900.13  1908.82  1946.70  1961.16
                             1973.86  1987.18  1987.74  1999.21  2018.20
                             2021.78  2030.79  2041.13  2051.99  2059.84
                             2068.63  2071.11  2084.50  2135.89  2139.25
                             2171.11  2175.98  2183.50  2186.32  2188.63
                             2196.54  2199.29  2205.50  2209.46  2235.70
                             4314.27  4338.15  4346.66  4361.84  4365.09
                             4369.67  4376.81  4382.67  4392.50  4395.61
                             4400.55  4433.70  4439.08  4445.04  4458.12
                             4462.37  4468.03  4474.07  4479.15  4483.51
                             4507.74  4585.26  4599.93  4641.02  5333.49

 Zero-point correction=                           0.374915 (Hartree/Particle)
 Thermal correction to Energy=                    0.394051
 Thermal correction to Enthalpy=                  0.394995
 Thermal correction to Gibbs Free Energy=         0.326957
 Sum of electronic and zero-point Energies=          -1150.587506
 Sum of electronic and thermal Energies=             -1150.568370
 Sum of electronic and thermal Enthalpies=           -1150.567426
 Sum of electronic and thermal Free Energies=        -1150.635464

                     E (Thermal)             CV                S
                      KCal/Mol        Cal/Mol-Kelvin    Cal/Mol-Kelvin
 Total                  247.271             73.125            143.198
 Electronic               0.000              0.000              0.000
 Translational            0.889              2.981             42.602
 Rotational               0.889              2.981             33.338
 Vibrational            245.493             67.164             67.258
 Vibration     1          0.593              1.986              6.605
 Vibration     2          0.594              1.983              5.604
 Vibration     3          0.595              1.979              4.974
 Vibration     4          0.596              1.976              4.639
 Vibration     5          0.600              1.963              3.885
 Vibration     6          0.603              1.951              3.494
 Vibration     7          0.616              1.909              2.753
 Vibration     8          0.622              1.890              2.539
 Vibration     9          0.629              1.867              2.328
 Vibration    10          0.636              1.846              2.176
 Vibration    11          0.647              1.811              1.963
 Vibration    12          0.652              1.797              1.887
 Vibration    13          0.658              1.776              1.788
 Vibration    14          0.662              1.766              1.746
 Vibration    15          0.673              1.732              1.608
 Vibration    16          0.687              1.691              1.471
 Vibration    17          0.697              1.660              1.377
 Vibration    18          0.703              1.643              1.331
 Vibration    19          0.719              1.597              1.216
 Vibration    20          0.725              1.581              1.179
 Vibration    21          0.737              1.549              1.109
 Vibration    22          0.767              1.467              0.957
 Vibration    23          0.776              1.444              0.919
 Vibration    24          0.789              1.411              0.867
 Vibration    25          0.801              1.380              0.823
 Vibration    26          0.812              1.353              0.785
 Vibration    27          0.842              1.281              0.693
 Vibration    28          0.848              1.266              0.677
 Vibration    29          0.860              1.239              0.646
 Vibration    30          0.882              1.191              0.594
 Vibration    31          0.943              1.063              0.475

 Optimization completed.
    -- Stationary point found.
 Normal termination of Gaussian 16 at Fri Dec 11 13:36:05 2020.

 ----------------------------------------------------------------------
 # B3LYP/6-311++G(d,p) empiricaldispersion=gd3bj scf=xqc pop=npa geom=c
 heck
 ----------------------------------------------------------------------

 --------------------------------------
 CID_79623090_JID_7299_Energie_neutraal
 --------------------------------------
 Structure from the checkpoint file:  "JID_7299.chk"
 Charge =  0 Multiplicity = 1

 SCF Done:  E(RB3LYP) =  -1151.21365084     A.U. after   15 cycles
 Normal termination of Gaussian 16 at Fri Dec 11 13:47:01 2020.

 ----------------------------------------------------------------------
 # B3LYP/6-311++G(d,p) empiricaldispersion=gd3bj scf=xqc pop=npa geom=c
 heck
 ----------------------------------------------------------------------

 ------------------------------------
 CID_79623090_JID_7299_Energie_kation
 ------------------------------------
 Structure from the checkpoint file:  "JID_7299.chk"
 Charge =  1 Multiplicity = 2

 SCF Done:  E(UB3LYP) =  -1150.88810297     A.U. after   26 cycles
 Normal termination of Gaussian 16 at Fri Dec 11 14:12:59 2020.
 Gaussian 16:  ES64L-G16RevA.03 25-Dec-2016

 ----------------------------------------------------------------------
 # B3LYP/6-311++G(d,p) empiricaldispersion=gd3bj scf=xqc pop=npa geom=c
 heck
 ----------------------------------------------------------------------

 -----------------------------------
 CID_79623090_JID_7299_Energie_anion
 -----------------------------------
 Structure from the checkpoint file:  "JID_7299.chk"
 Charge = -1 Multiplicity = 2

                         Standard orientation:
 ---------------------------------------------------------------------
 Center     Atomic      Atomic             Coordinates (Angstroms)
 Number     Number       Type             X           Y           Z
 ---------------------------------------------------------------------
      1          6           0        2.750885    2.365404   -0.828154
      2          6           0        2.052502    1.470160    0.203260
      3          6           0        0.651902    1.992370    0.596783
      4          6           0       -0.423778    2.136274   -0.499401
      5          6           0       -1.667306    2.876869    0.039894
      6          6           0       -2.461784    2.015314    1.033542
      7          6           0       -2.796133    0.639376    0.448809
      8          7           0       -1.553579    0.012208   -0.037245
      9          6           0       -0.908354    0.805447   -1.100182
     10         16           0       -1.625487   -1.660920   -0.269973
     11          8           0       -2.973911   -2.084232   -0.665587
     12          8           0       -0.459555   -2.038822   -1.080607
     13          6           0       -1.334873   -2.247220    1.408128
     14          6           0        2.032992   -0.001385   -0.253199
     15          6           0        3.271546   -0.846401    0.055052
     16          6           0        3.434805   -1.142268    1.546968
     17          8           0        3.207133   -2.066941   -0.687364
     18          1           0        2.221362    2.356212   -1.788107
     19          1           0        3.773599    2.021499   -1.018700
     20          1           0        2.805531    3.404835   -0.483383
     21          1           0        2.640536    1.524453    1.130518
     22          1           0        0.263461    1.341044    1.387979
     23          1           0        0.782027    2.984623    1.051179
     24          1           0       -0.009957    2.726855   -1.326868
     25          1           0       -1.376011    3.822045    0.512793
     26          1           0       -2.318682    3.133232   -0.807040
     27          1           0       -1.888303    1.877644    1.957051
     28          1           0       -3.396730    2.517728    1.308222
     29          1           0       -3.251521    0.000528    1.210200
     30          1           0       -3.519894    0.729771   -0.375011
     31          1           0       -1.632909    1.014333   -1.903626
     32          1           0       -0.102842    0.219676   -1.529169
     33          1           0       -0.345255   -1.916118    1.724679
     34          1           0       -2.107128   -1.854998    2.071724
     35          1           0       -1.389969   -3.337440    1.376474
     36          1           0        1.178052   -0.514810    0.201387
     37          1           0        1.883663   -0.053858   -1.337511
     38          1           0        4.173375   -0.337366   -0.309282
     39          1           0        2.544989   -1.660825    1.928817
     40          1           0        4.300260   -1.791569    1.708921
     41          1           0        3.573194   -0.227512    2.135102
     42          1           0        2.278244   -2.354403   -0.686589
 ---------------------------------------------------------------------

 SCF Done:  E(UB3LYP) =  -1151.20723129     A.U. after   27 cycles

 The electronic state is 2-A.
 Alpha  occ. eigenvalues --  -88.97226 -19.02991 -19.02689 -19.02618 -14.25386
 Alpha  occ. eigenvalues --  -10.13072 -10.11738 -10.11525 -10.11480 -10.08967
 Alpha  occ. eigenvalues --  -10.08723 -10.07876 -10.07806 -10.07355 -10.07207
 Alpha  occ. eigenvalues --  -10.07190 -10.07036  -8.03432  -5.99707  -5.99680
 Alpha  occ. eigenvalues --   -5.99504  -1.02908  -0.92970  -0.91966  -0.85505
 Alpha  occ. eigenvalues --   -0.73898  -0.71290  -0.68125  -0.68008  -0.65975
 Alpha  occ. eigenvalues --   -0.60157  -0.59800  -0.58787  -0.54146  -0.51620
 Alpha  occ. eigenvalues --   -0.50950  -0.48402  -0.45015  -0.44209  -0.40718
 Alpha  occ. eigenvalues --   -0.40447  -0.39263  -0.38556  -0.37804  -0.37241
 Alpha  occ. eigenvalues --   -0.36771  -0.35512  -0.34915  -0.34323  -0.34117
 Alpha  occ. eigenvalues --   -0.33278  -0.32749  -0.32381  -0.31766  -0.31264
 Alpha  occ. eigenvalues --   -0.29014  -0.28472  -0.27451  -0.26948  -0.26690
 Alpha  occ. eigenvalues --   -0.25916  -0.25006  -0.24476  -0.24247  -0.23487
 Alpha  occ. eigenvalues --   -0.23048  -0.22597  -0.21808  -0.21575  -0.20955
 Alpha  occ. eigenvalues --   -0.18367  -0.16657   0.03736
 Alpha virt. eigenvalues --    0.05885   0.06288   0.07243   0.07857   0.08141
 Alpha virt. eigenvalues --    0.08885   0.09367   0.09728   0.10202   0.10375
 Alpha virt. eigenvalues --    0.10867   0.11550   0.11782   0.12074   0.12398

  Beta  occ. eigenvalues --  -88.97219 -19.02980 -19.02685 -19.02606 -14.25376
  Beta  occ. eigenvalues --  -10.13067 -10.11717 -10.11520 -10.11415 -10.08964
  Beta  occ. eigenvalues --  -10.08715 -10.07847 -10.07788 -10.07338 -10.07202
  Beta  occ. eigenvalues --  -10.07171 -10.07015  -8.03424  -5.99700  -5.99675
  Beta  occ. eigenvalues --   -5.99498  -1.02875  -0.92959  -0.91932  -0.85483
  Beta  occ. eigenvalues --   -0.73874  -0.71260  -0.68060  -0.67971  -0.65949
  Beta  occ. eigenvalues --   -0.60123  -0.59768  -0.58736  -0.54106  -0.51578
  Beta  occ. eigenvalues --   -0.50906  -0.48367  -0.44967  -0.44165  -0.40693
  Beta  occ. eigenvalues --   -0.40417  -0.39235  -0.38536  -0.37771  -0.37210
  Beta  occ. eigenvalues --   -0.36737  -0.35483  -0.34876  -0.34285  -0.34077
  Beta  occ. eigenvalues --   -0.33233  -0.32721  -0.32353  -0.31740  -0.31231
  Beta  occ. eigenvalues --   -0.28994  -0.28445  -0.27421  -0.26924  -0.26669
  Beta  occ. eigenvalues --   -0.25886  -0.24979  -0.24456  -0.24218  -0.23471
  Beta  occ. eigenvalues --   -0.23016  -0.22574  -0.21789  -0.21547  -0.20929
  Beta  occ. eigenvalues --   -0.18354  -0.16636
  Beta virt. eigenvalues --    0.05907   0.06672   0.06859   0.07748   0.08183
  Beta virt. eigenvalues --    0.08610   0.09256   0.09699   0.09874   0.10496
  Beta virt. eigenvalues --    0.10773   0.11211   0.11709   0.12090   0.12304

 Mulliken charges and spin densities:
               1          2
     1  C   -0.009467  -0.699421
     2  C    0.628081  -0.173858
     3  C   -0.047419  -0.652227
     4  C   -0.171569   0.867502
     5  C   -0.563214   0.027182
     6  C    0.744469  -1.128068
     7  C    0.320664  -0.684041
     8  N    0.014711   0.140557
     9  C   -0.780512  -0.108817
    10  S   -0.234125   0.265926
    11  O   -0.022723   0.014014
    12  O   -0.159480  -0.015262
    13  C    0.589966  -1.053799
    14  C   -0.344169   0.004292
    15  C   -0.659372   0.077566
    16  C    0.116834  -0.491368
    17  O   -0.163182  -0.002641
    18  H    0.116212   0.029696
    19  H    0.063471   0.058673
    20  H   -0.118729   0.258734
    21  H   -0.048943   0.240408
    22  H    0.171289  -0.006287
    23  H   -0.315186   0.522666
    24  H    0.049431   0.173764
    25  H   -0.203737   0.356211
    26  H   -0.108758   0.245614
    27  H   -0.097544   0.253512
    28  H   -0.605958   0.807705
    29  H   -0.085563   0.278043
    30  H    0.199864   0.002908
    31  H    0.074682   0.099510
    32  H    0.253921  -0.098075
    33  H   -0.184792   0.386283
    34  H   -0.471330   0.696162
    35  H   -0.128364   0.341527
    36  H    0.791982  -0.764080
    37  H    0.065116   0.186088
    38  H    0.174560  -0.005969
    39  H   -0.036829   0.199277
    40  H    0.009395   0.141076
    41  H   -0.060648   0.191674
    42  H    0.236967   0.017344
 Sum of Mulliken charges =  -1.00000   1.00000

 Dipole moment (field-independent basis, Debye):
    X=              2.6445    Y=              0.0250    Z=             -3.8667  Tot=              4.6846
 Quadrupole moment (field-independent basis, Debye-Ang):
   XX=           -183.0567   YY=           -178.1379   ZZ=           -159.6578
   XY=              2.9463   XZ=              7.3089   YZ=             -8.9574

 Summary of Natural Population Analysis:

                                       Natural Population
                Natural  -----------------------------------------------
    Atom  No    Charge         Core      Valence    Rydberg      Total
 -----------------------------------------------------------------------
      C    1   -0.28430      0.99965     2.27866    0.00599     3.28430
      C    2   -0.11187      0.99959     2.10195    0.01032     3.11187
      C    3   -0.18672      0.99959     2.17650    0.01062     3.18672
      C    4   -0.11568      0.99958     2.10496    0.01113     3.11568
      C    5   -0.18570      0.99961     2.17658    0.00951     3.18570
      C    6   -0.19485      0.99962     2.18579    0.00944     3.19485
      C    7   -0.08483      0.99960     2.07289    0.01235     3.08483
      N    8   -0.38112      0.99972     2.86709    0.01432     3.88112
      C    9   -0.08756      0.99958     2.07764    0.01034     3.08756
      S   10    1.10184      4.99927     1.80092    0.09796     6.89816
      O   11   -0.46286      0.99991     3.45753    0.00542     4.46286
      O   12   -0.47151      0.99990     3.46596    0.00565     4.47151
      C   13   -0.38683      0.99960     2.37687    0.01036     3.38683
      C   14   -0.20905      0.99959     2.19991    0.00955     3.20905
      C   15    0.06706      0.99957     1.92181    0.01156     2.93294
      C   16   -0.29645      0.99965     2.29075    0.00605     3.29645
      O   17   -0.37546      0.99990     3.36931    0.00625     4.37546
      H   18    0.09489      0.00000     0.40428    0.00083     0.40511
      H   19    0.09795      0.00000     0.40121    0.00084     0.40205
      H   20    0.10042      0.00000     0.39886    0.00072     0.39958
      H   21    0.09612      0.00000     0.40198    0.00190     0.40388
      H   22    0.10293      0.00000     0.39436    0.00271     0.39707
      H   23    0.10064      0.00000     0.39790    0.00146     0.39936
      H   24    0.10013      0.00000     0.39839    0.00148     0.39987
      H   25    0.10363      0.00000     0.39512    0.00125     0.39637
      H   26    0.09504      0.00000     0.40380    0.00117     0.40496
      H   27    0.10164      0.00000     0.39618    0.00218     0.39836
      H   28    0.10480      0.00000     0.39353    0.00167     0.39520
      H   29    0.10636      0.00000     0.39213    0.00151     0.39364
      H   30    0.09138      0.00000     0.40739    0.00123     0.40862
      H   31    0.08911      0.00000     0.40977    0.00112     0.41089
      H   32    0.11599      0.00000     0.38251    0.00150     0.38401
      H   33    0.11685      0.00000     0.38126    0.00189     0.38315
      H   34    0.12021      0.00000     0.37758    0.00220     0.37979
      H   35    0.11659      0.00000     0.38245    0.00096     0.38341
      H   36    0.10058      0.00000     0.39623    0.00318     0.39942
      H   37    0.10031      0.00000     0.39851    0.00119     0.39969
      H   38    0.07970      0.00000     0.41853    0.00177     0.42030
      H   39    0.09715      0.00000     0.40152    0.00134     0.40285
      H   40    0.10136      0.00000     0.39781    0.00083     0.39864
      H   41    0.09948      0.00000     0.39944    0.00108     0.40052
      H   42    0.23263      0.00000     0.26448    0.00288     0.26737
 =======================================================================
   * Total *   -0.00000     20.99393    50.72036    0.28571    72.00000

 Normal termination of Gaussian 16 at Fri Dec 11 14:39:27 2020.
