 Gaussian 16, Revision A.03,

 -----------------------------------------------------------
 # opt freq B3LYP/6-31G(d) empiricaldispersion=gd3bj scf=xqc
 -----------------------------------------------------------

 --------------------------------
 CID_128426798_JID_10289_neutraal
 --------------------------------
 Symbolic Z-matrix:
 Charge =  0 Multiplicity = 1

 SCF Done:  E(RB3LYP) =  -877.878615213     A.U. after   15 cycles
 SCF Done:  E(RB3LYP) =  -877.884392543     A.U. after   12 cycles
 SCF Done:  E(RB3LYP) =  -877.885561233     A.U. after   12 cycles
 SCF Done:  E(RB3LYP) =  -877.887044017     A.U. after   11 cycles
 SCF Done:  E(RB3LYP) =  -877.888555410     A.U. after   13 cycles
 SCF Done:  E(RB3LYP) =  -877.889256814     A.U. after   15 cycles
 SCF Done:  E(RB3LYP) =  -877.890529784     A.U. after   13 cycles
 SCF Done:  E(RB3LYP) =  -877.890703541     A.U. after   11 cycles
 SCF Done:  E(RB3LYP) =  -877.890809634     A.U. after   11 cycles
 SCF Done:  E(RB3LYP) =  -877.890861680     A.U. after   11 cycles
 SCF Done:  E(RB3LYP) =  -877.890963304     A.U. after    8 cycles
 SCF Done:  E(RB3LYP) =  -877.890963426     A.U. after    8 cycles
 SCF Done:  E(RB3LYP) =  -877.890963528     A.U. after    8 cycles
 SCF Done:  E(RB3LYP) =  -877.890963572     A.U. after    7 cycles
 SCF Done:  E(RB3LYP) =  -877.890963576     A.U. after    7 cycles
 Optimization completed.
    -- Stationary point found.
 Normal termination of Gaussian 16 at Mon Dec 14 17:51:24 2020.

 --------------------------------------------------------------------
 #N Geom=AllCheck Guess=TCheck SCRF=Check GenChk RB3LYP/6-31G(d) Freq
 --------------------------------------------------------------------

 Structure from the checkpoint file:  "JID_10289.chk"
 --------------------------------
 CID_128426798_JID_10289_neutraal
 --------------------------------
 Charge =  0 Multiplicity = 1

 SCF Done:  E(RB3LYP) =  -877.890963576     A.U. after    1 cycles

  Exact polarizability: 256.124   0.713 169.363  21.456  -1.502 123.410
 Approx polarizability: 325.430   2.936 282.382  38.338 -14.812 197.017

                      1                      2                      3
                      A                      A                      A
 Frequencies --     10.2044                20.0896                33.7738
 Red. masses --      4.3775                 3.8729                 4.6803
 Frc consts  --      0.0003                 0.0009                 0.0031
 IR Inten    --      1.7311                 0.5515                 1.2104

                      4                      5                      6
                      A                      A                      A
 Frequencies --     46.7864                60.2513                86.8585
 Red. masses --      2.0979                 4.7701                 4.3564
 Frc consts  --      0.0027                 0.0102                 0.0194
 IR Inten    --      1.1245                 5.6966                 0.4131

                      7                      8                      9
                      A                      A                      A
 Frequencies --     92.8920               117.2059               159.9320
 Red. masses --      3.9833                 3.9760                 3.9004
 Frc consts  --      0.0203                 0.0322                 0.0588
 IR Inten    --      1.0223                 1.9831                 0.3610

                     10                     11                     12
                      A                      A                      A
 Frequencies --    175.7142               194.4382               195.7835
 Red. masses --      1.1049                 2.4485                 3.3613
 Frc consts  --      0.0201                 0.0545                 0.0759
 IR Inten    --      1.1219                 4.0199                 3.6211

                     13                     14                     15
                      A                      A                      A
 Frequencies --    245.9349               264.6264               279.3339
 Red. masses --      1.2616                 3.0179                 2.8673
 Frc consts  --      0.0450                 0.1245                 0.1318
 IR Inten    --      0.0211                 0.4130                 0.9535

                     16                     17                     18
                      A                      A                      A
 Frequencies --    309.7776               344.8735               353.2426
 Red. masses --      3.6834                 2.7406                 2.8331
 Frc consts  --      0.2083                 0.1921                 0.2083
 IR Inten    --      1.4246                 0.6409                 3.1374

                     19                     20                     21
                      A                      A                      A
 Frequencies --    367.7892               405.7213               443.3416
 Red. masses --      3.1214                 3.9906                 2.5854
 Frc consts  --      0.2488                 0.3870                 0.2994
 IR Inten    --      1.3978                 0.9388                 3.7638

                     22                     23                     24
                      A                      A                      A
 Frequencies --    454.8620               467.1949               490.1492
 Red. masses --      3.0392                 3.0591                 3.9732
 Frc consts  --      0.3705                 0.3934                 0.5624
 IR Inten    --      1.3121                 1.9460                 1.4302

                     25                     26                     27
                      A                      A                      A
 Frequencies --    560.5683               564.8764               631.6843
 Red. masses --      4.0003                 5.4659                 4.7664
 Frc consts  --      0.7406                 1.0276                 1.1206
 IR Inten    --      1.3177                 0.4216                 2.3406

                     28                     29                     30
                      A                      A                      A
 Frequencies --    669.2842               689.9933               698.2656
 Red. masses --      4.4128                 6.1727                 5.1926
 Frc consts  --      1.1646                 1.7315                 1.4917
 IR Inten    --      0.2598                 5.4862                 7.0086

                     31                     32                     33
                      A                      A                      A
 Frequencies --    722.7973               732.1910               765.8688
 Red. masses --      5.9857                 2.7540                 2.4625
 Frc consts  --      1.8425                 0.8699                 0.8510
 IR Inten    --      2.6840                 6.1383                11.7144

                     34                     35                     36
                      A                      A                      A
 Frequencies --    777.3069               779.7109               802.4199
 Red. masses --      1.5497                 1.5847                 1.5113
 Frc consts  --      0.5517                 0.5676                 0.5733
 IR Inten    --     52.5336                25.2569                24.3003

                     37                     38                     39
                      A                      A                      A
 Frequencies --    817.7087               827.8514               848.8061
 Red. masses --      3.6407                 2.4709                 1.4439
 Frc consts  --      1.4343                 0.9977                 0.6129
 IR Inten    --      8.7033                20.8046                 1.1330

                     40                     41                     42
                      A                      A                      A
 Frequencies --    882.3558               930.5812               949.2262
 Red. masses --      1.3275                 3.4551                 1.8764
 Frc consts  --      0.6090                 1.7629                 0.9961
 IR Inten    --      0.3797                18.9115                 9.4859

                     43                     44                     45
                      A                      A                      A
 Frequencies --    953.2145               972.3832               989.5377
 Red. masses --      1.3597                 2.2597                 1.2761
 Frc consts  --      0.7279                 1.2588                 0.7362
 IR Inten    --      1.1752                 2.1884                 0.1270

                     46                     47                     48
                      A                      A                      A
 Frequencies --    996.0161              1002.8687              1014.3526
 Red. masses --      1.8701                 1.6586                 4.1125
 Frc consts  --      1.0931                 0.9829                 2.4931
 IR Inten    --      7.6988                 1.6171                13.2390

                     49                     50                     51
                      A                      A                      A
 Frequencies --   1016.0956              1020.3849              1031.0552
 Red. masses --      2.2101                 1.6127                 1.9175
 Frc consts  --      1.3444                 0.9893                 1.2010
 IR Inten    --     14.2423                 3.5005                 0.9286

                     52                     53                     54
                      A                      A                      A
 Frequencies --   1037.6189              1065.6981              1075.9334
 Red. masses --      3.6857                 4.5012                 1.5150
 Frc consts  --      2.3380                 3.0120                 1.0333
 IR Inten    --     62.6184                52.0196                 5.1139

                     55                     56                     57
                      A                      A                      A
 Frequencies --   1080.4982              1115.3534              1119.9641
 Red. masses --      2.1401                 7.6415                 2.8583
 Frc consts  --      1.4721                 5.6009                 2.1124
 IR Inten    --      3.0597               123.8013                 0.3998

                     58                     59                     60
                      A                      A                      A
 Frequencies --   1153.6757              1191.5240              1197.6673
 Red. masses --      1.6375                 1.9310                 1.1069
 Frc consts  --      1.2841                 1.6152                 0.9355
 IR Inten    --     10.4202                 9.7410                 1.8204

                     61                     62                     63
                      A                      A                      A
 Frequencies --   1201.1118              1214.4819              1225.4179
 Red. masses --      2.0011                 2.4931                 2.2689
 Frc consts  --      1.7009                 2.1666                 2.0074
 IR Inten    --      4.5227                18.2102                20.2186

                     64                     65                     66
                      A                      A                      A
 Frequencies --   1227.1962              1242.1371              1248.7270
 Red. masses --      1.6669                 2.0999                 1.3752
 Frc consts  --      1.4790                 1.9089                 1.2634
 IR Inten    --      6.0858                 3.0380                 1.4531

                     67                     68                     69
                      A                      A                      A
 Frequencies --   1252.1711              1284.5798              1305.8204
 Red. masses --      1.5142                 1.6903                 1.9742
 Frc consts  --      1.3988                 1.6434                 1.9834
 IR Inten    --     40.1114                11.1901                20.9960

                     70                     71                     72
                      A                      A                      A
 Frequencies --   1309.0596              1324.5386              1328.0079
 Red. masses --      2.5749                 1.3969                 1.6276
 Frc consts  --      2.5997                 1.4439                 1.6912
 IR Inten    --     10.6656                28.0072                 1.6895

                     73                     74                     75
                      A                      A                      A
 Frequencies --   1354.9902              1377.6041              1384.7112
 Red. masses --      6.4617                 1.4131                 2.0161
 Frc consts  --      6.9899                 1.5801                 2.2777
 IR Inten    --      0.9272                10.5008                23.9076

                     76                     77                     78
                      A                      A                      A
 Frequencies --   1403.4172              1416.3296              1437.4570
 Red. masses --      2.2495                 1.4913                 1.2738
 Frc consts  --      2.6104                 1.7626                 1.5508
 IR Inten    --      2.5958                 7.8812                14.7818

                     79                     80                     81
                      A                      A                      A
 Frequencies --   1446.9572              1462.4853              1508.1557
 Red. masses --      1.2486                 2.7538                 1.8305
 Frc consts  --      1.5403                 3.4703                 2.4531
 IR Inten    --      0.4633                14.0885                40.1226

                     82                     83                     84
                      A                      A                      A
 Frequencies --   1515.0631              1516.6074              1518.3959
 Red. masses --      1.0715                 1.2934                 1.0579
 Frc consts  --      1.4492                 1.7528                 1.4370
 IR Inten    --      1.1584                13.4768                11.1313

                     85                     86                     87
                      A                      A                      A
 Frequencies --   1527.0449              1528.2816              1537.2196
 Red. masses --      1.3747                 1.0864                 1.1343
 Frc consts  --      1.8887                 1.4950                 1.5792
 IR Inten    --     16.4727                 2.0603                18.9305

                     88                     89                     90
                      A                      A                      A
 Frequencies --   1541.0701              1549.1050              1552.3289
 Red. masses --      1.0787                 1.1117                 2.4144
 Frc consts  --      1.5093                 1.5718                 3.4279
 IR Inten    --     10.1424                18.0327                47.2601

                     91                     92                     93
                      A                      A                      A
 Frequencies --   1564.1725              1614.1525              1643.5892
 Red. masses --      1.0988                 6.6237                 5.9270
 Frc consts  --      1.5839                10.1681                 9.4334
 IR Inten    --      0.1376                 2.7088                 4.2563

                     94                     95                     96
                      A                      A                      A
 Frequencies --   1668.6029              2978.0084              2993.2415
 Red. masses --      6.1359                 1.0712                 1.0696
 Frc consts  --     10.0654                 5.5975                 5.6461
 IR Inten    --      3.8140                41.4631                69.4825

                     97                     98                     99
                      A                      A                      A
 Frequencies --   3030.2892              3047.9264              3050.4134
 Red. masses --      1.0669                 1.0433                 1.0361
 Frc consts  --      5.7722                 5.7103                 5.6804
 IR Inten    --     87.6381                20.7180                17.5477

                    100                    101                    102
                      A                      A                      A
 Frequencies --   3075.7817              3077.0554              3080.2408
 Red. masses --      1.0621                 1.0889                 1.0981
 Frc consts  --      5.9199                 6.0744                 6.1387
 IR Inten    --     19.2663                21.8464                33.3716

                    103                    104                    105
                      A                      A                      A
 Frequencies --   3103.4528              3109.3100              3117.3585
 Red. masses --      1.0945                 1.0925                 1.1014
 Frc consts  --      6.2110                 6.2232                 6.3059
 IR Inten    --     21.9656                15.2768                34.3212

                    106                    107                    108
                      A                      A                      A
 Frequencies --   3124.0426              3126.2461              3140.5140
 Red. masses --      1.1063                 1.1020                 1.1030
 Frc consts  --      6.3617                 6.3459                 6.4098
 IR Inten    --     29.1742                40.6393                15.4183

                    109                    110                    111
                      A                      A                      A
 Frequencies --   3185.8904              3200.4047              3214.0569
 Red. masses --      1.0872                 1.0899                 1.0950
 Frc consts  --      6.5015                 6.5771                 6.6644
 IR Inten    --      6.1923                12.5587                25.4995

                    112                    113                    114
                      A                      A                      A
 Frequencies --   3234.7301              3314.1892              3484.6302
 Red. masses --      1.0942                 1.0991                 1.0739
 Frc consts  --      6.7458                 7.1128                 7.6831
 IR Inten    --      2.0507                 0.5345                 1.0755

 - Thermochemistry -
 -------------------
 Temperature   298.150 Kelvin.  Pressure   1.00000 Atm.
 Atom     1 has atomic number  6 and mass  12.00000

 Molecular mass:   272.16371 amu.
 Principal axes and moments of inertia in atomic units:
                           1         2         3
     Eigenvalues --  1720.67146********************
           X            0.99997  -0.00666   0.00367
           Y            0.00640   0.99779   0.06619
           Z           -0.00411  -0.06616   0.99780
 This molecule is an asymmetric top.
 Rotational symmetry number  1.
 Warning -- assumption of classical behavior for rotation
           may cause significant error
 Rotational temperatures (Kelvin)      0.05034     0.00554     0.00543
 Rotational constants (GHZ):           1.04886     0.11551     0.11312
 Zero-point vibrational energy     892563.0 (Joules/Mol)
                                  213.32769 (Kcal/Mol)
 Warning -- explicit consideration of  26 degrees of freedom as
           vibrations may cause significant error
 Vibrational temperatures:     14.68    28.90    48.59    67.32    86.69
          (Kelvin)            124.97   133.65   168.63   230.11   252.81
                              279.75   281.69   353.85   380.74   401.90
                              445.70   496.20   508.24   529.17   583.74
                              637.87   654.45   672.19   705.22   806.53
                              812.73   908.85   962.95   992.75  1004.65
                             1039.94  1053.46  1101.91  1118.37  1121.83
                             1154.50  1176.50  1191.09  1221.24  1269.51
                             1338.90  1365.72  1371.46  1399.04  1423.72
                             1433.05  1442.90  1459.43  1461.93  1468.11
                             1483.46  1492.90  1533.30  1548.03  1554.60
                             1604.74  1611.38  1659.88  1714.34  1723.18
                             1728.13  1747.37  1763.10  1765.66  1787.16
                             1796.64  1801.59  1848.22  1878.78  1883.44
                             1905.72  1910.71  1949.53  1982.07  1992.29
                             2019.20  2037.78  2068.18  2081.85  2104.19
                             2169.90  2179.84  2182.06  2184.63  2197.08
                             2198.86  2211.72  2217.26  2228.82  2233.46
                             2250.50  2322.41  2364.76  2400.75  4284.69
                             4306.61  4359.91  4385.29  4388.86  4425.36
                             4427.20  4431.78  4465.18  4473.60  4485.18
                             4494.80  4497.97  4518.50  4583.79  4604.67
                             4624.31  4654.06  4768.38  5013.61

 Zero-point correction=                           0.339959 (Hartree/Particle)
 Thermal correction to Energy=                    0.358487
 Thermal correction to Enthalpy=                  0.359431
 Thermal correction to Gibbs Free Energy=         0.289594
 Sum of electronic and zero-point Energies=           -877.551004
 Sum of electronic and thermal Energies=              -877.532476
 Sum of electronic and thermal Enthalpies=            -877.531532
 Sum of electronic and thermal Free Energies=         -877.601369

                     E (Thermal)             CV                S
                      KCal/Mol        Cal/Mol-Kelvin    Cal/Mol-Kelvin
 Total                  224.954             70.338            146.985
 Electronic               0.000              0.000              0.000
 Translational            0.889              2.981             42.702
 Rotational               0.889              2.981             34.416
 Vibrational            223.177             64.376             69.866
 Vibration     1          0.593              1.987              7.971
 Vibration     2          0.593              1.986              6.625
 Vibration     3          0.594              1.983              5.594
 Vibration     4          0.595              1.979              4.949
 Vibration     5          0.597              1.973              4.449
 Vibration     6          0.601              1.958              3.730
 Vibration     7          0.602              1.954              3.598
 Vibration     8          0.608              1.935              3.146
 Vibration     9          0.622              1.891              2.551
 Vibration    10          0.628              1.872              2.373
 Vibration    11          0.635              1.848              2.185
 Vibration    12          0.636              1.846              2.172
 Vibration    13          0.660              1.770              1.760
 Vibration    14          0.671              1.738              1.631
 Vibration    15          0.680              1.712              1.538
 Vibration    16          0.699              1.655              1.364
 Vibration    17          0.723              1.586              1.190
 Vibration    18          0.729              1.569              1.152
 Vibration    19          0.740              1.538              1.089
 Vibration    20          0.771              1.458              0.942
 Vibration    21          0.803              1.376              0.816
 Vibration    22          0.813              1.350              0.781
 Vibration    23          0.824              1.323              0.745
 Vibration    24          0.846              1.272              0.683
 Vibration    25          0.916              1.117              0.523
 Vibration    26          0.921              1.107              0.514

 Optimization completed.
    -- Stationary point found.
 Normal termination of Gaussian 16 at Mon Dec 14 18:08:55 2020.

 ----------------------------------------------------------------------
 # B3LYP/6-311++G(d,p) empiricaldispersion=gd3bj scf=xqc pop=npa geom=c
 heck
 ----------------------------------------------------------------------

 ----------------------------------------
 CID_128426798_JID_10289_Energie_neutraal
 ----------------------------------------
 Structure from the checkpoint file:  "JID_10289.chk"
 Charge =  0 Multiplicity = 1

 SCF Done:  E(RB3LYP) =  -878.126586070     A.U. after   16 cycles
 Normal termination of Gaussian 16 at Mon Dec 14 18:18:28 2020.

 ----------------------------------------------------------------------
 # B3LYP/6-311++G(d,p) empiricaldispersion=gd3bj scf=xqc pop=npa geom=c
 heck
 ----------------------------------------------------------------------

 --------------------------------------
 CID_128426798_JID_10289_Energie_kation
 --------------------------------------
 Structure from the checkpoint file:  "JID_10289.chk"
 Charge =  1 Multiplicity = 2

 SCF Done:  E(UB3LYP) =  -877.830163605     A.U. after   30 cycles
 Normal termination of Gaussian 16 at Mon Dec 14 18:43:49 2020.
 Gaussian 16:  ES64L-G16RevA.03 25-Dec-2016

 ----------------------------------------------------------------------
 # B3LYP/6-311++G(d,p) empiricaldispersion=gd3bj scf=xqc pop=npa geom=c
 heck
 ----------------------------------------------------------------------

 -------------------------------------
 CID_128426798_JID_10289_Energie_anion
 -------------------------------------
 Structure from the checkpoint file:  "JID_10289.chk"
 Charge = -1 Multiplicity = 2

                         Standard orientation:
 ---------------------------------------------------------------------
 Center     Atomic      Atomic             Coordinates (Angstroms)
 Number     Number       Type             X           Y           Z
 ---------------------------------------------------------------------
      1          6           0       -3.629827    2.306064    0.147300
      2          6           0       -4.149616    0.925150   -0.169069
      3          6           0       -5.474534    0.752785   -0.588665
      4          6           0       -6.004162   -0.509094   -0.849670
      5          6           0       -5.208805   -1.644077   -0.689672
      6          6           0       -3.884504   -1.504160   -0.287649
      7          6           0       -3.363821   -0.232002   -0.039276
      8          7           0       -2.004672   -0.150011    0.381395
      9          6           0       -0.994774    0.630221   -0.095933
     10          6           0        0.110317    0.258149    0.632826
     11          7           0       -0.269390   -0.726494    1.503943
     12          7           0       -1.537989   -0.980004    1.355855
     13          6           0        1.531716    0.718623    0.567876
     14          7           0        2.382329   -0.379938    0.098258
     15          6           0        3.826717   -0.131657    0.146158
     16          6           0        4.576029   -1.301704   -0.530460
     17          6           0        5.804617   -0.631910   -1.181774
     18          8           0        5.593534    0.784793   -1.112054
     19          6           0        4.225448    1.010533   -0.807263
     20          6           0        4.387729    0.122930    1.556660
     21          1           0       -4.461773    2.980657    0.368390
     22          1           0       -2.956541    2.298041    1.009643
     23          1           0       -3.076015    2.740898   -0.694422
     24          1           0       -6.103708    1.632629   -0.694159
     25          1           0       -7.038059   -0.605551   -1.167677
     26          1           0       -5.613357   -2.633010   -0.881655
     27          1           0       -3.239658   -2.365348   -0.156007
     28          1           0       -1.135418    1.335867   -0.897945
     29          1           0        1.611396    1.555749   -0.134828
     30          1           0        1.818803    1.104737    1.560625
     31          1           0        2.162259   -1.201044    0.661269
     32          1           0        4.852616   -2.087399    0.179968
     33          1           0        3.916478   -1.739209   -1.285673
     34          1           0        5.924811   -0.942803   -2.228708
     35          1           0        6.739353   -0.851127   -0.654283
     36          1           0        3.592698    0.966257   -1.709146
     37          1           0        4.148505    2.009109   -0.366053
     38          1           0        3.922744    0.995140    2.028073
     39          1           0        4.213823   -0.745613    2.202690
     40          1           0        5.465650    0.309676    1.511829
 ---------------------------------------------------------------------

 SCF Done:  E(UB3LYP) =  -878.121697713     A.U. after   33 cycles
 SCF Done:  E(UB3LYP) =  -878.121697713     a.u. after    1 cycles

 The electronic state is 2-A.
 Alpha  occ. eigenvalues --  -19.03562 -14.28344 -14.24172 -14.21191 -14.20406
 Alpha  occ. eigenvalues --  -10.13017 -10.12319 -10.11999 -10.10293 -10.09908
 Alpha  occ. eigenvalues --  -10.09431 -10.08580 -10.08213 -10.07975 -10.07133
 Alpha  occ. eigenvalues --  -10.07106 -10.06917 -10.06832 -10.06731 -10.06101
 Alpha  occ. eigenvalues --   -0.97688  -0.95360  -0.82317  -0.80796  -0.74561
 Alpha  occ. eigenvalues --   -0.71090  -0.68195  -0.67239  -0.65520  -0.64252
 Alpha  occ. eigenvalues --   -0.60223  -0.59350  -0.58179  -0.53770  -0.51742
 Alpha  occ. eigenvalues --   -0.50236  -0.48302  -0.47746  -0.46558  -0.43008
 Alpha  occ. eigenvalues --   -0.41445  -0.40706  -0.38807  -0.38063  -0.37125
 Alpha  occ. eigenvalues --   -0.36526  -0.35706  -0.34639  -0.34432  -0.33365
 Alpha  occ. eigenvalues --   -0.32993  -0.32555  -0.31938  -0.31245  -0.30525
 Alpha  occ. eigenvalues --   -0.29947  -0.29275  -0.28751  -0.26795  -0.25968
 Alpha  occ. eigenvalues --   -0.25867  -0.25212  -0.24778  -0.24609  -0.22827
 Alpha  occ. eigenvalues --   -0.21762  -0.19681  -0.17023  -0.16053  -0.15258
 Alpha  occ. eigenvalues --   -0.14863  -0.14009  -0.13242   0.04250
 Alpha virt. eigenvalues --    0.05584   0.06614   0.07171   0.07570   0.08013
 Alpha virt. eigenvalues --    0.08353   0.08614   0.09111   0.09513   0.09731
 Alpha virt. eigenvalues --    0.10249   0.10691   0.11063   0.11372   0.11407

  Beta  occ. eigenvalues --  -19.03562 -14.28327 -14.23932 -14.21112 -14.20404
  Beta  occ. eigenvalues --  -10.13002 -10.12307 -10.11999 -10.10282 -10.09708
  Beta  occ. eigenvalues --  -10.09310 -10.08606 -10.08203 -10.07891 -10.07116
  Beta  occ. eigenvalues --  -10.07095 -10.06940 -10.06824 -10.06696 -10.05888
  Beta  occ. eigenvalues --   -0.97453  -0.95356  -0.82277  -0.80564  -0.74366
  Beta  occ. eigenvalues --   -0.70988  -0.68072  -0.67053  -0.65474  -0.63984
  Beta  occ. eigenvalues --   -0.60190  -0.59245  -0.58087  -0.53454  -0.51698
  Beta  occ. eigenvalues --   -0.50142  -0.48153  -0.47691  -0.46399  -0.42905
  Beta  occ. eigenvalues --   -0.41424  -0.40678  -0.38708  -0.37878  -0.37012
  Beta  occ. eigenvalues --   -0.36471  -0.35596  -0.34472  -0.34399  -0.33228
  Beta  occ. eigenvalues --   -0.32862  -0.32451  -0.31749  -0.31187  -0.30474
  Beta  occ. eigenvalues --   -0.29919  -0.29213  -0.28719  -0.26720  -0.25934
  Beta  occ. eigenvalues --   -0.25360  -0.25121  -0.24667  -0.24583  -0.22812
  Beta  occ. eigenvalues --   -0.21542  -0.19018  -0.17014  -0.15785  -0.14564
  Beta  occ. eigenvalues --   -0.14355  -0.13821  -0.12588
  Beta virt. eigenvalues --    0.05988   0.06732   0.07390   0.07706   0.08008
  Beta virt. eigenvalues --    0.08344   0.08531   0.08775   0.09171   0.09621
  Beta virt. eigenvalues --    0.09906   0.10356   0.10804   0.11319   0.11405

 Mulliken charges and spin densities:
               1          2
     1  C    0.160286  -0.881436
     2  C   -0.072291   0.602633
     3  C   -0.044082  -0.153197
     4  C   -0.351352   0.225320
     5  C   -0.415630  -0.015166
     6  C    0.105893   0.065326
     7  C   -0.411391   0.109434
     8  N    0.423590  -0.010333
     9  C   -0.273921   0.174467
    10  C    0.960455  -0.436980
    11  N   -0.179650   0.050467
    12  N   -0.032960   0.102749
    13  C   -1.364769  -0.032876
    14  N    0.230811  -0.023718
    15  C   -1.398867   1.113027
    16  C   -0.014818   0.011051
    17  C    0.273896  -0.687477
    18  O   -0.129612   0.022821
    19  C    0.137409  -0.505971
    20  C    0.509182  -1.002461
    21  H    0.014396   0.118549
    22  H    0.156431   0.021848
    23  H   -0.148084   0.308684
    24  H    0.082967   0.042773
    25  H    0.103593  -0.000758
    26  H    0.134543  -0.002200
    27  H    0.184862  -0.001348
    28  H    0.042463   0.117278
    29  H   -0.141900   0.296060
    30  H    0.119663   0.036674
    31  H    0.181848   0.050287
    32  H   -0.050755   0.192201
    33  H    0.129263   0.039329
    34  H    0.001667   0.132482
    35  H   -0.128950   0.286739
    36  H    0.139425   0.032713
    37  H   -0.062200   0.251352
    38  H    0.029553   0.107021
    39  H    0.030009   0.122743
    40  H    0.069028   0.119892
 Sum of Mulliken charges =  -1.00000   1.00000

 Dipole moment (field-independent basis, Debye):
    X=             -0.7133    Y=             -0.3080    Z=             -1.3694  Tot=              1.5745
 Quadrupole moment (field-independent basis, Debye-Ang):
   XX=           -225.6872   YY=           -147.2022   ZZ=           -146.9924
   XY=             -3.9720   XZ=              3.9807   YZ=              5.9106

 Summary of Natural Population Analysis:

                                       Natural Population
                Natural  -----------------------------------------------
    Atom  No    Charge         Core      Valence    Rydberg      Total
 -----------------------------------------------------------------------
      C    1   -0.29594      0.99964     2.29076    0.00554     3.29594
      C    2   -0.00600      0.99949     1.99704    0.00947     3.00600
      C    3   -0.10814      0.99953     2.09978    0.00882     3.10814
      C    4   -0.06789      0.99957     2.05934    0.00897     3.06789
      C    5   -0.10772      0.99958     2.09937    0.00877     3.10772
      C    6   -0.08640      0.99953     2.07931    0.00756     3.08640
      C    7    0.09827      0.99941     1.88988    0.01244     2.90173
      N    8   -0.10610      0.99963     2.59297    0.01350     3.60610
      C    9   -0.00143      0.99949     1.99181    0.01014     3.00143
      C   10    0.02775      0.99957     1.95783    0.01486     2.97225
      N   11   -0.14332      0.99971     2.62986    0.01375     3.64332
      N   12   -0.01097      0.99978     2.49674    0.01444     3.51097
      C   13   -0.10131      0.99958     2.08984    0.01189     3.10131
      N   14   -0.34054      0.99971     2.82990    0.01093     3.84054
      C   15    0.04873      0.99956     1.93770    0.01401     2.95127
      C   16   -0.20694      0.99959     2.19790    0.00945     3.20694
      C   17   -0.01205      0.99961     2.00018    0.01226     3.01205
      O   18   -0.30377      0.99990     3.29502    0.00885     4.30377
      C   19   -0.01140      0.99952     1.99996    0.01192     3.01140
      C   20   -0.29646      0.99962     2.29095    0.00590     3.29646
      H   21    0.10001      0.00000     0.39923    0.00077     0.39999
      H   22    0.10819      0.00000     0.39091    0.00090     0.39181
      H   23    0.10496      0.00000     0.39350    0.00154     0.39504
      H   24    0.09429      0.00000     0.40474    0.00097     0.40571
      H   25    0.09169      0.00000     0.40741    0.00090     0.40831
      H   26    0.09474      0.00000     0.40431    0.00095     0.40526
      H   27    0.10738      0.00000     0.39168    0.00094     0.39262
      H   28    0.10834      0.00000     0.39063    0.00102     0.39166
      H   29    0.09594      0.00000     0.40264    0.00142     0.40406
      H   30    0.08759      0.00000     0.41071    0.00171     0.41241
      H   31    0.17958      0.00000     0.31738    0.00304     0.32042
      H   32    0.10307      0.00000     0.39601    0.00092     0.39693
      H   33    0.10715      0.00000     0.39144    0.00141     0.39285
      H   34    0.08145      0.00000     0.41740    0.00115     0.41855
      H   35    0.08600      0.00000     0.41254    0.00146     0.41400
      H   36    0.08412      0.00000     0.41442    0.00146     0.41588
      H   37    0.09241      0.00000     0.40596    0.00163     0.40759
      H   38    0.10107      0.00000     0.39793    0.00099     0.39893
      H   39    0.09959      0.00000     0.39929    0.00111     0.40041
      H   40    0.10407      0.00000     0.39468    0.00125     0.39593
 =======================================================================
   * Total *    0.00000     19.99202    52.76896    0.23902    73.00000

 Normal termination of Gaussian 16 at Mon Dec 14 19:12:49 2020.
