 Gaussian 16, Revision A.03,

 -----------------------------------------------------------
 # opt freq B3LYP/6-31G(d) empiricaldispersion=gd3bj scf=xqc
 -----------------------------------------------------------

 ------------------------------
 CID_17945778_JID_5894_neutraal
 ------------------------------
 Symbolic Z-matrix:
 Charge =  0 Multiplicity = 1

 SCF Done:  E(RB3LYP) =  -741.950245676     A.U. after   16 cycles
 SCF Done:  E(RB3LYP) =  -741.978524369     A.U. after   13 cycles
 SCF Done:  E(RB3LYP) =  -741.980655946     A.U. after   13 cycles
 SCF Done:  E(RB3LYP) =  -741.981202885     A.U. after   13 cycles
 SCF Done:  E(RB3LYP) =  -741.982417617     A.U. after   13 cycles
 SCF Done:  E(RB3LYP) =  -741.982924343     A.U. after   12 cycles
 SCF Done:  E(RB3LYP) =  -741.983412667     A.U. after   12 cycles
 SCF Done:  E(RB3LYP) =  -741.983773719     A.U. after   12 cycles
 SCF Done:  E(RB3LYP) =  -741.983960142     A.U. after   12 cycles
 SCF Done:  E(RB3LYP) =  -741.984066026     A.U. after   12 cycles
 SCF Done:  E(RB3LYP) =  -741.985083984     A.U. after    8 cycles
 SCF Done:  E(RB3LYP) =  -741.985084269     A.U. after    7 cycles
 SCF Done:  E(RB3LYP) =  -741.985085176     A.U. after   10 cycles
 SCF Done:  E(RB3LYP) =  -741.985085234     A.U. after    7 cycles
 SCF Done:  E(RB3LYP) =  -741.985085221     A.U. after    7 cycles
 Optimization completed.
    -- Stationary point found.
 Normal termination of Gaussian 16 at Thu Dec 10 18:11:08 2020.

 --------------------------------------------------------------------
 #N Geom=AllCheck Guess=TCheck SCRF=Check GenChk RB3LYP/6-31G(d) Freq
 --------------------------------------------------------------------

 Structure from the checkpoint file:  "JID_5894.chk"
 ------------------------------
 CID_17945778_JID_5894_neutraal
 ------------------------------
 Charge =  0 Multiplicity = 1

 SCF Done:  E(RB3LYP) =  -741.985085221     A.U. after    1 cycles

  Exact polarizability: 131.353   2.891 123.869  -4.733   3.927  97.770
 Approx polarizability: 167.276   7.999 186.056 -10.036   8.981 151.246

                      1                      2                      3
                      A                      A                      A
 Frequencies --     18.8190                28.3895                46.8055
 Red. masses --      4.8904                 3.9095                 4.7411
 Frc consts  --      0.0010                 0.0019                 0.0061
 IR Inten    --      0.5851                 1.6997                 0.7984

                      4                      5                      6
                      A                      A                      A
 Frequencies --     60.8679                69.2680                88.1591
 Red. masses --      6.0564                12.4183                 3.1064
 Frc consts  --      0.0132                 0.0351                 0.0142
 IR Inten    --      8.0388                 2.8936                 1.2492

                      7                      8                      9
                      A                      A                      A
 Frequencies --    107.3362               115.7725               173.1075
 Red. masses --      5.3911                 5.1574                 2.0701
 Frc consts  --      0.0366                 0.0407                 0.0365
 IR Inten    --      5.2177                 0.2794                 0.3427

                     10                     11                     12
                      A                      A                      A
 Frequencies --    190.1788               205.1655               225.3122
 Red. masses --      5.7888                 1.9935                 4.0894
 Frc consts  --      0.1234                 0.0494                 0.1223
 IR Inten    --      2.3670                 0.9410                 5.3111

                     13                     14                     15
                      A                      A                      A
 Frequencies --    291.9902               293.8050               318.0128
 Red. masses --      3.7301                 1.2498                 3.6443
 Frc consts  --      0.1874                 0.0636                 0.2171
 IR Inten    --      0.3957                 0.1281                 7.4591

                     16                     17                     18
                      A                      A                      A
 Frequencies --    354.1843               362.7765               371.0252
 Red. masses --      2.3413                 3.5932                 3.7429
 Frc consts  --      0.1730                 0.2786                 0.3036
 IR Inten    --      2.2610                 9.7632                 1.1317

                     19                     20                     21
                      A                      A                      A
 Frequencies --    454.5214               478.9497               499.0248
 Red. masses --      5.3682                 2.7966                 4.5788
 Frc consts  --      0.6534                 0.3780                 0.6718
 IR Inten    --      4.6080                 7.0999                 9.4718

                     22                     23                     24
                      A                      A                      A
 Frequencies --    527.8998               561.2431               595.3360
 Red. masses --      1.9491                 1.1516                 2.2889
 Frc consts  --      0.3200                 0.2137                 0.4780
 IR Inten    --     33.7544                70.0869               112.5383

                     25                     26                     27
                      A                      A                      A
 Frequencies --    638.6156               655.8502               735.9686
 Red. masses --      4.7159                 4.8069                 1.1754
 Frc consts  --      1.1332                 1.2182                 0.3751
 IR Inten    --     44.1107                28.1821                14.0239

                     28                     29                     30
                      A                      A                      A
 Frequencies --    751.1629               767.8124               788.4967
 Red. masses --      7.6255                 6.2452                 3.9038
 Frc consts  --      2.5351                 2.1692                 1.4300
 IR Inten    --     10.7909                32.1062                15.0477

                     31                     32                     33
                      A                      A                      A
 Frequencies --    801.8948               851.6896               879.3878
 Red. masses --      1.6202                 2.0991                 1.4408
 Frc consts  --      0.6138                 0.8971                 0.6565
 IR Inten    --      6.7228                 1.7864                 0.9915

                     34                     35                     36
                      A                      A                      A
 Frequencies --    949.1118               980.0837               991.1036
 Red. masses --      4.3843                 1.7730                 2.0333
 Frc consts  --      2.3270                 1.0034                 1.1768
 IR Inten    --      9.8733                 3.8291                 3.9016

                     37                     38                     39
                      A                      A                      A
 Frequencies --   1006.7734              1033.5796              1075.8466
 Red. masses --      1.8217                 1.7309                 2.3386
 Frc consts  --      1.0879                 1.0895                 1.5948
 IR Inten    --     13.9304                18.1468                10.7700

                     40                     41                     42
                      A                      A                      A
 Frequencies --   1106.0528              1120.5011              1148.2502
 Red. masses --      2.4024                 4.1406                 2.6073
 Frc consts  --      1.7316                 3.0629                 2.0254
 IR Inten    --     10.5348                48.6550                86.7616

                     43                     44                     45
                      A                      A                      A
 Frequencies --   1155.9350              1189.8136              1222.3923
 Red. masses --      2.0340                 2.2900                 2.3115
 Frc consts  --      1.6012                 1.9101                 2.0350
 IR Inten    --      6.0433                16.0425               204.6798

                     46                     47                     48
                      A                      A                      A
 Frequencies --   1273.9728              1279.2515              1285.5759
 Red. masses --      1.1982                 1.3693                 1.4072
 Frc consts  --      1.1458                 1.3203                 1.3702
 IR Inten    --     80.4465                 2.3634                20.3568

                     49                     50                     51
                      A                      A                      A
 Frequencies --   1328.5336              1342.5026              1368.7325
 Red. masses --      1.1744                 1.4094                 1.1937
 Frc consts  --      1.2213                 1.4966                 1.3176
 IR Inten    --      6.2480                86.1852                23.7027

                     52                     53                     54
                      A                      A                      A
 Frequencies --   1371.7079              1398.1531              1405.8746
 Red. masses --      1.3681                 1.4648                 1.4051
 Frc consts  --      1.5166                 1.6870                 1.6362
 IR Inten    --     41.9160                49.8125                 9.4747

                     55                     56                     57
                      A                      A                      A
 Frequencies --   1409.0463              1431.3232              1450.1071
 Red. masses --      1.7919                 1.6565                 1.2527
 Frc consts  --      2.0961                 1.9995                 1.5520
 IR Inten    --    127.8965                63.4464                 6.4056

                     58                     59                     60
                      A                      A                      A
 Frequencies --   1461.9446              1499.8755              1509.1346
 Red. masses --      2.3146                 1.1978                 1.4998
 Frc consts  --      2.9146                 1.5876                 2.0125
 IR Inten    --    164.7613                22.3377                49.1182

                     61                     62                     63
                      A                      A                      A
 Frequencies --   1513.0409              1523.4465              1526.9185
 Red. masses --      1.1051                 1.1207                 1.0824
 Frc consts  --      1.4906                 1.5325                 1.4868
 IR Inten    --      8.7824                36.3590                 1.6151

                     64                     65                     66
                      A                      A                      A
 Frequencies --   1530.6493              1537.5618              1551.2646
 Red. masses --      1.0749                 1.0644                 1.0632
 Frc consts  --      1.4837                 1.4826                 1.5074
 IR Inten    --     14.5227                 2.2224                 3.4275

                     67                     68                     69
                      A                      A                      A
 Frequencies --   1805.0914              1839.8075              2377.1237
 Red. masses --      8.8749                 9.0511                12.5888
 Frc consts  --     17.0378                18.0508                41.9119
 IR Inten    --    519.4437               385.9478                 1.3375

                     70                     71                     72
                      A                      A                      A
 Frequencies --   3030.1546              3039.0653              3044.7638
 Red. masses --      1.0614                 1.0635                 1.0400
 Frc consts  --      5.7418                 5.7872                 5.6807
 IR Inten    --     21.2045                27.9872                25.0126

                     73                     74                     75
                      A                      A                      A
 Frequencies --   3049.3456              3062.0942              3070.3134
 Red. masses --      1.0610                 1.0993                 1.0673
 Frc consts  --      5.8125                 6.0729                 5.9278
 IR Inten    --     10.6688                29.8611                16.2925

                     76                     77                     78
                      A                      A                      A
 Frequencies --   3074.6565              3088.8753              3109.4462
 Red. masses --      1.1008                 1.1021                 1.0987
 Frc consts  --      6.1314                 6.1954                 6.2586
 IR Inten    --     47.1379                43.7460                32.3086

                     79                     80                     81
                      A                      A                      A
 Frequencies --   3114.0025              3125.1498              3137.6524
 Red. masses --      1.0638                 1.1021                 1.0948
 Frc consts  --      6.0776                 6.3417                 6.3502
 IR Inten    --     28.7489                30.5620                 0.8168

                     82                     83                     84
                      A                      A                      A
 Frequencies --   3176.9270              3619.2601              3724.7024
 Red. masses --      1.1036                 1.0767                 1.0646
 Frc consts  --      6.5626                 8.3096                 8.7021
 IR Inten    --      2.9341                54.0158               102.4024

 - Thermochemistry -
 -------------------
 Temperature   298.150 Kelvin.  Pressure   1.00000 Atm.
 Atom     1 has atomic number  6 and mass  12.00000

 Molecular mass:   213.11134 amu.
 Principal axes and moments of inertia in atomic units:
                           1         2         3
     Eigenvalues --  2664.946884683.280025961.42473
           X            0.99929  -0.03734   0.00453
           Y            0.03728   0.99923   0.01261
           Z           -0.00499  -0.01244   0.99991
 This molecule is an asymmetric top.
 Rotational symmetry number  1.
 Warning -- assumption of classical behavior for rotation
           may cause significant error
 Rotational temperatures (Kelvin)      0.03250     0.01849     0.01453
 Rotational constants (GHZ):           0.67721     0.38536     0.30274
 Zero-point vibrational energy     656602.2 (Joules/Mol)
                                  156.93170 (Kcal/Mol)
 Warning -- explicit consideration of  24 degrees of freedom as
           vibrations may cause significant error
 Vibrational temperatures:     27.08    40.85    67.34    87.58    99.66
          (Kelvin)            126.84   154.43   166.57   249.06   273.62
                              295.19   324.17   420.11   422.72   457.55
                              509.59   521.95   533.82   653.95   689.10
                              717.99   759.53   807.50   856.56   918.83
                              943.62  1058.89  1080.76  1104.71  1134.47
                             1153.75  1225.39  1265.24  1365.56  1410.12
                             1425.98  1448.52  1487.09  1547.90  1591.36
                             1612.15  1652.08  1663.13  1711.88  1758.75
                             1832.96  1840.56  1849.66  1911.46  1931.56
                             1969.30  1973.58  2011.63  2022.74  2027.30
                             2059.35  2086.38  2103.41  2157.99  2171.31
                             2176.93  2191.90  2196.90  2202.26  2212.21
                             2231.92  2597.12  2647.07  3420.15  4359.72
                             4372.54  4380.74  4387.33  4405.67  4417.50
                             4423.74  4444.20  4473.80  4480.36  4496.39
                             4514.38  4570.89  5207.31  5359.02

 Zero-point correction=                           0.250087 (Hartree/Particle)
 Thermal correction to Energy=                    0.266488
 Thermal correction to Enthalpy=                  0.267433
 Thermal correction to Gibbs Free Energy=         0.203541
 Sum of electronic and zero-point Energies=           -741.734999
 Sum of electronic and thermal Energies=              -741.718597
 Sum of electronic and thermal Enthalpies=            -741.717653
 Sum of electronic and thermal Free Energies=         -741.781544

                     E (Thermal)             CV                S
                      KCal/Mol        Cal/Mol-Kelvin    Cal/Mol-Kelvin
 Total                  167.224             58.254            134.471
 Electronic               0.000              0.000              0.000
 Translational            0.889              2.981             41.973
 Rotational               0.889              2.981             32.675
 Vibrational            165.447             52.292             59.822
 Vibration     1          0.593              1.986              6.755
 Vibration     2          0.593              1.984              5.939
 Vibration     3          0.595              1.979              4.948
 Vibration     4          0.597              1.973              4.429
 Vibration     5          0.598              1.969              4.174
 Vibration     6          0.601              1.958              3.701
 Vibration     7          0.606              1.943              3.317
 Vibration     8          0.608              1.936              3.170
 Vibration     9          0.627              1.876              2.401
 Vibration    10          0.633              1.853              2.226
 Vibration    11          0.640              1.833              2.086
 Vibration    12          0.650              1.802              1.916
 Vibration    13          0.687              1.689              1.462
 Vibration    14          0.689              1.685              1.452
 Vibration    15          0.704              1.639              1.320
 Vibration    16          0.730              1.567              1.148
 Vibration    17          0.737              1.549              1.110
 Vibration    18          0.743              1.532              1.076
 Vibration    19          0.813              1.351              0.782
 Vibration    20          0.835              1.297              0.713
 Vibration    21          0.854              1.252              0.661
 Vibration    22          0.883              1.188              0.592
 Vibration    23          0.917              1.115              0.521
 Vibration    24          0.953              1.042              0.458

 Optimization completed.
    -- Stationary point found.
 Normal termination of Gaussian 16 at Thu Dec 10 18:19:24 2020.

 ----------------------------------------------------------------------
 # B3LYP/6-311++G(d,p) empiricaldispersion=gd3bj scf=xqc pop=npa geom=c
 heck
 ----------------------------------------------------------------------

 --------------------------------------
 CID_17945778_JID_5894_Energie_neutraal
 --------------------------------------
 Structure from the checkpoint file:  "JID_5894.chk"
 Charge =  0 Multiplicity = 1

 SCF Done:  E(RB3LYP) =  -742.213109025     A.U. after   14 cycles
 Normal termination of Gaussian 16 at Thu Dec 10 18:22:30 2020.

 ----------------------------------------------------------------------
 # B3LYP/6-311++G(d,p) empiricaldispersion=gd3bj scf=xqc pop=npa geom=c
 heck
 ----------------------------------------------------------------------

 ------------------------------------
 CID_17945778_JID_5894_Energie_kation
 ------------------------------------
 Structure from the checkpoint file:  "JID_5894.chk"
 Charge =  1 Multiplicity = 2

 SCF Done:  E(UB3LYP) =  -741.855013046     A.U. after   33 cycles
 SCF Done:  E(UB3LYP) =  -741.857632041     a.u. after   10 cycles
 Normal termination of Gaussian 16 at Thu Dec 10 19:19:14 2020.
 Gaussian 16:  ES64L-G16RevA.03 25-Dec-2016

 ----------------------------------------------------------------------
 # B3LYP/6-311++G(d,p) empiricaldispersion=gd3bj scf=xqc pop=npa geom=c
 heck
 ----------------------------------------------------------------------

 -----------------------------------
 CID_17945778_JID_5894_Energie_anion
 -----------------------------------
 Structure from the checkpoint file:  "JID_5894.chk"
 Charge = -1 Multiplicity = 2

                         Standard orientation:
 ---------------------------------------------------------------------
 Center     Atomic      Atomic             Coordinates (Angstroms)
 Number     Number       Type             X           Y           Z
 ---------------------------------------------------------------------
      1          6           0       -3.660359    1.401082    0.918758
      2          6           0       -3.980829    0.295356   -0.092460
      3          6           0       -3.071713    0.300353   -1.333552
      4          6           0       -1.566260    0.259526   -1.034242
      5          6           0       -1.147763   -0.981496   -0.248051
      6          7           0        0.287543   -0.926342    0.103871
      7          6           0        0.614015    0.056857    1.095717
      8          8           0       -0.148127    0.313404    2.010241
      9          7           0        1.788847    0.728697    0.914488
     10          6           0        2.614224    0.757499   -0.277984
     11          6           0        2.876363    2.141803   -0.701779
     12          7           0        3.091677    3.238123   -1.013208
     13          6           0        1.053937   -2.048579   -0.143607
     14          8           0        0.711052   -2.992624   -0.825618
     15          8           0        2.272325   -1.989145    0.462699
     16          1           0       -2.678180    1.257248    1.381700
     17          1           0       -4.403104    1.420195    1.723751
     18          1           0       -3.665163    2.387650    0.438112
     19          1           0       -3.926367   -0.680540    0.407610
     20          1           0       -5.019784    0.397842   -0.431299
     21          1           0       -3.336862   -0.549057   -1.978067
     22          1           0       -3.276012    1.206046   -1.919800
     23          1           0       -1.003146    0.287430   -1.975755
     24          1           0       -1.283337    1.156869   -0.471106
     25          1           0       -1.713749   -1.072097    0.681391
     26          1           0       -1.289292   -1.887891   -0.835705
     27          1           0        1.988213    1.395925    1.648380
     28          1           0        3.567348    0.238473   -0.123884
     29          1           0        2.085563    0.238584   -1.080607
     30          1           0        2.705703   -2.827501    0.223841
 ---------------------------------------------------------------------

 SCF Done:  E(UB3LYP) =  -742.208160319     A.U. after   29 cycles

 The electronic state is 2-A.
 Alpha  occ. eigenvalues --  -19.07414 -19.01827 -19.01664 -14.27419 -14.26972
 Alpha  occ. eigenvalues --  -14.23177 -10.24301 -10.23212 -10.16369 -10.12958
 Alpha  occ. eigenvalues --  -10.11872 -10.08630 -10.08607 -10.08397 -10.07406
 Alpha  occ. eigenvalues --   -1.02741  -0.98261  -0.93108  -0.87153  -0.85104
 Alpha  occ. eigenvalues --   -0.82241  -0.72586  -0.67748  -0.66663  -0.61052
 Alpha  occ. eigenvalues --   -0.58233  -0.55333  -0.50347  -0.48174  -0.47231
 Alpha  occ. eigenvalues --   -0.46871  -0.42149  -0.41000  -0.39641  -0.38736
 Alpha  occ. eigenvalues --   -0.38353  -0.36591  -0.36069  -0.35499  -0.33781
 Alpha  occ. eigenvalues --   -0.33310  -0.32538  -0.31802  -0.30148  -0.29013
 Alpha  occ. eigenvalues --   -0.28706  -0.27620  -0.26142  -0.25190  -0.25006
 Alpha  occ. eigenvalues --   -0.24590  -0.24361  -0.23433  -0.21582  -0.19675
 Alpha  occ. eigenvalues --   -0.18841  -0.18248   0.04000
 Alpha virt. eigenvalues --    0.05483   0.07290   0.07353   0.07782   0.08202
 Alpha virt. eigenvalues --    0.08682   0.09015   0.10042   0.10281   0.10447
 Alpha virt. eigenvalues --    0.11237   0.11298   0.12188   0.12771   0.13009

  Beta  occ. eigenvalues --  -19.07339 -19.01825 -19.01647 -14.27400 -14.26950
  Beta  occ. eigenvalues --  -14.23153 -10.24294 -10.23213 -10.16299 -10.12954
  Beta  occ. eigenvalues --  -10.11866 -10.08621 -10.08599 -10.08381 -10.07396
  Beta  occ. eigenvalues --   -1.02659  -0.98246  -0.93029  -0.87120  -0.85064
  Beta  occ. eigenvalues --   -0.82192  -0.72562  -0.67664  -0.66611  -0.61012
  Beta  occ. eigenvalues --   -0.58184  -0.55286  -0.50273  -0.48117  -0.47169
  Beta  occ. eigenvalues --   -0.46810  -0.42089  -0.40912  -0.39606  -0.38707
  Beta  occ. eigenvalues --   -0.38310  -0.36539  -0.36045  -0.35460  -0.33753
  Beta  occ. eigenvalues --   -0.33284  -0.32495  -0.31777  -0.30120  -0.28993
  Beta  occ. eigenvalues --   -0.28671  -0.27602  -0.26070  -0.25159  -0.24971
  Beta  occ. eigenvalues --   -0.24567  -0.24341  -0.23382  -0.21549  -0.19645
  Beta  occ. eigenvalues --   -0.18813  -0.18231
  Beta virt. eigenvalues --    0.05701   0.07091   0.07411   0.07768   0.07875
  Beta virt. eigenvalues --    0.08885   0.09153   0.09560   0.10206   0.10361
  Beta virt. eigenvalues --    0.10693   0.11279   0.11608   0.12345   0.12795

 Mulliken charges and spin densities:
               1          2
     1  C   -0.154259  -0.490059
     2  C   -0.369908   0.257053
     3  C    0.503927  -0.974946
     4  C   -0.363331   0.615188
     5  C   -0.002155  -1.022576
     6  N    0.060940  -0.050414
     7  C   -0.272336   0.269835
     8  O   -0.268025   0.006010
     9  N   -0.262638   0.119526
    10  C   -0.149337   0.450227
    11  C    1.505402  -1.963115
    12  N   -0.292613   0.013839
    13  C    0.580218  -0.255544
    14  O   -0.281700  -0.021437
    15  O   -0.292241   0.112958
    16  H    0.136781   0.058836
    17  H    0.038938   0.081760
    18  H    0.027355   0.098491
    19  H    0.097499   0.028724
    20  H   -0.026663   0.187911
    21  H    0.032910   0.091208
    22  H   -0.077631   0.244524
    23  H   -0.050145   0.227518
    24  H    0.135776   0.075406
    25  H    0.180385   0.056464
    26  H    0.177673   0.009640
    27  H    0.021789   0.318680
    28  H   -0.902829   1.180183
    29  H   -0.192109   0.389905
    30  H   -0.541672   0.884205
 Sum of Mulliken charges =  -1.00000   1.00000

 Dipole moment (field-independent basis, Debye):
    X=             -8.0045    Y=              0.9528    Z=              0.7014  Tot=              8.0915
 Quadrupole moment (field-independent basis, Debye-Ang):
   XX=           -167.5939   YY=           -145.8419   ZZ=           -122.0025
   XY=              7.4315   XZ=              2.1646   YZ=              2.0209

 Summary of Natural Population Analysis:

                                       Natural Population
                Natural  -----------------------------------------------
    Atom  No    Charge         Core      Valence    Rydberg      Total
 -----------------------------------------------------------------------
      C    1   -0.29241      0.99966     2.28822    0.00453     3.29241
      C    2   -0.19124      0.99964     2.18476    0.00683     3.19124
      C    3   -0.18802      0.99963     2.17982    0.00858     3.18802
      C    4   -0.19832      0.99962     2.19041    0.00828     3.19832
      C    5   -0.08879      0.99959     2.07834    0.01085     3.08879
      N    6   -0.28986      0.99961     2.77803    0.01223     3.78986
      C    7    0.42188      0.99966     1.55388    0.02457     2.57812
      O    8   -0.31498      0.99987     3.30989    0.00521     4.31498
      N    9   -0.30474      0.99966     2.79445    0.01063     3.80474
      C   10   -0.14379      0.99952     2.13238    0.01189     3.14379
      C   11    0.15725      0.99964     1.82788    0.01523     2.84275
      N   12   -0.17515      0.99979     2.66381    0.01155     3.67515
      C   13    0.46791      0.99969     1.50742    0.02498     2.53209
      O   14   -0.32114      0.99987     3.31554    0.00573     4.32114
      O   15   -0.34903      0.99988     3.34136    0.00779     4.34903
      H   16    0.10766      0.00000     0.39127    0.00107     0.39234
      H   17    0.09705      0.00000     0.40208    0.00087     0.40295
      H   18    0.09445      0.00000     0.40448    0.00107     0.40555
      H   19    0.09253      0.00000     0.40633    0.00113     0.40747
      H   20    0.09455      0.00000     0.40429    0.00115     0.40545
      H   21    0.09569      0.00000     0.40334    0.00097     0.40431
      H   22    0.09723      0.00000     0.40179    0.00098     0.40277
      H   23    0.10193      0.00000     0.39680    0.00127     0.39807
      H   24    0.09949      0.00000     0.39906    0.00146     0.40051
      H   25    0.10256      0.00000     0.39619    0.00124     0.39744
      H   26    0.11357      0.00000     0.38527    0.00116     0.38643
      H   27    0.20234      0.00000     0.29541    0.00225     0.29766
      H   28    0.12970      0.00000     0.36088    0.00942     0.37030
      H   29    0.12660      0.00000     0.37035    0.00305     0.37340
      H   30    0.25507      0.00000     0.21763    0.02730     0.24493
 =======================================================================
   * Total *    0.00000     14.99535    41.78136    0.22329    57.00000

 Normal termination of Gaussian 16 at Thu Dec 10 19:27:39 2020.
