 Gaussian 16, Revision A.03,

 -----------------------------------------------------------
 # opt freq B3LYP/6-31G(d) empiricaldispersion=gd3bj scf=xqc
 -----------------------------------------------------------

 ------------------------------
 CID_89714379_JID_4018_neutraal
 ------------------------------
 Symbolic Z-matrix:
 Charge =  0 Multiplicity = 1

 SCF Done:  E(RB3LYP) =  -609.935146690     A.U. after   15 cycles
 SCF Done:  E(RB3LYP) =  -609.939594007     A.U. after   13 cycles
 SCF Done:  E(RB3LYP) =  -609.940897042     A.U. after   13 cycles
 SCF Done:  E(RB3LYP) =  -609.942654558     A.U. after   15 cycles
 SCF Done:  E(RB3LYP) =  -609.944464007     A.U. after   13 cycles
 SCF Done:  E(RB3LYP) =  -609.944960342     A.U. after   14 cycles
 SCF Done:  E(RB3LYP) =  -609.946901362     A.U. after   13 cycles
 SCF Done:  E(RB3LYP) =  -609.947369642     A.U. after   13 cycles
 SCF Done:  E(RB3LYP) =  -609.947592124     A.U. after   13 cycles
 SCF Done:  E(RB3LYP) =  -609.947669258     A.U. after   12 cycles
 SCF Done:  E(RB3LYP) =  -609.947729257     A.U. after   10 cycles
 SCF Done:  E(RB3LYP) =  -609.947729424     A.U. after    8 cycles
 SCF Done:  E(RB3LYP) =  -609.947729532     A.U. after    7 cycles
 SCF Done:  E(RB3LYP) =  -609.947729607     A.U. after    7 cycles
 SCF Done:  E(RB3LYP) =  -609.947729675     A.U. after    7 cycles
 SCF Done:  E(RB3LYP) =  -609.947729703     A.U. after    7 cycles
 Optimization completed.
    -- Stationary point found.
 Normal termination of Gaussian 16 at Thu Dec 10 09:20:02 2020.

 --------------------------------------------------------------------
 #N Geom=AllCheck Guess=TCheck SCRF=Check GenChk RB3LYP/6-31G(d) Freq
 --------------------------------------------------------------------

 Structure from the checkpoint file:  "JID_4018.chk"
 ------------------------------
 CID_89714379_JID_4018_neutraal
 ------------------------------
 Charge =  0 Multiplicity = 1

 SCF Done:  E(RB3LYP) =  -609.947729703     A.U. after    1 cycles

  Exact polarizability: 272.908  -5.169 124.257   0.003   0.005  49.518
 Approx polarizability: 421.646  -7.922 211.291   0.004   0.012  77.100

                      1                      2                      3
                      A                      A                      A
 Frequencies --     21.4056                29.9887                95.8053
 Red. masses --      4.3206                 4.3154                 3.9437
 Frc consts  --      0.0012                 0.0023                 0.0213
 IR Inten    --      8.3311                 0.0002                 3.5882

                      4                      5                      6
                      A                      A                      A
 Frequencies --    111.2074               155.6512               240.3553
 Red. masses --      4.5438                 4.9740                 6.9968
 Frc consts  --      0.0331                 0.0710                 0.2382
 IR Inten    --      0.4532                 2.4272                 4.8045

                      7                      8                      9
                      A                      A                      A
 Frequencies --    256.5115               299.5850               366.9778
 Red. masses --      3.7368                 6.7655                 3.2575
 Frc consts  --      0.1449                 0.3578                 0.2585
 IR Inten    --      0.0015                 0.5235                 3.0245

                     10                     11                     12
                      A                      A                      A
 Frequencies --    417.9564               467.2683               490.5037
 Red. masses --      3.0657                 2.3871                 7.4376
 Frc consts  --      0.3155                 0.3071                 1.0543
 IR Inten    --      0.1658                11.5849                14.7604

                     13                     14                     15
                      A                      A                      A
 Frequencies --    537.6816               545.2517               561.0501
 Red. masses --      3.1244                 7.9460                 8.5091
 Frc consts  --      0.5322                 1.3919                 1.5781
 IR Inten    --      1.3669                35.9685                 4.7049

                     16                     17                     18
                      A                      A                      A
 Frequencies --    603.6077               636.8535               653.7139
 Red. masses --      1.4388                 6.3912                 6.6295
 Frc consts  --      0.3088                 1.5272                 1.6692
 IR Inten    --     88.9893                 2.4205                 1.3348

                     19                     20                     21
                      A                      A                      A
 Frequencies --    702.8740               733.3973               757.6862
 Red. masses --      1.8977                 6.1074                 3.2625
 Frc consts  --      0.5524                 1.9355                 1.1035
 IR Inten    --     22.0063                 1.1221                41.5464

                     22                     23                     24
                      A                      A                      A
 Frequencies --    781.4093               837.6094               851.9184
 Red. masses --      1.8269                 1.4249                 5.5965
 Frc consts  --      0.6572                 0.5890                 2.3931
 IR Inten    --     11.6927                 0.1888                 1.8385

                     25                     26                     27
                      A                      A                      A
 Frequencies --    862.9753               937.6210               939.4811
 Red. masses --      1.2491                 1.3283                 2.7866
 Frc consts  --      0.5481                 0.6880                 1.4491
 IR Inten    --      0.3891                 0.0001                20.7229

                     28                     29                     30
                      A                      A                      A
 Frequencies --    941.0609               978.3403               988.6337
 Red. masses --      6.4171                 1.3605                 1.4111
 Frc consts  --      3.3483                 0.7672                 0.8126
 IR Inten    --      7.1603                 5.4213                 8.1144

                     31                     32                     33
                      A                      A                      A
 Frequencies --   1015.4755              1021.6319              1041.3330
 Red. masses --      1.2887                 6.1244                 1.7278
 Frc consts  --      0.7830                 3.7662                 1.1039
 IR Inten    --      1.6784                 0.2026                 6.9519

                     34                     35                     36
                      A                      A                      A
 Frequencies --   1065.6428              1086.7201              1123.6537
 Red. masses --      2.1843                 2.8719                 1.6552
 Frc consts  --      1.4615                 1.9982                 1.2313
 IR Inten    --      3.1738                42.8151                 9.3280

                     37                     38                     39
                      A                      A                      A
 Frequencies --   1157.6707              1195.5201              1226.7034
 Red. masses --      2.4700                 1.0954                 1.1766
 Frc consts  --      1.9504                 0.9224                 1.0432
 IR Inten    --     10.2383                 1.8200                35.0750

                     40                     41                     42
                      A                      A                      A
 Frequencies --   1240.4481              1247.4920              1322.1187
 Red. masses --      1.0768                 2.9861                 2.4336
 Frc consts  --      0.9762                 2.7380                 2.5063
 IR Inten    --      0.0030                31.8611               116.4154

                     43                     44                     45
                      A                      A                      A
 Frequencies --   1359.8301              1378.5588              1389.8529
 Red. masses --      3.8764                 1.8017                 1.7268
 Frc consts  --      4.2232                 2.0174                 1.9653
 IR Inten    --     16.4951                 3.9278                20.5994

                     46                     47                     48
                      A                      A                      A
 Frequencies --   1422.8395              1449.1269              1497.6098
 Red. masses --      1.3295                 1.6204                 2.0984
 Frc consts  --      1.5858                 2.0049                 2.7729
 IR Inten    --      2.4737                30.9205                11.1796

                     49                     50                     51
                      A                      A                      A
 Frequencies --   1503.2216              1538.3166              1544.0059
 Red. masses --      1.7914                 1.2980                 1.9923
 Frc consts  --      2.3850                 1.8098                 2.7983
 IR Inten    --     68.5628                22.8335                23.5088

                     52                     53                     54
                      A                      A                      A
 Frequencies --   1624.5191              1648.0646              1665.8450
 Red. masses --      5.4923                 5.7069                 5.7533
 Frc consts  --      8.5400                 9.1327                 9.4066
 IR Inten    --     23.2740                59.5286                14.6984

                     55                     56                     57
                      A                      A                      A
 Frequencies --   1733.6791              1768.0208              2986.4666
 Red. masses --      8.5914                 7.7414                 1.0570
 Frc consts  --     15.2143                14.2576                 5.5543
 IR Inten    --     44.6039               214.0215                84.9575

                     58                     59                     60
                      A                      A                      A
 Frequencies --   2999.7071              3137.6800              3164.0627
 Red. masses --      1.1045                 1.0894                 1.0857
 Frc consts  --      5.8556                 6.3189                 6.4042
 IR Inten    --     29.9954                32.9467                 2.2982

                     61                     62                     63
                      A                      A                      A
 Frequencies --   3180.5173              3187.5881              3198.5645
 Red. masses --      1.0854                 1.0883                 1.0927
 Frc consts  --      6.4688                 6.5149                 6.5868
 IR Inten    --      4.7817                 2.1695                35.3238

                     64                     65                     66
                      A                      A                      A
 Frequencies --   3210.1911              3274.3421              3605.7083
 Red. masses --      1.0976                 1.0919                 1.0762
 Frc consts  --      6.6641                 6.8971                 8.2441
 IR Inten    --     37.9584                41.3187                37.2140

 - Thermochemistry -
 -------------------
 Temperature   298.150 Kelvin.  Pressure   1.00000 Atm.
 Atom     1 has atomic number  6 and mass  12.00000

 Molecular mass:   186.07931 amu.
 Principal axes and moments of inertia in atomic units:
                           1         2         3
     Eigenvalues --   912.224044894.016655795.06626
           X            1.00000   0.00028  -0.00000
           Y           -0.00028   1.00000   0.00001
           Z            0.00000  -0.00001   1.00000
 This molecule is an asymmetric top.
 Rotational symmetry number  1.
 Warning -- assumption of classical behavior for rotation
           may cause significant error
 Rotational temperatures (Kelvin)      0.09495     0.01770     0.01495
 Rotational constants (GHZ):           1.97840     0.36876     0.31143
 Zero-point vibrational energy     502533.9 (Joules/Mol)
                                  120.10849 (Kcal/Mol)
 Warning -- explicit consideration of  16 degrees of freedom as
           vibrations may cause significant error
 Vibrational temperatures:     30.80    43.15   137.84   160.00   223.95
          (Kelvin)            345.82   369.06   431.04   528.00   601.35
                              672.29   705.73   773.60   784.50   807.23
                              868.46   916.29   940.55  1011.28  1055.20
                             1090.14  1124.27  1205.13  1225.72  1241.63
                             1349.03  1351.70  1353.98  1407.61  1422.42
                             1461.04  1469.90  1498.25  1533.22  1563.55
                             1616.69  1665.63  1720.09  1764.95  1784.73
                             1794.86  1902.23  1956.49  1983.44  1999.69
                             2047.15  2084.97  2154.73  2162.80  2213.29
                             2221.48  2337.32  2371.20  2396.78  2494.38
                             2543.79  4296.86  4315.91  4514.42  4552.38
                             4576.06  4586.23  4602.02  4618.75  4711.05
                             5187.81

 Zero-point correction=                           0.191405 (Hartree/Particle)
 Thermal correction to Energy=                    0.202754
 Thermal correction to Enthalpy=                  0.203699
 Thermal correction to Gibbs Free Energy=         0.151900
 Sum of electronic and zero-point Energies=           -609.756325
 Sum of electronic and thermal Energies=              -609.744975
 Sum of electronic and thermal Enthalpies=            -609.744031
 Sum of electronic and thermal Free Energies=         -609.795829

                     E (Thermal)             CV                S
                      KCal/Mol        Cal/Mol-Kelvin    Cal/Mol-Kelvin
 Total                  127.230             43.707            109.019
 Electronic               0.000              0.000              0.000
 Translational            0.889              2.981             41.569
 Rotational               0.889              2.981             31.626
 Vibrational            125.453             37.745             35.824
 Vibration     1          0.593              1.985              6.499
 Vibration     2          0.594              1.984              5.830
 Vibration     3          0.603              1.952              3.538
 Vibration     4          0.607              1.940              3.248
 Vibration     5          0.620              1.896              2.602
 Vibration     6          0.657              1.779              1.800
 Vibration     7          0.666              1.752              1.685
 Vibration     8          0.692              1.674              1.419
 Vibration     9          0.740              1.540              1.092
 Vibration    10          0.781              1.431              0.899
 Vibration    11          0.825              1.323              0.745
 Vibration    12          0.846              1.271              0.682
 Vibration    13          0.893              1.167              0.570
 Vibration    14          0.900              1.150              0.554
 Vibration    15          0.917              1.116              0.522
 Vibration    16          0.962              1.024              0.443

 Optimization completed.
    -- Stationary point found.
 Normal termination of Gaussian 16 at Thu Dec 10 09:25:42 2020.

 ----------------------------------------------------------------------
 # B3LYP/6-311++G(d,p) empiricaldispersion=gd3bj scf=xqc pop=npa geom=c
 heck
 ----------------------------------------------------------------------

 --------------------------------------
 CID_89714379_JID_4018_Energie_neutraal
 --------------------------------------
 Structure from the checkpoint file:  "JID_4018.chk"
 Charge =  0 Multiplicity = 1

 SCF Done:  E(RB3LYP) =  -610.112254025     A.U. after   15 cycles
 Normal termination of Gaussian 16 at Thu Dec 10 09:27:48 2020.

 ----------------------------------------------------------------------
 # B3LYP/6-311++G(d,p) empiricaldispersion=gd3bj scf=xqc pop=npa geom=c
 heck
 ----------------------------------------------------------------------

 ------------------------------------
 CID_89714379_JID_4018_Energie_kation
 ------------------------------------
 Structure from the checkpoint file:  "JID_4018.chk"
 Charge =  1 Multiplicity = 2

 SCF Done:  E(UB3LYP) =  -609.824539226     A.U. after   22 cycles
 Normal termination of Gaussian 16 at Thu Dec 10 09:31:55 2020.
 Gaussian 16:  ES64L-G16RevA.03 25-Dec-2016

 ----------------------------------------------------------------------
 # B3LYP/6-311++G(d,p) empiricaldispersion=gd3bj scf=xqc pop=npa geom=c
 heck
 ----------------------------------------------------------------------

 -----------------------------------
 CID_89714379_JID_4018_Energie_anion
 -----------------------------------
 Structure from the checkpoint file:  "JID_4018.chk"
 Charge = -1 Multiplicity = 2

                         Standard orientation:
 ---------------------------------------------------------------------
 Center     Atomic      Atomic             Coordinates (Angstroms)
 Number     Number       Type             X           Y           Z
 ---------------------------------------------------------------------
      1          6           0        3.995989    0.082416   -0.000171
      2          6           0        3.364187   -1.277853    0.000039
      3          7           0        2.114050   -1.528574    0.000264
      4          6           0        1.155541   -0.486833    0.000196
      5          6           0       -0.128948   -0.950524    0.000327
      6          6           0       -1.481837   -0.408395    0.000154
      7          6           0       -2.515636   -1.373267   -0.000235
      8          6           0       -3.855106   -1.004366   -0.000430
      9          6           0       -4.201108    0.348251   -0.000166
     10          6           0       -3.194655    1.316143    0.000274
     11          6           0       -1.851239    0.952615    0.000419
     12          6           0        1.617299    0.932265   -0.000056
     13          8           0        0.887527    1.922010   -0.000125
     14          7           0        2.977553    1.107109   -0.000307
     15          1           0        4.652248    0.177377   -0.881179
     16          1           0        4.652188    0.177539    0.880876
     17          1           0        4.051921   -2.125884    0.000069
     18          1           0       -0.125057   -2.039023    0.000468
     19          1           0       -2.250831   -2.427505   -0.000404
     20          1           0       -4.627161   -1.768531   -0.000762
     21          1           0       -5.246456    0.644732   -0.000299
     22          1           0       -3.457942    2.370328    0.000508
     23          1           0       -1.073479    1.702397    0.000692
     24          1           0        3.256222    2.080043   -0.000772
 ---------------------------------------------------------------------

 SCF Done:  E(UB3LYP) =  -610.133729775     A.U. after   21 cycles

 The electronic state is 2-A.
 Alpha  occ. eigenvalues --  -18.93983 -14.20324 -14.16748 -10.12635 -10.09790
 Alpha  occ. eigenvalues --  -10.06007 -10.03627 -10.03182 -10.02806 -10.02793
 Alpha  occ. eigenvalues --  -10.02416 -10.02381 -10.00815 -10.00473  -0.89687
 Alpha  occ. eigenvalues --   -0.81156  -0.76447  -0.70936  -0.64256  -0.61396
 Alpha  occ. eigenvalues --   -0.59978  -0.57003  -0.50570  -0.48545  -0.45903
 Alpha  occ. eigenvalues --   -0.43664  -0.39583  -0.38056  -0.36334  -0.34813
 Alpha  occ. eigenvalues --   -0.33972  -0.31146  -0.30698  -0.29222  -0.29045
 Alpha  occ. eigenvalues --   -0.27319  -0.26587  -0.25578  -0.23120  -0.22954
 Alpha  occ. eigenvalues --   -0.21509  -0.20342  -0.18976  -0.14572  -0.14048
 Alpha  occ. eigenvalues --   -0.12876  -0.11397  -0.09952  -0.07675   0.03517
 Alpha virt. eigenvalues --    0.07637   0.09045   0.09945   0.10565   0.10817
 Alpha virt. eigenvalues --    0.11646   0.11974   0.12463   0.12821   0.13300
 Alpha virt. eigenvalues --    0.14584   0.14654   0.15826   0.16916   0.17062

  Beta  occ. eigenvalues --  -18.93885 -14.20271 -14.16790 -10.12570 -10.09820
  Beta  occ. eigenvalues --  -10.05719 -10.03482 -10.03256 -10.02878 -10.02833
  Beta  occ. eigenvalues --  -10.02242 -10.02099 -10.00614 -10.00010  -0.89510
  Beta  occ. eigenvalues --   -0.80975  -0.76293  -0.70650  -0.63678  -0.61051
  Beta  occ. eigenvalues --   -0.59744  -0.56714  -0.50118  -0.47981  -0.45784
  Beta  occ. eigenvalues --   -0.43359  -0.39428  -0.37868  -0.36142  -0.34481
  Beta  occ. eigenvalues --   -0.33672  -0.30980  -0.30534  -0.29092  -0.28904
  Beta  occ. eigenvalues --   -0.27216  -0.25923  -0.25423  -0.22713  -0.22297
  Beta  occ. eigenvalues --   -0.20799  -0.20104  -0.18882  -0.13968  -0.12927
  Beta  occ. eigenvalues --   -0.12378  -0.10726  -0.09879  -0.05897
  Beta virt. eigenvalues --    0.07620   0.09023   0.09240   0.09920   0.10540
  Beta virt. eigenvalues --    0.10832   0.11628   0.12441   0.13016   0.13183
  Beta virt. eigenvalues --    0.13281   0.14571   0.15536   0.15809   0.16890

 Mulliken charges and spin densities:
               1          2
     1  C   -0.343873  -0.021576
     2  C    0.040470   0.212443
     3  N    0.010180  -0.027669
     4  C   -0.462312   0.058848
     5  C   -0.236895   0.355733
     6  C    1.229662  -0.037998
     7  C    0.080847   0.141379
     8  C   -0.336516  -0.052313
     9  C   -0.412744   0.232628
    10  C   -0.376070  -0.069360
    11  C   -1.234314   0.150634
    12  C    0.373266   0.039284
    13  O   -0.416515   0.034170
    14  N   -0.324007   0.016327
    15  H    0.105210   0.018733
    16  H    0.105220   0.018777
    17  H    0.139925  -0.014662
    18  H    0.171517  -0.025283
    19  H    0.092589  -0.006282
    20  H    0.112540   0.002917
    21  H    0.089495  -0.017275
    22  H    0.137082   0.004257
    23  H    0.177089  -0.011882
    24  H    0.278155  -0.001829
 Sum of Mulliken charges =  -1.00000   1.00000

 Dipole moment (field-independent basis, Debye):
    X=              3.1102    Y=              0.4349    Z=             -0.0009  Tot=              3.1405
 Quadrupole moment (field-independent basis, Debye-Ang):
   XX=           -107.9808   YY=            -97.9098   ZZ=            -91.9049
   XY=              5.7868   XZ=             -0.0027   YZ=              0.0010

 Summary of Natural Population Analysis:

                                       Natural Population
                Natural  -----------------------------------------------
    Atom  No    Charge         Core      Valence    Rydberg      Total
 -----------------------------------------------------------------------
      C    1   -0.11494      0.99963     2.10677    0.00853     3.11494
      C    2    0.08573      0.99965     1.89817    0.01645     2.91427
      N    3   -0.24494      0.99970     2.72992    0.01532     3.74494
      C    4    0.06854      0.99942     1.92245    0.00958     2.93146
      C    5    0.01662      0.99957     1.96386    0.01995     2.98338
      C    6   -0.05488      0.99952     2.04544    0.00992     3.05488
      C    7   -0.04287      0.99944     2.03477    0.00866     3.04287
      C    8   -0.14238      0.99959     2.13265    0.01014     3.14238
      C    9   -0.05324      0.99957     2.04390    0.00977     3.05324
      C   10   -0.13360      0.99957     2.12464    0.00939     3.13360
      C   11   -0.04624      0.99953     2.03824    0.00847     3.04624
      C   12    0.32189      0.99966     1.65164    0.02680     2.67811
      O   13   -0.33545      0.99987     3.32759    0.00799     4.33545
      N   14   -0.31665      0.99968     2.80776    0.00921     3.81665
      H   15    0.08853      0.00000     0.40961    0.00186     0.41147
      H   16    0.08852      0.00000     0.40961    0.00186     0.41148
      H   17    0.06931      0.00000     0.42908    0.00161     0.43069
      H   18    0.08748      0.00000     0.41109    0.00143     0.41252
      H   19    0.08838      0.00000     0.40981    0.00181     0.41162
      H   20    0.08980      0.00000     0.40904    0.00117     0.41020
      H   21    0.08505      0.00000     0.41382    0.00112     0.41495
      H   22    0.09025      0.00000     0.40869    0.00105     0.40975
      H   23    0.12111      0.00000     0.37757    0.00133     0.37889
      H   24    0.18441      0.00000     0.31274    0.00285     0.31559
 =======================================================================
   * Total *    0.00043     13.99441    34.81885    0.18630    48.99957

 Normal termination of Gaussian 16 at Thu Dec 10 09:35:58 2020.
