 Gaussian 16, Revision A.03,

 -----------------------------------------------------------
 # opt freq B3LYP/6-31G(d) empiricaldispersion=gd3bj scf=xqc
 -----------------------------------------------------------

 -------------------------------
 CID_117312198_JID_6991_neutraal
 -------------------------------
 Symbolic Z-matrix:
 Charge =  0 Multiplicity = 1

 SCF Done:  E(RB3LYP) =  -741.695567536     A.U. after   14 cycles
 SCF Done:  E(RB3LYP) =  -741.701264946     A.U. after   12 cycles
 SCF Done:  E(RB3LYP) =  -741.703460424     A.U. after   12 cycles
 SCF Done:  E(RB3LYP) =  -741.705073182     A.U. after   13 cycles
 SCF Done:  E(RB3LYP) =  -741.706887481     A.U. after   12 cycles
 SCF Done:  E(RB3LYP) =  -741.708142818     A.U. after   12 cycles
 SCF Done:  E(RB3LYP) =  -741.708918096     A.U. after   13 cycles
 SCF Done:  E(RB3LYP) =  -741.709319929     A.U. after   12 cycles
 SCF Done:  E(RB3LYP) =  -741.709580303     A.U. after   12 cycles
 SCF Done:  E(RB3LYP) =  -741.709682021     A.U. after   12 cycles
 SCF Done:  E(RB3LYP) =  -741.710076020     A.U. after   10 cycles
 SCF Done:  E(RB3LYP) =  -741.710077190     A.U. after    8 cycles
 SCF Done:  E(RB3LYP) =  -741.710077996     A.U. after    9 cycles
 SCF Done:  E(RB3LYP) =  -741.710078286     A.U. after    7 cycles
 SCF Done:  E(RB3LYP) =  -741.710078517     A.U. after    8 cycles
 Optimization completed.
    -- Stationary point found.
 Normal termination of Gaussian 16 at Fri Dec 11 01:28:06 2020.

 --------------------------------------------------------------------
 #N Geom=AllCheck Guess=TCheck SCRF=Check GenChk RB3LYP/6-31G(d) Freq
 --------------------------------------------------------------------

 Structure from the checkpoint file:  "JID_6991.chk"
 -------------------------------
 CID_117312198_JID_6991_neutraal
 -------------------------------
 Charge =  0 Multiplicity = 1

 SCF Done:  E(RB3LYP) =  -741.710078517     A.U. after    1 cycles

  Exact polarizability: 210.201   4.221 151.691  -0.329  -0.011  68.618
 Approx polarizability: 293.231   9.834 247.546   0.307  -4.785 109.295

                      1                      2                      3
                      A                      A                      A
 Frequencies --     31.6929                73.8105                89.3473
 Red. masses --      3.9018                 4.2262                 4.5267
 Frc consts  --      0.0023                 0.0136                 0.0213
 IR Inten    --      0.9768                 5.7018                 2.0318

                      4                      5                      6
                      A                      A                      A
 Frequencies --    101.2611               108.4875               141.5971
 Red. masses --      1.0588                 4.4309                 2.7440
 Frc consts  --      0.0064                 0.0307                 0.0324
 IR Inten    --      7.5927                 1.5349                 8.8623

                      7                      8                      9
                      A                      A                      A
 Frequencies --    165.8776               175.0875               208.7658
 Red. masses --      1.1133                 3.0861                 1.1770
 Frc consts  --      0.0180                 0.0557                 0.0302
 IR Inten    --      0.6216                 4.2692                35.8024

                     10                     11                     12
                      A                      A                      A
 Frequencies --    230.1439               239.9213               260.0343
 Red. masses --      3.8976                 4.4251                 3.9054
 Frc consts  --      0.1216                 0.1501                 0.1556
 IR Inten    --      0.8934                 1.9557                 6.4934

                     13                     14                     15
                      A                      A                      A
 Frequencies --    273.8144               303.2016               335.0900
 Red. masses --      4.7826                 3.6394                 1.1183
 Frc consts  --      0.2113                 0.1971                 0.0740
 IR Inten    --      0.6282                 1.1391               114.8100

                     16                     17                     18
                      A                      A                      A
 Frequencies --    363.0595               385.3573               419.0205
 Red. masses --      6.4761                 6.0484                 5.0837
 Frc consts  --      0.5029                 0.5292                 0.5259
 IR Inten    --      5.8477                 6.5053                 2.3936

                     19                     20                     21
                      A                      A                      A
 Frequencies --    466.4604               488.8102               527.7440
 Red. masses --      4.2367                 4.2968                 4.7205
 Frc consts  --      0.5431                 0.6049                 0.7746
 IR Inten    --      0.5207                 4.6855                 4.2444

                     22                     23                     24
                      A                      A                      A
 Frequencies --    576.8030               614.9280               636.3032
 Red. masses --      3.3288                 3.8381                 4.2005
 Frc consts  --      0.6525                 0.8551                 1.0020
 IR Inten    --      4.0460                 5.0003                21.7157

                     25                     26                     27
                      A                      A                      A
 Frequencies --    670.4483               690.8360               709.2464
 Red. masses --      5.5981                 6.3002                 4.2272
 Frc consts  --      1.4826                 1.7716                 1.2529
 IR Inten    --     38.3334                 1.2829                 1.4077

                     28                     29                     30
                      A                      A                      A
 Frequencies --    741.3872               764.9099               771.7835
 Red. masses --      1.5323                 2.7669                 4.2383
 Frc consts  --      0.4962                 0.9538                 1.4874
 IR Inten    --     30.5017                16.0490                13.9744

                     31                     32                     33
                      A                      A                      A
 Frequencies --    799.0694               813.3867               820.4953
 Red. masses --      4.0783                 1.4966                 1.9485
 Frc consts  --      1.5342                 0.5834                 0.7729
 IR Inten    --      7.0257               222.2301                25.8058

                     34                     35                     36
                      A                      A                      A
 Frequencies --    889.5526               913.4648               924.8905
 Red. masses --      1.4596                 5.1913                 1.3373
 Frc consts  --      0.6805                 2.5522                 0.6740
 IR Inten    --     14.0063                19.7457                 1.6598

                     37                     38                     39
                      A                      A                      A
 Frequencies --   1013.2739              1053.1324              1055.9531
 Red. masses --      4.3769                 4.6806                 2.3472
 Frc consts  --      2.6477                 3.0585                 1.5420
 IR Inten    --     31.4254                69.5053                13.1624

                     40                     41                     42
                      A                      A                      A
 Frequencies --   1093.8857              1136.1755              1157.0594
 Red. masses --      1.8710                 1.7469                 1.3752
 Frc consts  --      1.3191                 1.3287                 1.0848
 IR Inten    --      4.7646                 9.2992                16.2807

                     43                     44                     45
                      A                      A                      A
 Frequencies --   1161.6665              1187.5488              1204.4254
 Red. masses --      1.3362                 1.2610                 1.6079
 Frc consts  --      1.0624                 1.0478                 1.3743
 IR Inten    --      6.8804                 0.3457                86.4616

                     46                     47                     48
                      A                      A                      A
 Frequencies --   1221.1860              1226.2387              1255.7691
 Red. masses --      1.4204                 1.5048                 1.8967
 Frc consts  --      1.2481                 1.3331                 1.7623
 IR Inten    --     23.4632                41.4459                55.7334

                     49                     50                     51
                      A                      A                      A
 Frequencies --   1267.8164              1291.7924              1321.4775
 Red. masses --      2.4177                 2.2857                 5.2655
 Frc consts  --      2.2896                 2.2473                 5.4176
 IR Inten    --     11.9145                94.4115                 8.4649

                     52                     53                     54
                      A                      A                      A
 Frequencies --   1332.1683              1348.5776              1421.7440
 Red. masses --      3.9363                 5.5865                 6.4324
 Frc consts  --      4.1158                 5.9860                 7.6607
 IR Inten    --     67.4969                89.6448                48.9818

                     55                     56                     57
                      A                      A                      A
 Frequencies --   1462.9772              1466.8799              1489.4726
 Red. masses --      1.5400                 2.2209                 1.2881
 Frc consts  --      1.9420                 2.8156                 1.6837
 IR Inten    --      4.9264                25.1702                17.2285

                     58                     59                     60
                      A                      A                      A
 Frequencies --   1513.0874              1513.4582              1525.1614
 Red. masses --      1.0506                 1.2678                 1.6329
 Frc consts  --      1.4172                 1.7110                 2.2378
 IR Inten    --      0.7585                25.4704                 1.5124

                     61                     62                     63
                      A                      A                      A
 Frequencies --   1534.3959              1537.2019              1555.6765
 Red. masses --      1.5191                 1.0991                 2.8141
 Frc consts  --      2.1072                 1.5302                 4.0126
 IR Inten    --     12.4825                 2.7025                67.6962

                     64                     65                     66
                      A                      A                      A
 Frequencies --   1559.8454              1613.1776              1638.7264
 Red. masses --      3.6696                 4.3829                 6.5525
 Frc consts  --      5.2605                 6.7201                10.3675
 IR Inten    --    123.3154               132.9267                27.2647

                     67                     68                     69
                      A                      A                      A
 Frequencies --   1679.7615              1693.7038              3023.4278
 Red. masses --      6.0836                 1.2178                 1.0412
 Frc consts  --     10.1136                 2.0582                 5.6076
 IR Inten    --     28.7378                60.4960                77.8303

                     70                     71                     72
                      A                      A                      A
 Frequencies --   3048.7024              3111.4224              3127.3813
 Red. masses --      1.0444                 1.0917                 1.0918
 Frc consts  --      5.7195                 6.2271                 6.2918
 IR Inten    --     66.4334                32.2652                13.7635

                     73                     74                     75
                      A                      A                      A
 Frequencies --   3148.4926              3169.3811              3174.9720
 Red. masses --      1.1064                 1.0892                 1.1043
 Frc consts  --      6.4622                 6.4460                 6.5590
 IR Inten    --     28.1201                22.2495                 3.8245

                     76                     77                     78
                      A                      A                      A
 Frequencies --   3208.0459              3217.6764              3273.5131
 Red. masses --      1.0926                 1.0903                 1.0970
 Frc consts  --      6.6253                 6.6511                 6.9257
 IR Inten    --     12.8225                 3.1512                 2.1046

                     79                     80                     81
                      A                      A                      A
 Frequencies --   3498.0603              3605.4340              3755.4546
 Red. masses --      1.0529                 1.0908                 1.0659
 Frc consts  --      7.5910                 8.3546                 8.8574
 IR Inten    --      3.5775                12.1797                43.6208

 - Thermochemistry -
 -------------------
 Temperature   298.150 Kelvin.  Pressure   1.00000 Atm.
 Atom     1 has atomic number  6 and mass  12.00000

 Molecular mass:   219.10078 amu.
 Principal axes and moments of inertia in atomic units:
                           1         2         3
     Eigenvalues --  2004.119715299.928607032.97174
           X            0.99999  -0.00445  -0.00026
           Y            0.00445   0.99982   0.01857
           Z            0.00018  -0.01857   0.99983
 This molecule is an asymmetric top.
 Rotational symmetry number  1.
 Warning -- assumption of classical behavior for rotation
           may cause significant error
 Rotational temperatures (Kelvin)      0.04322     0.01634     0.01232
 Rotational constants (GHZ):           0.90052     0.34052     0.25661
 Zero-point vibrational energy     613812.7 (Joules/Mol)
                                  146.70476 (Kcal/Mol)
 Warning -- explicit consideration of  23 degrees of freedom as
           vibrations may cause significant error
 Vibrational temperatures:     45.60   106.20   128.55   145.69   156.09
          (Kelvin)            203.73   238.66   251.91   300.37   331.13
                              345.19   374.13   393.96   436.24   482.12
                              522.36   554.44   602.88   671.13   703.29
                              759.31   829.89   884.74   915.50   964.63
                              993.96  1020.45  1066.69  1100.53  1110.42
                             1149.68  1170.28  1180.51  1279.87  1314.27
                             1330.71  1457.88  1515.22  1519.28  1573.86
                             1634.70  1664.75  1671.38  1708.62  1732.90
                             1757.01  1764.28  1806.77  1824.10  1858.60
                             1901.31  1916.69  1940.30  2045.57  2104.90
                             2110.51  2143.02  2177.00  2177.53  2194.37
                             2207.65  2211.69  2238.27  2244.27  2321.00
                             2357.76  2416.80  2436.86  4350.04  4386.40
                             4476.64  4499.60  4529.98  4560.03  4568.08
                             4615.66  4629.52  4709.86  5032.93  5187.42
                             5403.26

 Zero-point correction=                           0.233789 (Hartree/Particle)
 Thermal correction to Energy=                    0.249144
 Thermal correction to Enthalpy=                  0.250088
 Thermal correction to Gibbs Free Energy=         0.191113
 Sum of electronic and zero-point Energies=           -741.476290
 Sum of electronic and thermal Energies=              -741.460935
 Sum of electronic and thermal Enthalpies=            -741.459990
 Sum of electronic and thermal Free Energies=         -741.518966

                     E (Thermal)             CV                S
                      KCal/Mol        Cal/Mol-Kelvin    Cal/Mol-Kelvin
 Total                  156.340             57.614            124.124
 Electronic               0.000              0.000              0.000
 Translational            0.889              2.981             42.056
 Rotational               0.889              2.981             32.679
 Vibrational            154.563             51.652             49.388
 Vibration     1          0.594              1.983              5.721
 Vibration     2          0.599              1.966              4.049
 Vibration     3          0.602              1.957              3.674
 Vibration     4          0.604              1.948              3.430
 Vibration     5          0.606              1.942              3.296
 Vibration     6          0.615              1.912              2.782
 Vibration     7          0.624              1.884              2.482
 Vibration     8          0.627              1.873              2.380
 Vibration     9          0.642              1.827              2.054
 Vibration    10          0.652              1.795              1.878
 Vibration    11          0.657              1.779              1.803
 Vibration    12          0.668              1.746              1.662
 Vibration    13          0.676              1.722              1.572
 Vibration    14          0.695              1.668              1.399
 Vibration    15          0.716              1.605              1.235
 Vibration    16          0.737              1.548              1.109
 Vibration    17          0.754              1.501              1.018
 Vibration    18          0.782              1.429              0.895
 Vibration    19          0.824              1.324              0.748
 Vibration    20          0.845              1.275              0.687
 Vibration    21          0.883              1.189              0.592
 Vibration    22          0.933              1.081              0.491
 Vibration    23          0.974              1.000              0.425

 Optimization completed.
    -- Stationary point found.
 Normal termination of Gaussian 16 at Fri Dec 11 01:36:40 2020.

 ----------------------------------------------------------------------
 # B3LYP/6-311++G(d,p) empiricaldispersion=gd3bj scf=xqc pop=npa geom=c
 heck
 ----------------------------------------------------------------------

 ---------------------------------------
 CID_117312198_JID_6991_Energie_neutraal
 ---------------------------------------
 Structure from the checkpoint file:  "JID_6991.chk"
 Charge =  0 Multiplicity = 1

 SCF Done:  E(RB3LYP) =  -741.925138583     A.U. after   16 cycles
 Normal termination of Gaussian 16 at Fri Dec 11 01:40:05 2020.

 ----------------------------------------------------------------------
 # B3LYP/6-311++G(d,p) empiricaldispersion=gd3bj scf=xqc pop=npa geom=c
 heck
 ----------------------------------------------------------------------

 -------------------------------------
 CID_117312198_JID_6991_Energie_kation
 -------------------------------------
 Structure from the checkpoint file:  "JID_6991.chk"
 Charge =  1 Multiplicity = 2

 SCF Done:  E(UB3LYP) =  -741.654679372     A.U. after   25 cycles
 Normal termination of Gaussian 16 at Fri Dec 11 01:47:24 2020.
 Gaussian 16:  ES64L-G16RevA.03 25-Dec-2016

 ----------------------------------------------------------------------
 # B3LYP/6-311++G(d,p) empiricaldispersion=gd3bj scf=xqc pop=npa geom=c
 heck
 ----------------------------------------------------------------------

 ------------------------------------
 CID_117312198_JID_6991_Energie_anion
 ------------------------------------
 Structure from the checkpoint file:  "JID_6991.chk"
 Charge = -1 Multiplicity = 2

                         Standard orientation:
 ---------------------------------------------------------------------
 Center     Atomic      Atomic             Coordinates (Angstroms)
 Number     Number       Type             X           Y           Z
 ---------------------------------------------------------------------
      1          6           0        3.908691    0.951927    0.598699
      2          7           0        2.752138    0.158599    0.251419
      3          6           0        2.739993   -1.119366   -0.224898
      4          6           0        1.411428   -1.455327   -0.416063
      5          6           0        0.682546   -0.294512   -0.042184
      6          7           0        1.504477    0.685691    0.347997
      7          6           0       -0.781846   -0.149130   -0.048988
      8          6           0       -1.438218    1.058794   -0.369091
      9          6           0       -2.831916    1.105934   -0.390140
     10          6           0       -3.598766   -0.021404   -0.104056
     11          6           0       -2.956454   -1.221557    0.208084
     12          6           0       -1.563949   -1.278255    0.231268
     13          8           0       -3.639320   -2.374117    0.502084
     14          8           0       -0.738614    2.186244   -0.735704
     15          6           0       -0.469828    3.088948    0.336125
     16          7           0        3.934377   -1.841757   -0.364132
     17          1           0        4.696006    0.286787    0.962383
     18          1           0        4.281750    1.523151   -0.260711
     19          1           0        3.617754    1.648636    1.386043
     20          1           0        1.023823   -2.383166   -0.810145
     21          1           0       -3.308841    2.043854   -0.657787
     22          1           0       -4.685453    0.032092   -0.128785
     23          1           0       -1.087272   -2.216679    0.493078
     24          1           0       -4.589799   -2.189216    0.457943
     25          1           0       -1.401676    3.410366    0.822483
     26          1           0        0.199536    2.627569    1.068093
     27          1           0        0.021623    3.956441   -0.111693
     28          1           0        3.747708   -2.807425   -0.611965
     29          1           0        4.561287   -1.443466   -1.059502
 ---------------------------------------------------------------------

 SCF Done:  E(UB3LYP) =  -741.917829312     A.U. after   33 cycles
 SCF Done:  E(UB3LYP) =  -741.917829312     a.u. after    1 cycles

 The electronic state is 2-A.
 Alpha  occ. eigenvalues --  -19.05947 -19.03962 -14.28647 -14.22448 -14.22314
 Alpha  occ. eigenvalues --  -10.14254 -10.14179 -10.13014 -10.12030 -10.11558
 Alpha  occ. eigenvalues --  -10.10020 -10.09589 -10.08588 -10.08412 -10.07868
 Alpha  occ. eigenvalues --  -10.06088  -0.96918  -0.95761  -0.95113  -0.81819
 Alpha  occ. eigenvalues --   -0.76803  -0.74227  -0.67174  -0.66712  -0.65416
 Alpha  occ. eigenvalues --   -0.60750  -0.58754  -0.54561  -0.51191  -0.50301
 Alpha  occ. eigenvalues --   -0.47300  -0.44841  -0.42728  -0.41877  -0.40407
 Alpha  occ. eigenvalues --   -0.39615  -0.37857  -0.36686  -0.35953  -0.35104
 Alpha  occ. eigenvalues --   -0.34575  -0.33676  -0.32775  -0.32446  -0.31817
 Alpha  occ. eigenvalues --   -0.30609  -0.29922  -0.29518  -0.26457  -0.26111
 Alpha  occ. eigenvalues --   -0.23331  -0.22121  -0.19271  -0.18517  -0.17939
 Alpha  occ. eigenvalues --   -0.14038  -0.12835  -0.11773   0.03701
 Alpha virt. eigenvalues --    0.04743   0.06308   0.06780   0.07484   0.08277
 Alpha virt. eigenvalues --    0.08809   0.09138   0.09667   0.10464   0.10635
 Alpha virt. eigenvalues --    0.11449   0.11874   0.12040   0.12995   0.13198

  Beta  occ. eigenvalues --  -19.05907 -19.03961 -14.28644 -14.22360 -14.22310
  Beta  occ. eigenvalues --  -10.14255 -10.14175 -10.13014 -10.12028 -10.11524
  Beta  occ. eigenvalues --  -10.10018 -10.09586 -10.08586 -10.08387 -10.07861
  Beta  occ. eigenvalues --  -10.06080  -0.96839  -0.95756  -0.95102  -0.81703
  Beta  occ. eigenvalues --   -0.76785  -0.74204  -0.67151  -0.66660  -0.65393
  Beta  occ. eigenvalues --   -0.60717  -0.58730  -0.54528  -0.51150  -0.50283
  Beta  occ. eigenvalues --   -0.47232  -0.44752  -0.42702  -0.41823  -0.40351
  Beta  occ. eigenvalues --   -0.39567  -0.37823  -0.36676  -0.35925  -0.35079
  Beta  occ. eigenvalues --   -0.34564  -0.33638  -0.32741  -0.32424  -0.31791
  Beta  occ. eigenvalues --   -0.30578  -0.29892  -0.29490  -0.26442  -0.26086
  Beta  occ. eigenvalues --   -0.23312  -0.22063  -0.19255  -0.18497  -0.17932
  Beta  occ. eigenvalues --   -0.14024  -0.12811  -0.11740
  Beta virt. eigenvalues --    0.06156   0.06349   0.06553   0.07219   0.07994
  Beta virt. eigenvalues --    0.08544   0.08908   0.09605   0.09967   0.10848
  Beta virt. eigenvalues --    0.10912   0.11496   0.11925   0.12249   0.13114

 Mulliken charges and spin densities:
               1          2
     1  C    0.441865  -0.831650
     2  N    0.330583  -0.156651
     3  C    0.044259  -0.336421
     4  C   -0.476073   0.616249
     5  C    0.843908  -1.201823
     6  N   -0.357027   0.196624
     7  C    2.113992  -0.240338
     8  C   -1.425597   0.439394
     9  C   -0.169822   0.148085
    10  C    0.341238  -0.079142
    11  C   -0.154871  -0.528188
    12  C    0.051082  -1.014117
    13  O   -0.257033   0.024458
    14  O   -0.109907  -0.000040
    15  C   -0.214297  -0.079650
    16  N   -0.492616   0.115423
    17  H   -0.128791   0.296388
    18  H   -0.184787   0.373563
    19  H    0.038093   0.120600
    20  H   -0.083567   0.254591
    21  H    0.172722   0.003398
    22  H   -0.635146   0.785821
    23  H    0.178469  -0.008754
    24  H   -0.264556   0.544289
    25  H    0.065046   0.041986
    26  H    0.141570   0.023618
    27  H    0.134374   0.003177
    28  H   -0.437132   0.711180
    29  H   -0.505979   0.777929
 Sum of Mulliken charges =  -1.00000   1.00000

 Dipole moment (field-independent basis, Debye):
    X=             -2.4639    Y=              5.5508    Z=              2.0813  Tot=              6.4198
 Quadrupole moment (field-independent basis, Debye-Ang):
   XX=           -206.0364   YY=           -130.9375   ZZ=           -119.9532
   XY=              3.8386   XZ=             11.7354   YZ=              0.2955

 Summary of Natural Population Analysis:

                                       Natural Population
                Natural  -----------------------------------------------
    Atom  No    Charge         Core      Valence    Rydberg      Total
 -----------------------------------------------------------------------
      C    1   -0.17679      0.99964     2.16893    0.00822     3.17679
      N    2   -0.11635      0.99962     2.60384    0.01289     3.61635
      C    3    0.18233      0.99950     1.80451    0.01366     2.81767
      C    4   -0.17710      0.99947     2.16905    0.00858     3.17710
      C    5    0.07107      0.99956     1.91418    0.01519     2.92893
      N    6   -0.16244      0.99970     2.65120    0.01154     3.66244
      C    7   -0.03729      0.99945     2.02915    0.00868     3.03729
      C    8    0.14852      0.99933     1.83939    0.01275     2.85148
      C    9   -0.11026      0.99952     2.10057    0.01017     3.11026
      C   10   -0.13814      0.99952     2.12843    0.01018     3.13814
      C   11    0.15388      0.99938     1.83341    0.01333     2.84612
      C   12   -0.11302      0.99950     2.10587    0.00765     3.11302
      O   13   -0.34116      0.99988     3.33449    0.00679     4.34116
      O   14   -0.28879      0.99986     3.27954    0.00939     4.28879
      C   15   -0.09743      0.99959     2.08976    0.00808     3.09743
      N   16   -0.40712      0.99973     2.89722    0.01017     3.90712
      H   17    0.10729      0.00000     0.39142    0.00129     0.39271
      H   18    0.09693      0.00000     0.40169    0.00138     0.40307
      H   19    0.10425      0.00000     0.39456    0.00120     0.39575
      H   20    0.10986      0.00000     0.38922    0.00092     0.39014
      H   21    0.10332      0.00000     0.39563    0.00105     0.39668
      H   22    0.10258      0.00000     0.39558    0.00184     0.39742
      H   23    0.10831      0.00000     0.39039    0.00130     0.39169
      H   24    0.23738      0.00000     0.25454    0.00809     0.26262
      H   25    0.07467      0.00000     0.42402    0.00131     0.42533
      H   26    0.09582      0.00000     0.40258    0.00160     0.40418
      H   27    0.08550      0.00000     0.41338    0.00112     0.41450
      H   28    0.19141      0.00000     0.30394    0.00465     0.30859
      H   29    0.19278      0.00000     0.29319    0.01403     0.30722
 =======================================================================
   * Total *   -0.00000     15.99325    41.79970    0.20705    58.00000

 Normal termination of Gaussian 16 at Fri Dec 11 01:57:26 2020.
