 Gaussian 16, Revision A.03,

 -----------------------------------------------------------
 # opt freq B3LYP/6-31G(d) empiricaldispersion=gd3bj scf=xqc
 -----------------------------------------------------------

 ------------------------------
 CID_43239713_JID_7135_neutraal
 ------------------------------
 Symbolic Z-matrix:
 Charge =  0 Multiplicity = 1

 SCF Done:  E(RB3LYP) =  -1145.00447894     A.U. after   14 cycles
 SCF Done:  E(RB3LYP) =  -1144.92264802     A.U. after   14 cycles
 SCF Done:  E(RB3LYP) =  -1145.00782139     A.U. after   12 cycles
 SCF Done:  E(RB3LYP) =  -1145.00932601     A.U. after   13 cycles
 SCF Done:  E(RB3LYP) =  -1145.00933529     A.U. after   12 cycles
 SCF Done:  E(RB3LYP) =  -1145.00909983     A.U. after   12 cycles
 SCF Done:  E(RB3LYP) =  -1145.00951892     A.U. after   13 cycles
 SCF Done:  E(RB3LYP) =  -1145.00978414     A.U. after   12 cycles
 SCF Done:  E(RB3LYP) =  -1145.00984167     A.U. after   11 cycles
 SCF Done:  E(RB3LYP) =  -1145.00987311     A.U. after   12 cycles
 SCF Done:  E(RB3LYP) =  -1145.00999812     A.U. after    8 cycles
 SCF Done:  E(RB3LYP) =  -1145.00999873     A.U. after    8 cycles
 SCF Done:  E(RB3LYP) =  -1145.00999899     A.U. after    8 cycles
 SCF Done:  E(RB3LYP) =  -1145.00999902     A.U. after    8 cycles
 SCF Done:  E(RB3LYP) =  -1145.00999902     A.U. after    7 cycles
 Optimization completed.
    -- Stationary point found.
 Normal termination of Gaussian 16 at Mon Dec 14 13:25:34 2020.

 --------------------------------------------------------------------
 #N Geom=AllCheck Guess=TCheck SCRF=Check GenChk RB3LYP/6-31G(d) Freq
 --------------------------------------------------------------------

 Structure from the checkpoint file:  "JID_7135.chk"
 ------------------------------
 CID_43239713_JID_7135_neutraal
 ------------------------------
 Charge =  0 Multiplicity = 1

 SCF Done:  E(RB3LYP) =  -1145.00999902     A.U. after    1 cycles

  Exact polarizability: 132.444 -17.618 166.639  14.979   4.699 140.804
 Approx polarizability: 180.066 -26.325 269.173  37.208  21.039 254.874

                      1                      2                      3
                      A                      A                      A
 Frequencies --     25.5179                34.1180                44.2018
 Red. masses --      6.6410                 8.6129                 6.1167
 Frc consts  --      0.0025                 0.0059                 0.0070
 IR Inten    --      0.4019                 2.1017                 0.9612

                      4                      5                      6
                      A                      A                      A
 Frequencies --     54.6241                56.6773                77.2037
 Red. masses --      3.8430                 5.0018                 4.8141
 Frc consts  --      0.0068                 0.0095                 0.0169
 IR Inten    --      2.3027                 0.2653                 1.5564

                      7                      8                      9
                      A                      A                      A
 Frequencies --     86.6097               109.4850               143.5672
 Red. masses --      5.4088                 3.9391                 1.1246
 Frc consts  --      0.0239                 0.0278                 0.0137
 IR Inten    --      3.4281                 1.0291                 0.5572

                     10                     11                     12
                      A                      A                      A
 Frequencies --    160.1013               216.0633               232.8529
 Red. masses --      4.5027                 5.1496                 2.8864
 Frc consts  --      0.0680                 0.1416                 0.0922
 IR Inten    --      3.0307                 1.2790                 1.0406

                     13                     14                     15
                      A                      A                      A
 Frequencies --    284.7565               326.1394               330.1532
 Red. masses --      4.9445                 5.2549                 3.8668
 Frc consts  --      0.2362                 0.3293                 0.2483
 IR Inten    --      4.2503                 6.7734                 2.5462

                     16                     17                     18
                      A                      A                      A
 Frequencies --    386.7627               408.0471               418.7989
 Red. masses --      3.1259                 4.3534                 3.9004
 Frc consts  --      0.2755                 0.4271                 0.4031
 IR Inten    --      1.5845                 0.4503                 0.5902

                     19                     20                     21
                      A                      A                      A
 Frequencies --    429.2584               441.0672               458.1781
 Red. masses --      5.5316                 2.9912                 2.3790
 Frc consts  --      0.6005                 0.3428                 0.2942
 IR Inten    --      4.5977                 2.9235                 4.3787

                     22                     23                     24
                      A                      A                      A
 Frequencies --    493.0148               526.2063               587.6985
 Red. masses --      3.4188                 1.9230                 3.8167
 Frc consts  --      0.4896                 0.3137                 0.7767
 IR Inten    --      5.5647                22.8889                35.0610

                     25                     26                     27
                      A                      A                      A
 Frequencies --    616.4855               631.8539               663.8612
 Red. masses --      3.3527                 6.2624                 4.6429
 Frc consts  --      0.7507                 1.4731                 1.2056
 IR Inten    --     60.6875                 0.4752                 1.7454

                     28                     29                     30
                      A                      A                      A
 Frequencies --    700.7728               702.8705               709.1078
 Red. masses --      1.9714                 2.0262                 3.6061
 Frc consts  --      0.5704                 0.5898                 1.0683
 IR Inten    --     54.8520                51.7948                 3.2416

                     31                     32                     33
                      A                      A                      A
 Frequencies --    719.6337               754.7545               791.6168
 Red. masses --      3.3402                 1.5665                 3.5757
 Frc consts  --      1.0192                 0.5258                 1.3202
 IR Inten    --      5.6585                46.9869                 8.2674

                     34                     35                     36
                      A                      A                      A
 Frequencies --    846.0642               858.3554               907.6442
 Red. masses --      1.2636                 4.1259                 1.6958
 Frc consts  --      0.5329                 1.7910                 0.8231
 IR Inten    --      1.8499                 2.6637                 9.0003

                     37                     38                     39
                      A                      A                      A
 Frequencies --    910.4264               964.4161               967.2354
 Red. masses --      1.8267                 1.3610                 2.4371
 Frc consts  --      0.8921                 0.7458                 1.3434
 IR Inten    --      1.2281                 0.3836                14.5199

                     40                     41                     42
                      A                      A                      A
 Frequencies --    985.7672               989.5757              1011.7686
 Red. masses --      2.0870                 1.2599                 2.2938
 Frc consts  --      1.1949                 0.7269                 1.3834
 IR Inten    --     14.8482                 0.7079                 1.7748

                     43                     44                     45
                      A                      A                      A
 Frequencies --   1019.6860              1053.6550              1055.6952
 Red. masses --      6.1524                 2.2935                 2.8493
 Frc consts  --      3.7690                 1.5002                 1.8710
 IR Inten    --      2.1637                10.6349                 5.3185

                     46                     47                     48
                      A                      A                      A
 Frequencies --   1112.2511              1115.8658              1129.0219
 Red. masses --      2.0299                 2.0348                 1.5921
 Frc consts  --      1.4795                 1.4928                 1.1957
 IR Inten    --      4.1310                 4.0740                55.4874

                     49                     50                     51
                      A                      A                      A
 Frequencies --   1167.5102              1184.0003              1194.4174
 Red. masses --      1.3092                 1.4614                 1.0988
 Frc consts  --      1.0514                 1.2070                 0.9236
 IR Inten    --     12.7161                61.1305                 1.6113

                     52                     53                     54
                      A                      A                      A
 Frequencies --   1203.5605              1219.6283              1232.8077
 Red. masses --      1.7950                 1.1595                 1.2730
 Frc consts  --      1.5320                 1.0162                 1.1399
 IR Inten    --    131.4122                 6.4594                26.0566

                     55                     56                     57
                      A                      A                      A
 Frequencies --   1271.6749              1314.3328              1327.3978
 Red. masses --      1.5306                 2.3838                 1.5412
 Frc consts  --      1.4584                 2.4262                 1.5999
 IR Inten    --     29.9960                13.2839                16.4086

                     58                     59                     60
                      A                      A                      A
 Frequencies --   1338.7870              1366.7515              1369.9217
 Red. masses --      2.2264                 1.6695                 1.5444
 Frc consts  --      2.3511                 1.8375                 1.7076
 IR Inten    --      4.8576                 0.9931                 5.3548

                     61                     62                     63
                      A                      A                      A
 Frequencies --   1380.5273              1391.6552              1448.1918
 Red. masses --      1.5503                 1.9962                 1.4495
 Frc consts  --      1.7408                 2.2778                 1.7911
 IR Inten    --     23.9303                25.2888                46.8529

                     64                     65                     66
                      A                      A                      A
 Frequencies --   1468.9272              1487.5424              1493.4218
 Red. masses --      1.3964                 1.6745                 1.3056
 Frc consts  --      1.7753                 2.1831                 1.7156
 IR Inten    --     41.1244                 2.1666                14.4352

                     67                     68                     69
                      A                      A                      A
 Frequencies --   1500.1542              1529.1414              1532.0311
 Red. masses --      1.2235                 1.1256                 1.8492
 Frc consts  --      1.6223                 1.5507                 2.5573
 IR Inten    --     39.6426                 7.4852                13.5233

                     70                     71                     72
                      A                      A                      A
 Frequencies --   1533.9518              1541.4296              1636.2712
 Red. masses --      1.0587                 1.2947                 5.3966
 Frc consts  --      1.4678                 1.8125                 8.5129
 IR Inten    --     13.6486                40.1058                 1.6828

                     73                     74                     75
                      A                      A                      A
 Frequencies --   1648.3546              1756.6273              1852.3960
 Red. masses --      5.3737                 9.7331                10.0852
 Frc consts  --      8.6025                17.6954                20.3893
 IR Inten    --     17.0354               239.8011               297.4864

                     76                     77                     78
                      A                      A                      A
 Frequencies --   3047.1357              3078.2683              3090.5778
 Red. masses --      1.0402                 1.0656                 1.0605
 Frc consts  --      5.6908                 5.9490                 5.9682
 IR Inten    --     41.4082                 6.9654                24.6174

                     79                     80                     81
                      A                      A                      A
 Frequencies --   3093.3854              3107.2627              3129.1677
 Red. masses --      1.0628                 1.1027                 1.1034
 Frc consts  --      5.9918                 6.2728                 6.3655
 IR Inten    --      6.1624                22.7824                 3.1271

                     82                     83                     84
                      A                      A                      A
 Frequencies --   3138.3693              3152.1977              3184.6296
 Red. masses --      1.1028                 1.0980                 1.0852
 Frc consts  --      6.3996                 6.4281                 6.4847
 IR Inten    --      1.6458                20.6869                 1.5001

                     85                     86                     87
                      A                      A                      A
 Frequencies --   3194.3486              3201.2203              3202.3244
 Red. masses --      1.0883                 1.0970                 1.0928
 Frc consts  --      6.5426                 6.6233                 6.6026
 IR Inten    --      2.9737                 0.4535                18.9861

                     88                     89                     90
                      A                      A                      A
 Frequencies --   3212.2969              3230.6747              3684.3723
 Red. masses --      1.0965                 1.0929                 1.0640
 Frc consts  --      6.6663                 6.7210                 8.5101
 IR Inten    --     21.8429                 4.1349                59.8265

 - Thermochemistry -
 -------------------
 Temperature   298.150 Kelvin.  Pressure   1.00000 Atm.
 Atom     1 has atomic number  6 and mass  12.00000

 Molecular mass:   253.07727 amu.
 Principal axes and moments of inertia in atomic units:
                           1         2         3
     Eigenvalues --  3194.981625288.864315855.83992
           X            0.99969  -0.02467   0.00336
           Y            0.02469   0.99967  -0.00768
           Z           -0.00317   0.00776   0.99996
 This molecule is an asymmetric top.
 Rotational symmetry number  1.
 Warning -- assumption of classical behavior for rotation
           may cause significant error
 Rotational temperatures (Kelvin)      0.02711     0.01638     0.01479
 Rotational constants (GHZ):           0.56487     0.34123     0.30820
 Zero-point vibrational energy     680000.1 (Joules/Mol)
                                  162.52392 (Kcal/Mol)
 Warning -- explicit consideration of  25 degrees of freedom as
           vibrations may cause significant error
 Vibrational temperatures:     36.71    49.09    63.60    78.59    81.55
          (Kelvin)            111.08   124.61   157.52   206.56   230.35
                              310.87   335.02   409.70   469.24   475.02
                              556.47   587.09   602.56   617.61   634.60
                              659.22   709.34   757.09   845.57   886.99
                              909.10   955.15  1008.26  1011.27  1020.25
                             1035.39  1085.92  1138.96  1217.30  1234.98
                             1305.90  1309.90  1387.58  1391.64  1418.30
                             1423.78  1455.71  1467.10  1515.97  1518.91
                             1600.28  1605.48  1624.41  1679.79  1703.51
                             1718.50  1731.66  1754.77  1773.74  1829.66
                             1891.03  1909.83  1926.22  1966.45  1971.01
                             1986.27  2002.28  2083.62  2113.46  2140.24
                             2148.70  2158.39  2200.09  2204.25  2207.01
                             2217.77  2354.23  2371.61  2527.39  2665.18
                             4384.15  4428.94  4446.65  4450.69  4470.66
                             4502.17  4515.41  4535.31  4581.97  4595.96
                             4605.84  4607.43  4621.78  4648.22  5300.99

 Zero-point correction=                           0.258998 (Hartree/Particle)
 Thermal correction to Energy=                    0.276059
 Thermal correction to Enthalpy=                  0.277003
 Thermal correction to Gibbs Free Energy=         0.211649
 Sum of electronic and zero-point Energies=          -1144.751001
 Sum of electronic and thermal Energies=             -1144.733940
 Sum of electronic and thermal Enthalpies=           -1144.732996
 Sum of electronic and thermal Free Energies=        -1144.798350

                     E (Thermal)             CV                S
                      KCal/Mol        Cal/Mol-Kelvin    Cal/Mol-Kelvin
 Total                  173.229             62.559            137.548
 Electronic               0.000              0.000              0.000
 Translational            0.889              2.981             42.486
 Rotational               0.889              2.981             32.959
 Vibrational            171.452             56.598             62.104
 Vibration     1          0.593              1.985              6.151
 Vibration     2          0.594              1.983              5.574
 Vibration     3          0.595              1.980              5.061
 Vibration     4          0.596              1.976              4.643
 Vibration     5          0.596              1.975              4.570
 Vibration     6          0.599              1.964              3.961
 Vibration     7          0.601              1.959              3.735
 Vibration     8          0.606              1.942              3.278
 Vibration     9          0.616              1.910              2.756
 Vibration    10          0.622              1.891              2.549
 Vibration    11          0.645              1.817              1.992
 Vibration    12          0.654              1.791              1.857
 Vibration    13          0.683              1.702              1.505
 Vibration    14          0.710              1.623              1.279
 Vibration    15          0.713              1.615              1.259
 Vibration    16          0.755              1.498              1.013
 Vibration    17          0.773              1.453              0.934
 Vibration    18          0.782              1.429              0.896
 Vibration    19          0.791              1.407              0.861
 Vibration    20          0.801              1.381              0.823
 Vibration    21          0.816              1.343              0.771
 Vibration    22          0.849              1.266              0.676
 Vibration    23          0.881              1.192              0.596
 Vibration    24          0.945              1.058              0.471
 Vibration    25          0.976              0.997              0.422

                           ! Non-Optimized Parameters !
 Normal termination of Gaussian 16 at Mon Dec 14 13:39:17 2020.

 ----------------------------------------------------------------------
 # B3LYP/6-311++G(d,p) empiricaldispersion=gd3bj scf=xqc pop=npa geom=c
 heck
 ----------------------------------------------------------------------

 --------------------------------------
 CID_43239713_JID_7135_Energie_neutraal
 --------------------------------------
 Structure from the checkpoint file:  "JID_7135.chk"
 Charge =  0 Multiplicity = 1

 SCF Done:  E(RB3LYP) =  -1145.25705197     A.U. after   16 cycles
 Normal termination of Gaussian 16 at Mon Dec 14 13:45:39 2020.

 ----------------------------------------------------------------------
 # B3LYP/6-311++G(d,p) empiricaldispersion=gd3bj scf=xqc pop=npa geom=c
 heck
 ----------------------------------------------------------------------

 ------------------------------------
 CID_43239713_JID_7135_Energie_kation
 ------------------------------------
 Structure from the checkpoint file:  "JID_7135.chk"
 Charge =  1 Multiplicity = 2

 SCF Done:  E(UB3LYP) =  -1144.96582147     A.U. after   25 cycles
 Normal termination of Gaussian 16 at Mon Dec 14 13:59:47 2020.
 Gaussian 16:  ES64L-G16RevA.03 25-Dec-2016

 ----------------------------------------------------------------------
 # B3LYP/6-311++G(d,p) empiricaldispersion=gd3bj scf=xqc pop=npa geom=c
 heck
 ----------------------------------------------------------------------

 -----------------------------------
 CID_43239713_JID_7135_Energie_anion
 -----------------------------------
 Structure from the checkpoint file:  "JID_7135.chk"
 Charge = -1 Multiplicity = 2

                         Standard orientation:
 ---------------------------------------------------------------------
 Center     Atomic      Atomic             Coordinates (Angstroms)
 Number     Number       Type             X           Y           Z
 ---------------------------------------------------------------------
      1          6           0       -0.760267   -1.648287    1.589986
      2          7           0       -0.975359   -0.465915    0.766326
      3          6           0       -1.471370   -0.706520   -0.568592
      4          6           0       -2.985881   -0.797946   -0.706335
      5          8           0       -3.546421   -1.294202   -1.656382
      6          8           0       -3.641026   -0.223749    0.328195
      7          6           0       -0.698009    0.768567    1.290873
      8          8           0       -0.210260    0.911967    2.408873
      9          6           0       -0.980388    2.012026    0.449890
     10          6           0        0.318365    2.670306   -0.028435
     11         16           0        1.166182    1.822771   -1.422886
     12          6           0        1.823433    0.322305   -0.698383
     13          6           0        1.804345   -0.833270   -1.490762
     14          6           0        2.345834   -2.024822   -1.008111
     15          6           0        2.892499   -2.078717    0.274685
     16          6           0        2.906767   -0.927738    1.064841
     17          6           0        2.392091    0.272724    0.579274
     18          1           0       -0.010784   -2.298240    1.125743
     19          1           0       -1.699238   -2.202810    1.709109
     20          1           0       -0.402467   -1.319798    2.563714
     21          1           0       -1.121905    0.061128   -1.264179
     22          1           0       -1.056666   -1.647018   -0.941858
     23          1           0       -4.591753   -0.312338    0.126084
     24          1           0       -1.658055    1.846710   -0.388652
     25          1           0       -1.475074    2.707409    1.136766
     26          1           0        0.108365    3.664948   -0.432988
     27          1           0        1.004856    2.796948    0.811920
     28          1           0        1.359479   -0.797068   -2.481040
     29          1           0        2.328781   -2.913089   -1.633595
     30          1           0        3.302971   -3.008994    0.656235
     31          1           0        3.326284   -0.958571    2.066167
     32          1           0        2.410946    1.153938    1.209396
 ---------------------------------------------------------------------

 SCF Done:  E(UB3LYP) =  -1145.24872692     A.U. after   33 cycles
 SCF Done:  E(UB3LYP) =  -1145.24872692     a.u. after    1 cycles

 The electronic state is 2-A.
 Alpha  occ. eigenvalues --  -88.75078 -19.07921 -19.02582 -18.98592 -14.25008
 Alpha  occ. eigenvalues --  -10.21674 -10.17218 -10.13014 -10.10935 -10.10701
 Alpha  occ. eigenvalues --  -10.09844 -10.08478 -10.08388 -10.08298 -10.08229
 Alpha  occ. eigenvalues --  -10.07894 -10.07699  -7.83666  -5.80059  -5.79673
 Alpha  occ. eigenvalues --   -5.79070  -1.02078  -0.94028  -0.93247  -0.84626
 Alpha  occ. eigenvalues --   -0.77007  -0.71809  -0.67156  -0.66306  -0.65570
 Alpha  occ. eigenvalues --   -0.62472  -0.59191  -0.53773  -0.53114  -0.51428
 Alpha  occ. eigenvalues --   -0.48584  -0.46451  -0.42388  -0.41593  -0.41048
 Alpha  occ. eigenvalues --   -0.40343  -0.37815  -0.36788  -0.36489  -0.36107
 Alpha  occ. eigenvalues --   -0.35534  -0.34420  -0.33623  -0.33168  -0.31339
 Alpha  occ. eigenvalues --   -0.31115  -0.30606  -0.29665  -0.28661  -0.28400
 Alpha  occ. eigenvalues --   -0.28133  -0.26795  -0.25777  -0.24792  -0.23600
 Alpha  occ. eigenvalues --   -0.22318  -0.20504  -0.18441  -0.16557  -0.15953
 Alpha  occ. eigenvalues --   -0.14976  -0.12270   0.04147
 Alpha virt. eigenvalues --    0.05844   0.06153   0.07136   0.07424   0.07892
 Alpha virt. eigenvalues --    0.08332   0.08832   0.09075   0.09720   0.10231
 Alpha virt. eigenvalues --    0.10799   0.11259   0.11775   0.12154   0.12362

  Beta  occ. eigenvalues --  -88.75073 -19.07861 -19.02557 -18.98583 -14.24998
  Beta  occ. eigenvalues --  -10.21657 -10.17191 -10.13001 -10.10877 -10.10614
  Beta  occ. eigenvalues --  -10.09829 -10.08462 -10.08392 -10.08309 -10.08191
  Beta  occ. eigenvalues --  -10.07848 -10.07613  -7.83662  -5.80054  -5.79670
  Beta  occ. eigenvalues --   -5.79057  -1.01990  -0.93999  -0.93174  -0.84601
  Beta  occ. eigenvalues --   -0.76891  -0.71719  -0.67034  -0.66251  -0.65480
  Beta  occ. eigenvalues --   -0.62387  -0.59126  -0.53651  -0.52992  -0.51386
  Beta  occ. eigenvalues --   -0.48469  -0.46389  -0.42325  -0.41530  -0.40995
  Beta  occ. eigenvalues --   -0.40298  -0.37766  -0.36707  -0.36417  -0.36032
  Beta  occ. eigenvalues --   -0.35458  -0.34361  -0.33575  -0.33141  -0.31288
  Beta  occ. eigenvalues --   -0.31056  -0.30568  -0.29613  -0.28623  -0.28190
  Beta  occ. eigenvalues --   -0.28021  -0.26720  -0.25719  -0.24724  -0.23519
  Beta  occ. eigenvalues --   -0.22186  -0.20437  -0.18153  -0.16357  -0.15910
  Beta  occ. eigenvalues --   -0.14912  -0.12037
  Beta virt. eigenvalues --    0.06295   0.06782   0.07215   0.07389   0.08018
  Beta virt. eigenvalues --    0.08092   0.08554   0.09030   0.09361   0.09848
  Beta virt. eigenvalues --    0.10537   0.10817   0.11484   0.12133   0.12339

 Mulliken charges and spin densities:
               1          2
     1  C    0.209046  -0.504968
     2  N    0.544187  -0.067983
     3  C   -0.100535  -0.291046
     4  C    0.102384  -0.173773
     5  O   -0.248923   0.015662
     6  O   -0.229441   0.054284
     7  C   -0.418320  -0.040682
     8  O   -0.294678   0.010556
     9  C   -0.295900   0.367042
    10  C    0.556949  -1.057878
    11  S    0.452082  -0.637274
    12  C    0.327153   0.331690
    13  C   -0.281132   0.153184
    14  C   -0.346911  -0.092479
    15  C    0.177027  -0.374795
    16  C   -0.171751  -0.101692
    17  C   -0.504889   0.095475
    18  H    0.076078   0.097515
    19  H   -0.089717   0.247440
    20  H    0.105139   0.047955
    21  H    0.021524   0.195405
    22  H    0.307391  -0.098245
    23  H   -0.435644   0.746381
    24  H   -0.108805   0.246556
    25  H   -0.111029   0.326715
    26  H   -0.442766   0.700269
    27  H    0.191834  -0.011990
    28  H    0.124955   0.055318
    29  H   -0.195644   0.354282
    30  H   -0.105317   0.247953
    31  H    0.103196   0.065862
    32  H    0.082457   0.093258
 Sum of Mulliken charges =  -1.00000   1.00000

 Dipole moment (field-independent basis, Debye):
    X=              4.5045    Y=             -1.9609    Z=             -0.0229  Tot=              4.9128
 Quadrupole moment (field-independent basis, Debye-Ang):
   XX=           -178.5350   YY=           -153.2431   ZZ=           -143.1207
   XY=              0.6678   XZ=              1.6016   YZ=             -1.4375

 Summary of Natural Population Analysis:

                                       Natural Population
                Natural  -----------------------------------------------
    Atom  No    Charge         Core      Valence    Rydberg      Total
 -----------------------------------------------------------------------
      C    1   -0.18050      0.99963     2.17339    0.00748     3.18050
      N    2   -0.25269      0.99963     2.73954    0.01352     3.75269
      C    3   -0.14210      0.99955     2.13056    0.01199     3.14210
      C    4    0.40302      0.99972     1.57276    0.02450     2.59698
      O    5   -0.30553      0.99987     3.29936    0.00630     4.30553
      O    6   -0.33907      0.99988     3.33211    0.00708     4.33907
      C    7    0.35645      0.99963     1.61964    0.02429     2.64355
      O    8   -0.33089      0.99988     3.32590    0.00512     4.33089
      C    9   -0.23478      0.99957     2.22475    0.01047     3.23478
      C   10   -0.24289      0.99957     2.23220    0.01111     3.24289
      S   11    0.11394      4.99954     2.86787    0.01866     7.88606
      C   12   -0.07872      0.99940     2.06697    0.01235     3.07872
      C   13   -0.11463      0.99950     2.10488    0.01026     3.11463
      C   14   -0.09831      0.99956     2.08841    0.01034     3.09831
      C   15   -0.09835      0.99956     2.08849    0.01029     3.09835
      C   16   -0.09784      0.99956     2.08914    0.00914     3.09784
      C   17   -0.09811      0.99948     2.08916    0.00947     3.09811
      H   18    0.09870      0.00000     0.40012    0.00118     0.40130
      H   19    0.09239      0.00000     0.40670    0.00091     0.40761
      H   20    0.11650      0.00000     0.38245    0.00105     0.38350
      H   21    0.12540      0.00000     0.37275    0.00185     0.37460
      H   22    0.11511      0.00000     0.38368    0.00121     0.38489
      H   23    0.24618      0.00000     0.23455    0.01927     0.25382
      H   24    0.10406      0.00000     0.39396    0.00198     0.39594
      H   25    0.11679      0.00000     0.38187    0.00135     0.38321
      H   26    0.11200      0.00000     0.38588    0.00212     0.38800
      H   27    0.10617      0.00000     0.39245    0.00138     0.39383
      H   28    0.10284      0.00000     0.39586    0.00130     0.39716
      H   29    0.09975      0.00000     0.39939    0.00086     0.40025
      H   30    0.09911      0.00000     0.40008    0.00081     0.40089
      H   31    0.10009      0.00000     0.39914    0.00077     0.39991
      H   32    0.10593      0.00000     0.39270    0.00137     0.39407
 =======================================================================
   * Total *   -0.00000     20.99353    45.76670    0.23977    67.00000

 Normal termination of Gaussian 16 at Mon Dec 14 14:18:53 2020.
