 Gaussian 16, Revision A.03,

 -----------------------------------------------------------
 # opt freq B3LYP/6-31G(d) empiricaldispersion=gd3bj scf=xqc
 -----------------------------------------------------------

 -------------------------------
 CID_150597674_JID_1439_neutraal
 -------------------------------
 Symbolic Z-matrix:
 Charge =  0 Multiplicity = 1

 SCF Done:  E(RB3LYP) =  -512.865946986     A.U. after   14 cycles
 SCF Done:  E(RB3LYP) =  -512.869604545     A.U. after   12 cycles
 SCF Done:  E(RB3LYP) =  -512.870066815     A.U. after   11 cycles
 SCF Done:  E(RB3LYP) =  -512.869981131     A.U. after   12 cycles
 SCF Done:  E(RB3LYP) =  -512.869921211     A.U. after   12 cycles
 SCF Done:  E(RB3LYP) =  -512.869699273     A.U. after   11 cycles
 SCF Done:  E(RB3LYP) =  -512.870140137     A.U. after    9 cycles
 SCF Done:  E(RB3LYP) =  -512.870421175     A.U. after   12 cycles
 SCF Done:  E(RB3LYP) =  -512.870446626     A.U. after   10 cycles
 SCF Done:  E(RB3LYP) =  -512.870464452     A.U. after   10 cycles
 SCF Done:  E(RB3LYP) =  -512.875322654     A.U. after    8 cycles
 SCF Done:  E(RB3LYP) =  -512.875323768     A.U. after    9 cycles
 SCF Done:  E(RB3LYP) =  -512.875324487     A.U. after    8 cycles
 SCF Done:  E(RB3LYP) =  -512.875324627     A.U. after    7 cycles
 SCF Done:  E(RB3LYP) =  -512.875324655     A.U. after    7 cycles
 Optimization completed.
    -- Stationary point found.
 Normal termination of Gaussian 16 at Tue Dec  8 20:14:38 2020.

 --------------------------------------------------------------------
 #N Geom=AllCheck Guess=TCheck SCRF=Check GenChk RB3LYP/6-31G(d) Freq
 --------------------------------------------------------------------

 Structure from the checkpoint file:  "JID_1439.chk"
 -------------------------------
 CID_150597674_JID_1439_neutraal
 -------------------------------
 Charge =  0 Multiplicity = 1

 SCF Done:  E(RB3LYP) =  -512.875324655     A.U. after    1 cycles

  Exact polarizability: 125.399   2.624  92.810   6.116  -4.523  58.199
 Approx polarizability: 171.741   1.742 152.970  12.933 -12.787  91.413

                      1                      2                      3
                      A                      A                      A
 Frequencies --     35.7779                75.2176               131.5970
 Red. masses --      5.0917                 4.3579                 4.4291
 Frc consts  --      0.0038                 0.0145                 0.0452
 IR Inten    --      0.4030                 1.4708                 1.3318

                      4                      5                      6
                      A                      A                      A
 Frequencies --    206.9568               223.0130               279.4260
 Red. masses --      3.6511                 1.1683                 1.3311
 Frc consts  --      0.0921                 0.0342                 0.0612
 IR Inten    --      2.3564                 0.1603                18.9404

                      7                      8                      9
                      A                      A                      A
 Frequencies --    295.1050               329.7304               375.7061
 Red. masses --      2.6373                 2.7825                 3.9806
 Frc consts  --      0.1353                 0.1782                 0.3311
 IR Inten    --     19.4986                 3.0094                 5.0513

                     10                     11                     12
                      A                      A                      A
 Frequencies --    392.7279               411.5769               498.9070
 Red. masses --      3.2088                 4.0214                 2.9175
 Frc consts  --      0.2916                 0.4014                 0.4279
 IR Inten    --     10.1437                 3.6240                17.9561

                     13                     14                     15
                      A                      A                      A
 Frequencies --    522.9511               538.3209               600.5360
 Red. masses --      2.8035                 3.7001                 1.1105
 Frc consts  --      0.4517                 0.6318                 0.2360
 IR Inten    --     21.1346                27.7208                87.5910

                     16                     17                     18
                      A                      A                      A
 Frequencies --    656.3887               666.5787               786.6990
 Red. masses --      7.7598                 3.4559                 3.1502
 Frc consts  --      1.9698                 0.9047                 1.1487
 IR Inten    --      7.6480                 3.1424                 3.9718

                     19                     20                     21
                      A                      A                      A
 Frequencies --    823.4201               845.2948               875.9078
 Red. masses --      1.4342                 4.0083                 2.0847
 Frc consts  --      0.5729                 1.6874                 0.9423
 IR Inten    --      6.7310                10.2012                22.4461

                     22                     23                     24
                      A                      A                      A
 Frequencies --    927.8626               999.0273              1002.6886
 Red. masses --      2.0412                 1.3994                 1.3857
 Frc consts  --      1.0354                 0.8229                 0.8208
 IR Inten    --    121.7369                 0.1158                 0.0321

                     25                     26                     27
                      A                      A                      A
 Frequencies --   1018.9474              1033.6614              1061.9233
 Red. masses --      8.2817                 1.5675                 3.6569
 Frc consts  --      5.0661                 0.9868                 2.4297
 IR Inten    --      2.2980                 1.6497               106.3914

                     28                     29                     30
                      A                      A                      A
 Frequencies --   1093.8842              1104.1215              1120.5625
 Red. masses --      1.8455                 2.4448                 1.8668
 Frc consts  --      1.3011                 1.7560                 1.3811
 IR Inten    --     11.9286                 4.2195                11.2082

                     31                     32                     33
                      A                      A                      A
 Frequencies --   1148.9075              1152.1845              1223.3075
 Red. masses --      1.6338                 2.1476                 1.5225
 Frc consts  --      1.2706                 1.6798                 1.3423
 IR Inten    --      1.6063                21.5217                 2.3092

                     34                     35                     36
                      A                      A                      A
 Frequencies --   1251.2412              1285.5057              1312.2029
 Red. masses --      5.8267                 1.8875                 1.5170
 Frc consts  --      5.3747                 1.8378                 1.5390
 IR Inten    --      3.3948                11.5931                10.1755

                     37                     38                     39
                      A                      A                      A
 Frequencies --   1323.6804              1369.2913              1382.0756
 Red. masses --      1.6082                 1.4555                 1.3574
 Frc consts  --      1.6602                 1.6079                 1.5277
 IR Inten    --      6.8215                 9.7424                15.7334

                     40                     41                     42
                      A                      A                      A
 Frequencies --   1399.1696              1440.6848              1467.6699
 Red. masses --      1.1996                 1.2327                 2.3949
 Frc consts  --      1.3836                 1.5075                 3.0395
 IR Inten    --     69.3902                 1.1892               193.9301

                     43                     44                     45
                      A                      A                      A
 Frequencies --   1479.6773              1506.1893              1515.9466
 Red. masses --      1.9109                 1.4695                 1.0883
 Frc consts  --      2.4650                 1.9642                 1.4736
 IR Inten    --      6.9128               100.2340                19.4276

                     46                     47                     48
                      A                      A                      A
 Frequencies --   1526.7053              1615.8935              1641.3605
 Red. masses --      1.0686                 5.9514                 5.2881
 Frc consts  --      1.4675                 9.1558                 8.3937
 IR Inten    --     27.6149                76.6555                95.1423

                     49                     50                     51
                      A                      A                      A
 Frequencies --   1705.5675              2983.9124              3019.0542
 Red. masses --      1.0896                 1.0830                 1.0831
 Frc consts  --      1.8675                 5.6815                 5.8165
 IR Inten    --     23.0885                47.5348                27.1279

                     52                     53                     54
                      A                      A                      A
 Frequencies --   3075.8139              3138.6793              3171.9895
 Red. masses --      1.0374                 1.1013                 1.1018
 Frc consts  --      5.7827                 6.3923                 6.5313
 IR Inten    --     16.9205                24.8277                20.0891

                     55                     56                     57
                      A                      A                      A
 Frequencies --   3176.5205              3183.6835              3230.5563
 Red. masses --      1.0906                 1.0913                 1.0962
 Frc consts  --      6.4839                 6.5168                 6.7404
 IR Inten    --     19.6308                21.6682                11.7453

                     58                     59                     60
                      A                      A                      A
 Frequencies --   3451.6445              3537.1215              3553.3532
 Red. masses --      1.0508                 1.0896                 1.0655
 Frc consts  --      7.3763                 8.0322                 7.9268
 IR Inten    --      0.3370                 0.4116               300.5841

 - Thermochemistry -
 -------------------
 Temperature   298.150 Kelvin.  Pressure   1.00000 Atm.
 Atom     1 has atomic number  6 and mass  12.00000

 Molecular mass:   153.09021 amu.
 Principal axes and moments of inertia in atomic units:
                           1         2         3
     Eigenvalues --   800.935342339.714272998.36262
           X            0.99986   0.01648   0.00338
           Y           -0.01650   0.99985   0.00427
           Z           -0.00331  -0.00433   0.99999
 This molecule is an asymmetric top.
 Rotational symmetry number  1.
 Warning -- assumption of classical behavior for rotation
           may cause significant error
 Rotational temperatures (Kelvin)      0.10814     0.03702     0.02889
 Rotational constants (GHZ):           2.25329     0.77135     0.60191
 Zero-point vibrational energy     485708.4 (Joules/Mol)
                                  116.08710 (Kcal/Mol)
 Warning -- explicit consideration of  15 degrees of freedom as
           vibrations may cause significant error
 Vibrational temperatures:     51.48   108.22   189.34   297.76   320.87
          (Kelvin)            402.03   424.59   474.41   540.56   565.05
                              592.17   717.82   752.41   774.52   864.04
                              944.40   959.06  1131.88  1184.72  1216.19
                             1260.24  1334.99  1437.38  1442.65  1466.04
                             1487.21  1527.87  1573.86  1588.58  1612.24
                             1653.02  1657.74  1760.07  1800.26  1849.56
                             1887.97  1904.48  1970.10  1988.50  2013.09
                             2072.82  2111.65  2128.93  2167.07  2181.11
                             2196.59  2324.91  2361.55  2453.93  4293.18
                             4343.75  4425.41  4515.86  4563.79  4570.30
                             4580.61  4648.05  4966.15  5089.13  5112.48

 Zero-point correction=                           0.184997 (Hartree/Particle)
 Thermal correction to Energy=                    0.195218
 Thermal correction to Enthalpy=                  0.196162
 Thermal correction to Gibbs Free Energy=         0.148843
 Sum of electronic and zero-point Energies=           -512.690328
 Sum of electronic and thermal Energies=              -512.680107
 Sum of electronic and thermal Enthalpies=            -512.679163
 Sum of electronic and thermal Free Energies=         -512.726482

                     E (Thermal)             CV                S
                      KCal/Mol        Cal/Mol-Kelvin    Cal/Mol-Kelvin
 Total                  122.501             39.053             99.591
 Electronic               0.000              0.000              0.000
 Translational            0.889              2.981             40.987
 Rotational               0.889              2.981             30.109
 Vibrational            120.723             33.091             28.494
 Vibration     1          0.594              1.982              5.480
 Vibration     2          0.599              1.966              4.012
 Vibration     3          0.612              1.922              2.923
 Vibration     4          0.641              1.830              2.070
 Vibration     5          0.649              1.806              1.934
 Vibration     6          0.680              1.712              1.537
 Vibration     7          0.689              1.683              1.445
 Vibration     8          0.713              1.616              1.261
 Vibration     9          0.747              1.522              1.056
 Vibration    10          0.760              1.486              0.990
 Vibration    11          0.776              1.445              0.921
 Vibration    12          0.854              1.252              0.661
 Vibration    13          0.878              1.199              0.603
 Vibration    14          0.893              1.165              0.569
 Vibration    15          0.959              1.031              0.449

 Optimization completed.
    -- Stationary point found.
 Normal termination of Gaussian 16 at Tue Dec  8 20:19:29 2020.

 ----------------------------------------------------------------------
 # B3LYP/6-311++G(d,p) empiricaldispersion=gd3bj scf=xqc pop=npa geom=c
 heck
 ----------------------------------------------------------------------

 ---------------------------------------
 CID_150597674_JID_1439_Energie_neutraal
 ---------------------------------------
 Structure from the checkpoint file:  "JID_1439.chk"
 Charge =  0 Multiplicity = 1

 SCF Done:  E(RB3LYP) =  -513.031814005     A.U. after   14 cycles
 Normal termination of Gaussian 16 at Tue Dec  8 20:21:23 2020.

 ----------------------------------------------------------------------
 # B3LYP/6-311++G(d,p) empiricaldispersion=gd3bj scf=xqc pop=npa geom=c
 heck
 ----------------------------------------------------------------------

 -------------------------------------
 CID_150597674_JID_1439_Energie_kation
 -------------------------------------
 Structure from the checkpoint file:  "JID_1439.chk"
 Charge =  1 Multiplicity = 2

 SCF Done:  E(UB3LYP) =  -512.703670564     A.U. after   26 cycles
 Normal termination of Gaussian 16 at Tue Dec  8 20:26:50 2020.
 Gaussian 16:  ES64L-G16RevA.03 25-Dec-2016

 ----------------------------------------------------------------------
 # B3LYP/6-311++G(d,p) empiricaldispersion=gd3bj scf=xqc pop=npa geom=c
 heck
 ----------------------------------------------------------------------

 ------------------------------------
 CID_150597674_JID_1439_Energie_anion
 ------------------------------------
 Structure from the checkpoint file:  "JID_1439.chk"
 Charge = -1 Multiplicity = 2

                         Standard orientation:
 ---------------------------------------------------------------------
 Center     Atomic      Atomic             Coordinates (Angstroms)
 Number     Number       Type             X           Y           Z
 ---------------------------------------------------------------------
      1          6           0        1.297801    2.004449    0.259400
      2          6           0        0.962275    0.525689    0.457566
      3          6           0       -0.508654    0.231754    0.213776
      4          7           0       -0.912385   -1.044200    0.385039
      5          6           0       -2.202172   -1.319333    0.178412
      6          6           0       -3.117441   -0.338245   -0.191493
      7          6           0       -2.603278    0.944825   -0.353021
      8          7           0       -1.313176    1.236688   -0.157248
      9          6           0        1.857098   -0.409124   -0.411484
     10          7           0        3.245014   -0.023257   -0.296013
     11          8           0        1.709870   -1.771132   -0.036063
     12          1           0        1.142879    2.302650   -0.782213
     13          1           0        2.343858    2.183096    0.510484
     14          1           0        0.654952    2.635042    0.879075
     15          1           0        1.167752    0.237474    1.500010
     16          1           0       -2.503825   -2.355839    0.315432
     17          1           0       -4.166169   -0.562870   -0.350744
     18          1           0       -3.243158    1.773430   -0.652054
     19          1           0        1.573049   -0.268731   -1.467968
     20          1           0        3.552349   -0.260192    0.648912
     21          1           0        3.788291   -0.623675   -0.915119
     22          1           0        0.761105   -1.916041    0.161305
 ---------------------------------------------------------------------

 SCF Done:  E(UB3LYP) =  -513.029362272     A.U. after   33 cycles
 SCF Done:  E(UB3LYP) =  -513.029362272     a.u. after    2 cycles

 The electronic state is 2-A.
 Alpha  occ. eigenvalues --  -18.96853 -14.17777 -14.12355 -14.11947 -10.11381
 Alpha  occ. eigenvalues --  -10.07022 -10.03931 -10.02499 -10.02012 -10.01265
 Alpha  occ. eigenvalues --  -10.01100  -0.88517  -0.80419  -0.75806  -0.70455
 Alpha  occ. eigenvalues --   -0.65322  -0.59790  -0.52696  -0.48898  -0.47799
 Alpha  occ. eigenvalues --   -0.43819  -0.38811  -0.37112  -0.34246  -0.33776
 Alpha  occ. eigenvalues --   -0.32507  -0.29271  -0.27664  -0.26754  -0.26421
 Alpha  occ. eigenvalues --   -0.24941  -0.23313  -0.21429  -0.20560  -0.20140
 Alpha  occ. eigenvalues --   -0.15215  -0.14944  -0.13597  -0.13039  -0.11009
 Alpha  occ. eigenvalues --   -0.07586   0.06975
 Alpha virt. eigenvalues --    0.08533   0.09819   0.10715   0.11158   0.11753
 Alpha virt. eigenvalues --    0.12647   0.13218   0.13989   0.14319   0.15294
 Alpha virt. eigenvalues --    0.15801   0.16209   0.17958   0.18338   0.19883

  Beta  occ. eigenvalues --  -18.96849 -14.17773 -14.12113 -14.11376 -10.11382
  Beta  occ. eigenvalues --  -10.07062 -10.03932 -10.02105 -10.02011 -10.01254
  Beta  occ. eigenvalues --  -10.00677  -0.88503  -0.79729  -0.75795  -0.69473
  Beta  occ. eigenvalues --   -0.65149  -0.59403  -0.52662  -0.48833  -0.46658
  Beta  occ. eigenvalues --   -0.43680  -0.38732  -0.37023  -0.34087  -0.33401
  Beta  occ. eigenvalues --   -0.32402  -0.29125  -0.27569  -0.26650  -0.26263
  Beta  occ. eigenvalues --   -0.23554  -0.22916  -0.21204  -0.20374  -0.20040
  Beta  occ. eigenvalues --   -0.15176  -0.13548  -0.12535  -0.11835  -0.09684
  Beta  occ. eigenvalues --   -0.07150
  Beta virt. eigenvalues --    0.08559   0.09726   0.10645   0.11072   0.11676
  Beta virt. eigenvalues --    0.12558   0.13216   0.14194   0.14293   0.14627
  Beta virt. eigenvalues --    0.15185   0.15725   0.16107   0.18073   0.18299

 Mulliken charges and spin densities:
               1          2
     1  C   -0.708812   0.001605
     2  C    0.531870  -0.118116
     3  C   -0.830976   0.015303
     4  N   -0.165383   0.239904
     5  C   -0.056523   0.357094
     6  C   -0.183212  -0.141820
     7  C   -0.111510   0.516530
     8  N   -0.042856   0.088687
     9  C   -0.509084  -0.068495
    10  N   -0.345602   0.006190
    11  O   -0.281311   0.006087
    12  H    0.145367  -0.001245
    13  H    0.123048   0.003612
    14  H    0.144953  -0.001312
    15  H    0.178641   0.013495
    16  H    0.104053  -0.017032
    17  H    0.068000   0.033053
    18  H    0.093881  -0.015583
    19  H    0.176756   0.001742
    20  H    0.197876   0.025546
    21  H    0.166316   0.062290
    22  H    0.304509  -0.007535
 Sum of Mulliken charges =  -1.00000   1.00000

 Dipole moment (field-independent basis, Debye):
    X=              2.7413    Y=              0.0760    Z=              0.2421  Tot=              2.7530
 Quadrupole moment (field-independent basis, Debye-Ang):
   XX=            -95.3452   YY=            -87.5434   ZZ=            -73.8042
   XY=              2.4188   XZ=              1.5909   YZ=              1.3932

 Summary of Natural Population Analysis:

                                       Natural Population
                Natural  -----------------------------------------------
    Atom  No    Charge         Core      Valence    Rydberg      Total
 -----------------------------------------------------------------------
      C    1   -0.28268      0.99966     2.27771    0.00532     3.28268
      C    2   -0.13933      0.99955     2.12882    0.01097     3.13933
      C    3    0.21035      0.99959     1.77155    0.01851     2.78965
      N    4   -0.22467      0.99964     2.71128    0.01376     3.72467
      C    5    0.10779      0.99961     1.87825    0.01436     2.89221
      C    6   -0.18176      0.99955     2.17428    0.00792     3.18176
      C    7    0.13816      0.99961     1.84734    0.01489     2.86184
      N    8   -0.24288      0.99967     2.73111    0.01209     3.74288
      C    9    0.15095      0.99961     1.82854    0.02090     2.84905
      N   10   -0.42146      0.99976     2.91286    0.00884     3.92146
      O   11   -0.40528      0.99989     3.39850    0.00690     4.40528
      H   12    0.10108      0.00000     0.39802    0.00089     0.39892
      H   13    0.09598      0.00000     0.40316    0.00085     0.40402
      H   14    0.10322      0.00000     0.39591    0.00088     0.39678
      H   15    0.09718      0.00000     0.40118    0.00164     0.40282
      H   16    0.07293      0.00000     0.42586    0.00121     0.42707
      H   17    0.09171      0.00000     0.40709    0.00121     0.40829
      H   18    0.06787      0.00000     0.43036    0.00177     0.43213
      H   19    0.06758      0.00000     0.43058    0.00184     0.43242
      H   20    0.16962      0.00000     0.32830    0.00209     0.33038
      H   21    0.17161      0.00000     0.32617    0.00221     0.32839
      H   22    0.25203      0.00000     0.24479    0.00317     0.24797
 =======================================================================
   * Total *   -0.00000     10.99614    29.85166    0.15221    41.00000

 Normal termination of Gaussian 16 at Tue Dec  8 20:41:45 2020.
