 Gaussian 16, Revision A.03,

 -----------------------------------------------------------
 # opt freq B3LYP/6-31G(d) empiricaldispersion=gd3bj scf=xqc
 -----------------------------------------------------------

 ------------------------------
 CID_84107319_JID_1247_neutraal
 ------------------------------
 Symbolic Z-matrix:
 Charge =  0 Multiplicity = 1

 SCF Done:  E(RB3LYP) =  -478.157730417     A.U. after   14 cycles
 SCF Done:  E(RB3LYP) =  -478.160993914     A.U. after   12 cycles
 SCF Done:  E(RB3LYP) =  -478.161488728     A.U. after   12 cycles
 SCF Done:  E(RB3LYP) =  -478.161617026     A.U. after   11 cycles
 SCF Done:  E(RB3LYP) =  -478.161666754     A.U. after   10 cycles
 SCF Done:  E(RB3LYP) =  -478.161685387     A.U. after   10 cycles
 SCF Done:  E(RB3LYP) =  -478.161691583     A.U. after    9 cycles
 SCF Done:  E(RB3LYP) =  -478.161694842     A.U. after    8 cycles
 SCF Done:  E(RB3LYP) =  -478.161698780     A.U. after    8 cycles
 SCF Done:  E(RB3LYP) =  -478.161701083     A.U. after    9 cycles
 SCF Done:  E(RB3LYP) =  -478.161769353     A.U. after    9 cycles
 SCF Done:  E(RB3LYP) =  -478.161775323     A.U. after    9 cycles
 SCF Done:  E(RB3LYP) =  -478.161779329     A.U. after    9 cycles
 SCF Done:  E(RB3LYP) =  -478.161779503     A.U. after    7 cycles
 SCF Done:  E(RB3LYP) =  -478.161779570     A.U. after    6 cycles
 Optimization completed.
    -- Stationary point found.

 1\1\GINC-NODE316\FOpt\RB3LYP\6-31G(d)\C8H15N3\VSC10255\08-Dec-2020\0\\
 # opt freq B3LYP/6-31G(d) empiricaldispersion=gd3bj scf=xqc\\CID_84107
 319_JID_1247_neutraal\\0,1\C,1.1808888516,-0.0478627657,0.0536172721\C
 ,0.9690230779,-1.4977834932,-0.2636032522\C,1.4380113577,-2.6021852899
 ,0.4388047456\N,0.9531676244,-3.704243121,-0.2145703148\N,0.2170148192
 ,-3.3838048238,-1.3068439237\C,0.2221816956,-2.052496675,-1.3295985469
 \C,1.2586380419,-5.102457472,0.0384669508\C,2.3668394351,-5.621245735,
 -0.8789015033\N,3.5862304746,-4.8381109158,-0.7096425664\C,4.695658766

 Normal termination of Gaussian 16 at Tue Dec  8 19:34:58 2020.

 --------------------------------------------------------------------
 #N Geom=AllCheck Guess=TCheck SCRF=Check GenChk RB3LYP/6-31G(d) Freq
 --------------------------------------------------------------------

 Structure from the checkpoint file:  "JID_1247.chk"
 ------------------------------
 CID_84107319_JID_1247_neutraal
 ------------------------------
 Charge =  0 Multiplicity = 1

 SCF Done:  E(RB3LYP) =  -478.161779570     A.U. after    1 cycles

  Exact polarizability: 118.469  -5.615  98.231  12.614   6.417  87.367
 Approx polarizability: 153.504 -11.316 152.216  24.691  15.122 129.875

                      1                      2                      3
                      A                      A                      A
 Frequencies --     48.2983                55.0269                64.5546
 Red. masses --      2.0453                 1.3356                 3.4664
 Frc consts  --      0.0028                 0.0024                 0.0085
 IR Inten    --      0.7246                 0.0780                 2.9227

                      4                      5                      6
                      A                      A                      A
 Frequencies --    111.8542               133.6676               169.2975
 Red. masses --      1.7965                 2.8179                 1.1409
 Frc consts  --      0.0132                 0.0297                 0.0193
 IR Inten    --      4.7032                 1.7218                 0.0132

                      7                      8                      9
                      A                      A                      A
 Frequencies --    192.7186               245.6013               259.1980
 Red. masses --      2.2278                 3.1937                 1.5520
 Frc consts  --      0.0488                 0.1135                 0.0614
 IR Inten    --      0.1451                 1.8434                 1.4506

                     10                     11                     12
                      A                      A                      A
 Frequencies --    266.0819               280.7352               329.5187
 Red. masses --      1.8261                 3.5506                 2.0173
 Frc consts  --      0.0762                 0.1649                 0.1291
 IR Inten    --      1.8325                 1.7336                 1.8770

                     13                     14                     15
                      A                      A                      A
 Frequencies --    343.3426               471.8231               524.4706
 Red. masses --      3.7821                 2.3955                 3.0843
 Frc consts  --      0.2627                 0.3142                 0.4999
 IR Inten    --      1.6775                 1.3009                 5.1184

                     16                     17                     18
                      A                      A                      A
 Frequencies --    598.1160               660.9765               673.3897
 Red. masses --      3.6494                 4.5905                 4.3811
 Frc consts  --      0.7692                 1.1816                 1.1705
 IR Inten    --      1.1856                 1.8265                 4.5701

                     19                     20                     21
                      A                      A                      A
 Frequencies --    716.6641               752.0732               820.5073
 Red. masses --      4.0846                 3.2896                 1.8063
 Frc consts  --      1.2360                 1.0963                 0.7165
 IR Inten    --      1.3643                21.7516                62.3297

                     22                     23                     24
                      A                      A                      A
 Frequencies --    861.6842               876.7431               960.7707
 Red. masses --      1.2869                 1.3924                 2.2497
 Frc consts  --      0.5630                 0.6306                 1.2236
 IR Inten    --      5.7622                15.9726                29.1214

                     25                     26                     27
                      A                      A                      A
 Frequencies --    982.2958              1013.8237              1031.7460
 Red. masses --      1.7542                 1.5246                 1.9752
 Frc consts  --      0.9973                 0.9233                 1.2388
 IR Inten    --     10.8335                10.1912                 2.7991

                     28                     29                     30
                      A                      A                      A
 Frequencies --   1059.0165              1072.7939              1087.9568
 Red. masses --      1.7578                 1.4098                 1.4822
 Frc consts  --      1.1615                 0.9560                 1.0337
 IR Inten    --      5.1023                 4.5518                 1.5354

                     31                     32                     33
                      A                      A                      A
 Frequencies --   1135.6359              1152.3341              1163.8726
 Red. masses --      1.6540                 2.8535                 2.2153
 Frc consts  --      1.2568                 2.2324                 1.7680
 IR Inten    --      3.4181                39.2264                 1.4868

                     34                     35                     36
                      A                      A                      A
 Frequencies --   1198.0855              1205.1872              1234.3010
 Red. masses --      2.0003                 2.0346                 1.8203
 Frc consts  --      1.6917                 1.7412                 1.6339
 IR Inten    --      3.5273                 9.7725                 2.9751

                     37                     38                     39
                      A                      A                      A
 Frequencies --   1269.4009              1319.0184              1353.1993
 Red. masses --      1.7132                 1.3795                 2.7024
 Frc consts  --      1.6265                 1.4141                 2.9155
 IR Inten    --      4.5146                 7.4104                26.8048

                     40                     41                     42
                      A                      A                      A
 Frequencies --   1399.1262              1409.2919              1412.9190
 Red. masses --      1.9993                 1.7935                 1.5419
 Frc consts  --      2.3059                 2.0988                 1.8136
 IR Inten    --      2.9677                36.9518                 3.8830

                     43                     44                     45
                      A                      A                      A
 Frequencies --   1440.8861              1452.6114              1454.2563
 Red. masses --      1.5506                 2.3507                 1.3649
 Frc consts  --      1.8968                 2.9225                 1.7007
 IR Inten    --     11.7746                31.5095                 2.6893

                     46                     47                     48
                      A                      A                      A
 Frequencies --   1483.9249              1502.7432              1508.6343
 Red. masses --      1.1774                 1.0979                 1.6482
 Frc consts  --      1.5275                 1.4608                 2.2102
 IR Inten    --      2.0848                 3.4859                14.1544

                     49                     50                     51
                      A                      A                      A
 Frequencies --   1512.6257              1517.0899              1520.1470
 Red. masses --      1.1805                 1.1123                 1.0642
 Frc consts  --      1.5913                 1.5083                 1.4489
 IR Inten    --     20.0136                13.1400                 3.4642

                     52                     53                     54
                      A                      A                      A
 Frequencies --   1522.3373              1532.5299              1537.4029
 Red. masses --      1.1324                 1.1784                 1.0993
 Frc consts  --      1.5463                 1.6307                 1.5308
 IR Inten    --      1.0814                13.4553                11.0839

                     55                     56                     57
                      A                      A                      A
 Frequencies --   1543.8178              1547.5231              1630.5931
 Red. masses --      1.5031                 1.0555                 5.3880
 Frc consts  --      2.1107                 1.4892                 8.4406
 IR Inten    --      1.8447                 8.7885                 6.0377

                     58                     59                     60
                      A                      A                      A
 Frequencies --   2964.3061              2975.7711              3036.7266
 Red. masses --      1.0594                 1.0703                 1.0400
 Frc consts  --      5.4850                 5.5842                 5.6507
 IR Inten    --     76.6924                68.3027                44.8300

                     61                     62                     63
                      A                      A                      A
 Frequencies --   3041.3958              3064.2070              3075.7478
 Red. masses --      1.0422                 1.0898                 1.0753
 Frc consts  --      5.6801                 6.0288                 5.9936
 IR Inten    --     29.6380                28.6091                45.9440

                     64                     65                     66
                      A                      A                      A
 Frequencies --   3088.6361              3096.7941              3101.4135
 Red. masses --      1.0974                 1.0625                 1.0938
 Frc consts  --      6.1679                 6.0035                 6.1986
 IR Inten    --     24.5298                41.4109                 3.9279

                     67                     68                     69
                      A                      A                      A
 Frequencies --   3114.8260              3122.9614              3138.1992
 Red. masses --      1.1011                 1.1023                 1.1007
 Frc consts  --      6.2940                 6.3339                 6.3868
 IR Inten    --     22.1259                29.0675                14.7929

                     70                     71                     72
                      A                      A                      A
 Frequencies --   3149.6687              3242.5744              3490.1672
 Red. masses --      1.1067                 1.0957                 1.0737
 Frc consts  --      6.4687                 6.7879                 7.7057
 IR Inten    --     10.6735                12.8418                 0.4153

 - Thermochemistry -
 -------------------
 Temperature   298.150 Kelvin.  Pressure   1.00000 Atm.
 Atom     1 has atomic number  6 and mass  12.00000

 Molecular mass:   153.12660 amu.
 Principal axes and moments of inertia in atomic units:
                           1         2         3
     Eigenvalues --  1024.342492595.159402829.88421
           X            0.99985  -0.01718  -0.00282
           Y            0.01717   0.99985  -0.00140
           Z            0.00285   0.00135   1.00000
 This molecule is an asymmetric top.
 Rotational symmetry number  1.
 Warning -- assumption of classical behavior for rotation
           may cause significant error
 Rotational temperatures (Kelvin)      0.08456     0.03338     0.03061
 Rotational constants (GHZ):           1.76185     0.69543     0.63774
 Zero-point vibrational energy     606073.9 (Joules/Mol)
                                  144.85513 (Kcal/Mol)
 Warning -- explicit consideration of  16 degrees of freedom as
           vibrations may cause significant error
 Vibrational temperatures:     69.49    79.17    92.88   160.93   192.32
          (Kelvin)            243.58   277.28   353.37   372.93   382.83
                              403.92   474.10   493.99   678.85   754.60
                              860.56   951.00   968.86  1031.12  1082.07
                             1180.53  1239.77  1261.44  1382.33  1413.30
                             1458.67  1484.45  1523.69  1543.51  1565.33
                             1633.93  1657.95  1674.55  1723.78  1734.00
                             1775.88  1826.38  1897.77  1946.95  2013.03
                             2027.66  2032.88  2073.11  2089.98  2092.35
                             2135.04  2162.11  2170.59  2176.33  2182.75
                             2187.15  2190.30  2204.97  2211.98  2221.21
                             2226.54  2346.06  4264.98  4281.47  4369.17
                             4375.89  4408.71  4425.32  4443.86  4455.60
                             4462.24  4481.54  4493.24  4515.17  4531.67
                             4665.34  5021.57

 Zero-point correction=                           0.230841 (Hartree/Particle)
 Thermal correction to Energy=                    0.243064
 Thermal correction to Enthalpy=                  0.244008
 Thermal correction to Gibbs Free Energy=         0.191881
 Sum of electronic and zero-point Energies=           -477.930938
 Sum of electronic and thermal Energies=              -477.918716
 Sum of electronic and thermal Enthalpies=            -477.917771
 Sum of electronic and thermal Free Energies=         -477.969898

                     E (Thermal)             CV                S
                      KCal/Mol        Cal/Mol-Kelvin    Cal/Mol-Kelvin
 Total                  152.525             43.777            109.710
 Electronic               0.000              0.000              0.000
 Translational            0.889              2.981             40.988
 Rotational               0.889              2.981             30.399
 Vibrational            150.747             37.816             38.323
 Vibration     1          0.595              1.978              4.886
 Vibration     2          0.596              1.976              4.628
 Vibration     3          0.597              1.971              4.313
 Vibration     4          0.607              1.940              3.236
 Vibration     5          0.613              1.920              2.893
 Vibration     6          0.625              1.880              2.443
 Vibration     7          0.635              1.850              2.202
 Vibration     8          0.660              1.770              1.762
 Vibration     9          0.668              1.747              1.667
 Vibration    10          0.672              1.735              1.622
 Vibration    11          0.680              1.709              1.529
 Vibration    12          0.712              1.617              1.262
 Vibration    13          0.722              1.589              1.197
 Vibration    14          0.829              1.313              0.732
 Vibration    15          0.879              1.196              0.600
 Vibration    16          0.956              1.036              0.453

 Optimization completed.
    -- Stationary point found.

 1\1\GINC-NODE316\Freq\RB3LYP\6-31G(d)\C8H15N3\VSC10255\08-Dec-2020\0\\
 #N Geom=AllCheck Guess=TCheck SCRF=Check GenChk RB3LYP/6-31G(d) Freq\\
 CID_84107319_JID_1247_neutraal\\0,1\C,1.1808888516,-0.0478627657,0.053
 6172721\C,0.9690230779,-1.4977834932,-0.2636032522\C,1.4380113577,-2.6
 021852899,0.4388047456\N,0.9531676244,-3.704243121,-0.2145703148\N,0.2
 170148192,-3.3838048238,-1.3068439237\C,0.2221816956,-2.052496675,-1.3
 295985469\C,1.2586380419,-5.102457472,0.0384669508\C,2.3668394351,-5.6
 21245735,-0.8789015033\N,3.5862304746,-4.8381109158,-0.7096425664\C,4.

 Normal termination of Gaussian 16 at Tue Dec  8 19:40:02 2020.

 ----------------------------------------------------------------------
 # B3LYP/6-311++G(d,p) empiricaldispersion=gd3bj scf=xqc pop=npa geom=c
 heck
 ----------------------------------------------------------------------

 --------------------------------------
 CID_84107319_JID_1247_Energie_neutraal
 --------------------------------------
 Structure from the checkpoint file:  "JID_1247.chk"
 Charge =  0 Multiplicity = 1

 SCF Done:  E(RB3LYP) =  -478.294492463     A.U. after   14 cycles
 Normal termination of Gaussian 16 at Tue Dec  8 19:41:52 2020.

 ----------------------------------------------------------------------
 # B3LYP/6-311++G(d,p) empiricaldispersion=gd3bj scf=xqc pop=npa geom=c
 heck
 ----------------------------------------------------------------------

 ------------------------------------
 CID_84107319_JID_1247_Energie_kation
 ------------------------------------
 Structure from the checkpoint file:  "JID_1247.chk"
 Charge =  1 Multiplicity = 2

 SCF Done:  E(UB3LYP) =  -477.997321894     A.U. after   27 cycles
 Normal termination of Gaussian 16 at Tue Dec  8 19:46:53 2020.
 Gaussian 16:  ES64L-G16RevA.03 25-Dec-2016

 -----------------------------------
 CID_84107319_JID_1247_Energie_anion
 -----------------------------------
 Structure from the checkpoint file:  "JID_1247.chk"
 Charge = -1 Multiplicity = 2

                         Standard orientation:
 ---------------------------------------------------------------------
 Center     Atomic      Atomic             Coordinates (Angstroms)
 Number     Number       Type             X           Y           Z
 ---------------------------------------------------------------------
      1          6           0       -3.226138    0.951380   -0.722715
      2          6           0       -2.063611    0.074961   -0.364654
      3          6           0       -1.022059    0.355443    0.512574
      4          7           0       -0.231611   -0.763087    0.536773
      5          7           0       -0.684199   -1.742104   -0.284418
      6          6           0       -1.793060   -1.236677   -0.820977
      7          6           0        1.052256   -0.938965    1.194872
      8          6           0        2.222466   -0.699308    0.239890
      9          7           0        2.164586    0.646705   -0.320254
     10          6           0        3.303646    0.947698   -1.180747
     11          6           0       -0.725678    1.579819    1.318110
     12          1           0       -4.054606    0.854635   -0.008541
     13          1           0       -3.619312    0.692451   -1.711615
     14          1           0       -2.944671    2.010416   -0.749179
     15          1           0       -2.370464   -1.830397   -1.519159
     16          1           0        1.101432   -0.238730    2.031718
     17          1           0        1.086188   -1.959435    1.585204
     18          1           0        3.157211   -0.797817    0.807066
     19          1           0        2.222431   -1.489641   -0.531552
     20          1           0        1.309036    0.721818   -0.868522
     21          1           0        3.464717    0.211762   -1.989584
     22          1           0        3.166362    1.933956   -1.635143
     23          1           0        4.217471    0.981517   -0.576037
     24          1           0        0.299603    1.927316    1.151082
     25          1           0       -1.412707    2.382646    1.037002
     26          1           0       -0.851049    1.402810    2.394435
 ---------------------------------------------------------------------

 SCF Done:  E(UB3LYP) =  -478.277840783     A.U. after   33 cycles
 SCF Done:  E(UB3LYP) =  -478.277840783     a.u. after    1 cycles

 The electronic state is 2-A.
 Alpha  occ. eigenvalues --  -14.27881 -14.21990 -14.19896 -10.11189 -10.10367
 Alpha  occ. eigenvalues --  -10.09623 -10.08472 -10.08075 -10.06886 -10.06577
 Alpha  occ. eigenvalues --  -10.06402  -0.94233  -0.80901  -0.73956  -0.70697
 Alpha  occ. eigenvalues --   -0.64761  -0.61296  -0.58514  -0.56072  -0.52337
 Alpha  occ. eigenvalues --   -0.47708  -0.44383  -0.40504  -0.39474  -0.37701
 Alpha  occ. eigenvalues --   -0.34703  -0.33609  -0.32602  -0.32229  -0.31334
 Alpha  occ. eigenvalues --   -0.30663  -0.29833  -0.29521  -0.28293  -0.26940
 Alpha  occ. eigenvalues --   -0.26822  -0.26206  -0.25641  -0.18820  -0.14732
 Alpha  occ. eigenvalues --   -0.13067  -0.12827   0.04627
 Alpha virt. eigenvalues --    0.06520   0.07305   0.07934   0.09164   0.09572
 Alpha virt. eigenvalues --    0.09738   0.10351   0.10528   0.10985   0.11527
 Alpha virt. eigenvalues --    0.12378   0.12484   0.13036   0.13894   0.14933

  Beta  occ. eigenvalues --  -14.27883 -14.21984 -14.19879 -10.11173 -10.10364
  Beta  occ. eigenvalues --  -10.09606 -10.08434 -10.08071 -10.06847 -10.06534
  Beta  occ. eigenvalues --  -10.06401  -0.94226  -0.80874  -0.73941  -0.70676
  Beta  occ. eigenvalues --   -0.64726  -0.61244  -0.58454  -0.56003  -0.52279
  Beta  occ. eigenvalues --   -0.47680  -0.44349  -0.40466  -0.39442  -0.37668
  Beta  occ. eigenvalues --   -0.34672  -0.33566  -0.32556  -0.32195  -0.31291
  Beta  occ. eigenvalues --   -0.30622  -0.29794  -0.29485  -0.28250  -0.26913
  Beta  occ. eigenvalues --   -0.26768  -0.26168  -0.25606  -0.18794  -0.14717
  Beta  occ. eigenvalues --   -0.13031  -0.12803
  Beta virt. eigenvalues --    0.06890   0.07480   0.08050   0.08481   0.09602
  Beta virt. eigenvalues --    0.10199   0.10213   0.10768   0.10892   0.11321
  Beta virt. eigenvalues --    0.11914   0.12899   0.12979   0.13398   0.14174

 Mulliken charges and spin densities:
               1          2
     1  C    1.730628  -2.398569
     2  C   -0.565505   1.092130
     3  C   -2.321644   2.078039
     4  N    0.393638   0.060673
     5  N   -0.304699   0.017575
     6  C   -0.420296   0.116043
     7  C    0.003706  -0.270191
     8  C    0.148813  -0.517858
     9  N   -0.394412   0.210882
    10  C    0.902552  -1.236415
    11  C    2.409112  -3.087271
    12  H   -0.196092   0.356975
    13  H   -0.234955   0.372625
    14  H   -0.340990   0.483096
    15  H   -0.107222   0.249680
    16  H   -0.026959   0.176874
    17  H   -0.161794   0.361524
    18  H   -0.329683   0.487835
    19  H    0.233211  -0.102911
    20  H    0.266683  -0.033673
    21  H   -0.188644   0.302760
    22  H   -0.462339   0.595334
    23  H   -0.396587   0.535670
    24  H   -0.234966   0.418305
    25  H   -0.105290   0.258848
    26  H   -0.296265   0.472019
 Sum of Mulliken charges =  -1.00000   1.00000

 Dipole moment (field-independent basis, Debye):
    X=             -1.0928    Y=             -3.9018    Z=              0.1051  Tot=              4.0533
 Quadrupole moment (field-independent basis, Debye-Ang):
   XX=           -138.4472   YY=           -111.9004   ZZ=           -104.2059
   XY=              0.4232   XZ=              0.6545   YZ=              0.5240

 Summary of Natural Population Analysis:

                                       Natural Population
                Natural  -----------------------------------------------
    Atom  No    Charge         Core      Valence    Rydberg      Total
 -----------------------------------------------------------------------
      C    1   -0.29150      0.99964     2.28649    0.00538     3.29150
      C    2   -0.07639      0.99946     2.06587    0.01106     3.07639
      C    3    0.08737      0.99947     1.89983    0.01332     2.91263
      N    4   -0.11636      0.99962     2.60301    0.01374     3.61636
      N    5   -0.16019      0.99973     2.64934    0.01112     3.66019
      C    6   -0.01069      0.99957     1.99710    0.01401     3.01069
      C    7   -0.08448      0.99960     2.07287    0.01201     3.08448
      C    8   -0.08870      0.99962     2.07817    0.01091     3.08870
      N    9   -0.34046      0.99975     2.82921    0.01150     3.84046
      C   10   -0.17378      0.99966     2.16727    0.00684     3.17378
      C   11   -0.30928      0.99963     2.30364    0.00601     3.30928
      H   12    0.10232      0.00000     0.39629    0.00139     0.39768
      H   13    0.10283      0.00000     0.39602    0.00115     0.39717
      H   14    0.10549      0.00000     0.39300    0.00151     0.39451
      H   15    0.09414      0.00000     0.40495    0.00091     0.40586
      H   16    0.10444      0.00000     0.39403    0.00153     0.39556
      H   17    0.10406      0.00000     0.39465    0.00130     0.39594
      H   18    0.09457      0.00000     0.40390    0.00153     0.40543
      H   19    0.08414      0.00000     0.41433    0.00153     0.41586
      H   20    0.17360      0.00000     0.32258    0.00381     0.32640
      H   21    0.07684      0.00000     0.42110    0.00205     0.42316
      H   22    0.09655      0.00000     0.40197    0.00147     0.40345
      H   23    0.09135      0.00000     0.40658    0.00207     0.40865
      H   24    0.11722      0.00000     0.38053    0.00225     0.38278
      H   25    0.11090      0.00000     0.38773    0.00137     0.38910
      H   26    0.10600      0.00000     0.39251    0.00149     0.39400
 =======================================================================
   * Total *   -0.00000     10.99576    30.86299    0.14125    42.00000

 Normal termination of Gaussian 16 at Tue Dec  8 19:52:46 2020.
