 Gaussian 16, Revision A.03,

 -----------------------------------------------------------
 # opt freq B3LYP/6-31G(d) empiricaldispersion=gd3bj scf=xqc
 -----------------------------------------------------------

 ------------------------------
 CID_79331053_JID_1658_neutraal
 ------------------------------
 Symbolic Z-matrix:
 Charge =  0 Multiplicity = 1

 SCF Done:  E(RB3LYP) =  -467.138600454     A.U. after   13 cycles
 SCF Done:  E(RB3LYP) =  -467.143115906     A.U. after   11 cycles
 SCF Done:  E(RB3LYP) =  -467.143559229     A.U. after   10 cycles
 SCF Done:  E(RB3LYP) =  -467.143603837     A.U. after    9 cycles
 SCF Done:  E(RB3LYP) =  -467.143610614     A.U. after    8 cycles
 SCF Done:  E(RB3LYP) =  -467.143614671     A.U. after    8 cycles
 SCF Done:  E(RB3LYP) =  -467.143615861     A.U. after    7 cycles
 SCF Done:  E(RB3LYP) =  -467.143618120     A.U. after    8 cycles
 SCF Done:  E(RB3LYP) =  -467.143621748     A.U. after    8 cycles
 SCF Done:  E(RB3LYP) =  -467.143622892     A.U. after    7 cycles
 SCF Done:  E(RB3LYP) =  -467.143623132     A.U. after    7 cycles
 SCF Done:  E(RB3LYP) =  -467.143623161     A.U. after    6 cycles
 Optimization completed.
    -- Stationary point found.
 Normal termination of Gaussian 16 at Tue Dec  8 20:39:21 2020.

 --------------------------------------------------------------------
 #N Geom=AllCheck Guess=TCheck SCRF=Check GenChk RB3LYP/6-31G(d) Freq
 --------------------------------------------------------------------

 Structure from the checkpoint file:  "JID_1658.chk"
 ------------------------------
 CID_79331053_JID_1658_neutraal
 ------------------------------
 Charge =  0 Multiplicity = 1

 SCF Done:  E(RB3LYP) =  -467.143623161     A.U. after    1 cycles

  Exact polarizability: 119.772   0.466 100.824   0.025   0.226  88.940
 Approx polarizability: 142.286   0.504 142.397  -1.160  -1.342 140.040

                      1                      2                      3
                      A                      A                      A
 Frequencies --     53.2520                73.1960                86.8476
 Red. masses --      2.4904                 1.8342                 3.1469
 Frc consts  --      0.0042                 0.0058                 0.0140
 IR Inten    --      0.0404                 0.3736                 0.0138

                      4                      5                      6
                      A                      A                      A
 Frequencies --    127.2808               178.7692               232.5853
 Red. masses --      2.5562                 2.0951                 2.1612
 Frc consts  --      0.0244                 0.0394                 0.0689
 IR Inten    --      0.3198                 1.2805                 2.8842

                      7                      8                      9
                      A                      A                      A
 Frequencies --    247.4114               277.2959               314.0566
 Red. masses --      2.7899                 1.3261                 1.1521
 Frc consts  --      0.1006                 0.0601                 0.0670
 IR Inten    --      1.5350                 3.9071                87.0495

                     10                     11                     12
                      A                      A                      A
 Frequencies --    325.0666               340.4142               414.1476
 Red. masses --      2.5472                 2.9079                 2.3281
 Frc consts  --      0.1586                 0.1985                 0.2353
 IR Inten    --     22.2245                16.3990                 2.7122

                     13                     14                     15
                      A                      A                      A
 Frequencies --    444.5332               484.2812               538.5675
 Red. masses --      2.4927                 3.2497                 3.4982
 Frc consts  --      0.2902                 0.4490                 0.5978
 IR Inten    --      1.4964                 2.6612                 4.1678

                     16                     17                     18
                      A                      A                      A
 Frequencies --    583.6606               648.9804               723.5016
 Red. masses --      2.4320                 2.1917                 3.0314
 Frc consts  --      0.4881                 0.5439                 0.9349
 IR Inten    --      5.1482                 4.9869                 4.3233

                     19                     20                     21
                      A                      A                      A
 Frequencies --    775.2285               782.1935               808.3234
 Red. masses --      1.3447                 1.5026                 2.6471
 Frc consts  --      0.4761                 0.5417                 1.0190
 IR Inten    --      3.1832                 1.9759                 0.7088

                     22                     23                     24
                      A                      A                      A
 Frequencies --    838.9260               863.2721               887.6968
 Red. masses --      2.3070                 2.1614                 2.5300
 Frc consts  --      0.9566                 0.9490                 1.1746
 IR Inten    --      9.7181                 6.9247                 1.5665

                     25                     26                     27
                      A                      A                      A
 Frequencies --    908.3683               951.8034               960.7309
 Red. masses --      1.4399                 1.7862                 1.6553
 Frc consts  --      0.7000                 0.9534                 0.9002
 IR Inten    --      1.5810                 2.5319                 3.1483

                     28                     29                     30
                      A                      A                      A
 Frequencies --    992.1512              1002.2378              1045.3176
 Red. masses --      2.0390                 1.9258                 2.2139
 Frc consts  --      1.1825                 1.1397                 1.4253
 IR Inten    --      3.4775                11.0196                 9.8297

                     31                     32                     33
                      A                      A                      A
 Frequencies --   1053.8753              1060.9213              1090.7575
 Red. masses --      1.5402                 1.8280                 1.9141
 Frc consts  --      1.0078                 1.2123                 1.3417
 IR Inten    --      4.2375                 0.8633                 7.0574

                     34                     35                     36
                      A                      A                      A
 Frequencies --   1096.9551              1119.0184              1142.5944
 Red. masses --      2.0698                 1.8439                 2.0727
 Frc consts  --      1.4674                 1.3604                 1.5943
 IR Inten    --      1.3202                 3.5159                 3.2980

                     37                     38                     39
                      A                      A                      A
 Frequencies --   1160.9069              1167.9133              1228.5316
 Red. masses --      1.2604                 1.9622                 1.4444
 Frc consts  --      1.0008                 1.5769                 1.2844
 IR Inten    --      1.5479                 2.5510                24.8962

                     40                     41                     42
                      A                      A                      A
 Frequencies --   1243.3070              1251.8518              1274.4498
 Red. masses --      1.3328                 1.3700                 1.5019
 Frc consts  --      1.2138                 1.2650                 1.4372
 IR Inten    --     14.6426                 0.8107                 8.9224

                     43                     44                     45
                      A                      A                      A
 Frequencies --   1288.5769              1295.7528              1317.0444
 Red. masses --      1.7700                 1.1974                 1.2711
 Frc consts  --      1.7316                 1.1845                 1.2991
 IR Inten    --     48.1894                 0.3039                 4.0606

                     46                     47                     48
                      A                      A                      A
 Frequencies --   1339.9896              1358.4151              1382.5564
 Red. masses --      1.2337                 1.4178                 1.3181
 Frc consts  --      1.3051                 1.5415                 1.4844
 IR Inten    --      0.3767                 6.5093                 1.9108

                     49                     50                     51
                      A                      A                      A
 Frequencies --   1384.9196              1393.6167              1396.7296
 Red. masses --      1.3496                 1.4003                 1.4295
 Frc consts  --      1.5252                 1.6023                 1.6431
 IR Inten    --      1.7325                 0.5618                 5.7796

                     52                     53                     54
                      A                      A                      A
 Frequencies --   1405.4687              1410.4864              1443.2360
 Red. masses --      1.4444                 1.4824                 1.2771
 Frc consts  --      1.6811                 1.7376                 1.5672
 IR Inten    --      2.8834                 0.9048                 4.6643

                     55                     56                     57
                      A                      A                      A
 Frequencies --   1487.0425              1509.0338              1515.4750
 Red. masses --      3.0812                 1.0861                 1.0775
 Frc consts  --      4.0143                 1.4572                 1.4581
 IR Inten    --      5.9022                 1.2296                 0.1238

                     58                     59                     60
                      A                      A                      A
 Frequencies --   1517.7092              1521.8672              1530.6190
 Red. masses --      1.0783                 1.0856                 1.0494
 Frc consts  --      1.4634                 1.4815                 1.4486
 IR Inten    --      0.9555                 0.5781                 6.3011

                     61                     62                     63
                      A                      A                      A
 Frequencies --   1535.3558              1539.1040              1544.7673
 Red. masses --      1.0838                 1.0584                 1.0999
 Frc consts  --      1.5052                 1.4772                 1.5464
 IR Inten    --      4.1134                 8.1660                 0.3457

                     64                     65                     66
                      A                      A                      A
 Frequencies --   3005.8636              3037.0546              3044.0290
 Red. masses --      1.0669                 1.0615                 1.0543
 Frc consts  --      5.6795                 5.7687                 5.7561
 IR Inten    --     42.0402                18.3467                47.7563

                     67                     68                     69
                      A                      A                      A
 Frequencies --   3045.7171              3050.0355              3055.0452
 Red. masses --      1.0477                 1.0628                 1.0659
 Frc consts  --      5.7264                 5.8250                 5.8615
 IR Inten    --     23.7346                48.1736                56.1861

                     70                     71                     72
                      A                      A                      A
 Frequencies --   3056.1756              3063.7102              3067.7763
 Red. masses --      1.0944                 1.0759                 1.0876
 Frc consts  --      6.0228                 5.9498                 6.0308
 IR Inten    --     28.9731                 4.8142                44.3065

                     73                     74                     75
                      A                      A                      A
 Frequencies --   3084.4291              3086.5777              3095.5333
 Red. masses --      1.0980                 1.1030                 1.1038
 Frc consts  --      6.1546                 6.1915                 6.2320
 IR Inten    --     20.0717                34.8945                40.4266

                     76                     77                     78
                      A                      A                      A
 Frequencies --   3107.8475              3112.9431              3131.2136
 Red. masses --      1.1007                 1.0992                 1.1010
 Frc consts  --      6.2640                 6.2757                 6.3599
 IR Inten    --     56.3114                25.7443                42.3080

                     79                     80                     81
                      A                      A                      A
 Frequencies --   3143.1186              3156.8646              3713.4667
 Red. masses --      1.0886                 1.0901                 1.0660
 Frc consts  --      6.3364                 6.4004                 8.6613
 IR Inten    --     21.4118                32.8878                10.1958

 - Thermochemistry -
 -------------------
 Temperature   298.150 Kelvin.  Pressure   1.00000 Atm.
 Atom     1 has atomic number  6 and mass  12.00000

 Molecular mass:   154.13577 amu.
 Principal axes and moments of inertia in atomic units:
                           1         2         3
     Eigenvalues --   818.973502623.320242941.64261
           X            0.99997  -0.00601   0.00429
           Y            0.00598   0.99995   0.00787
           Z           -0.00434  -0.00785   0.99996
 This molecule is an asymmetric top.
 Rotational symmetry number  1.
 Warning -- assumption of classical behavior for rotation
           may cause significant error
 Rotational temperatures (Kelvin)      0.10576     0.03302     0.02944
 Rotational constants (GHZ):           2.20366     0.68796     0.61351
 Zero-point vibrational energy     699673.9 (Joules/Mol)
                                  167.22608 (Kcal/Mol)
 Warning -- explicit consideration of  16 degrees of freedom as
           vibrations may cause significant error
 Vibrational temperatures:     76.62   105.31   124.95   183.13   257.21
          (Kelvin)            334.64   355.97   398.97   451.86   467.70
                              489.78   595.87   639.58   696.77   774.88
                              839.76   933.74  1040.96  1115.38  1125.40
                             1163.00  1207.03  1242.06  1277.20  1306.94
                             1369.43  1382.28  1427.48  1442.00  1503.98
                             1516.29  1526.43  1569.36  1578.27  1610.02
                             1643.94  1670.29  1680.37  1767.58  1788.84
                             1801.14  1833.65  1853.97  1864.30  1894.93
                             1927.95  1954.46  1989.19  1992.59  2005.10
                             2009.58  2022.16  2029.38  2076.49  2139.52
                             2171.16  2180.43  2183.65  2189.63  2202.22
                             2209.03  2214.43  2222.58  4324.77  4369.64
                             4379.68  4382.11  4388.32  4395.53  4397.16
                             4408.00  4413.85  4437.81  4440.90  4453.78
                             4471.50  4478.83  4505.12  4522.25  4542.02
                             5342.85

 Zero-point correction=                           0.266492 (Hartree/Particle)
 Thermal correction to Energy=                    0.278068
 Thermal correction to Enthalpy=                  0.279012
 Thermal correction to Gibbs Free Energy=         0.229174
 Sum of electronic and zero-point Energies=           -466.877131
 Sum of electronic and thermal Energies=              -466.865556
 Sum of electronic and thermal Enthalpies=            -466.864611
 Sum of electronic and thermal Free Energies=         -466.914449

                     E (Thermal)             CV                S
                      KCal/Mol        Cal/Mol-Kelvin    Cal/Mol-Kelvin
 Total                  174.490             44.878            104.893
 Electronic               0.000              0.000              0.000
 Translational            0.889              2.981             41.008
 Rotational               0.889              2.981             30.225
 Vibrational            172.713             38.916             33.660
 Vibration     1          0.596              1.976              4.693
 Vibration     2          0.599              1.967              4.066
 Vibration     3          0.601              1.958              3.730
 Vibration     4          0.611              1.926              2.987
 Vibration     5          0.629              1.868              2.341
 Vibration     6          0.653              1.791              1.859
 Vibration     7          0.661              1.767              1.749
 Vibration     8          0.678              1.715              1.550
 Vibration     9          0.702              1.647              1.341
 Vibration    10          0.709              1.625              1.284
 Vibration    11          0.720              1.595              1.210
 Vibration    12          0.778              1.440              0.912
 Vibration    13          0.804              1.373              0.812
 Vibration    14          0.840              1.285              0.699
 Vibration    15          0.894              1.165              0.568
 Vibration    16          0.941              1.067              0.479

                           ! Non-Optimized Parameters !
 Normal termination of Gaussian 16 at Tue Dec  8 20:47:10 2020.

 ----------------------------------------------------------------------
 # B3LYP/6-311++G(d,p) empiricaldispersion=gd3bj scf=xqc pop=npa geom=c
 heck
 ----------------------------------------------------------------------

 --------------------------------------
 CID_79331053_JID_1658_Energie_neutraal
 --------------------------------------
 Structure from the checkpoint file:  "JID_1658.chk"
 Charge =  0 Multiplicity = 1

 SCF Done:  E(RB3LYP) =  -467.279055084     A.U. after   13 cycles
 Normal termination of Gaussian 16 at Tue Dec  8 20:52:07 2020.

 ----------------------------------------------------------------------
 # B3LYP/6-311++G(d,p) empiricaldispersion=gd3bj scf=xqc pop=npa geom=c
 heck
 ----------------------------------------------------------------------

 ------------------------------------
 CID_79331053_JID_1658_Energie_kation
 ------------------------------------
 Structure from the checkpoint file:  "JID_1658.chk"
 Charge =  1 Multiplicity = 2

 SCF Done:  E(UB3LYP) =  -466.957896755     A.U. after   21 cycles
 Normal termination of Gaussian 16 at Tue Dec  8 21:00:29 2020.
 Gaussian 16:  ES64L-G16RevA.03 25-Dec-2016

 ----------------------------------------------------------------------
 # B3LYP/6-311++G(d,p) empiricaldispersion=gd3bj scf=xqc pop=npa geom=c
 heck
 ----------------------------------------------------------------------

 -----------------------------------
 CID_79331053_JID_1658_Energie_anion
 -----------------------------------
 Structure from the checkpoint file:  "JID_1658.chk"
 Charge = -1 Multiplicity = 2

                         Standard orientation:
 ---------------------------------------------------------------------
 Center     Atomic      Atomic             Coordinates (Angstroms)
 Number     Number       Type             X           Y           Z
 ---------------------------------------------------------------------
      1          6           0       -3.039060    1.344760   -0.115274
      2          6           0       -3.120869   -0.179160    0.004376
      3          6           0       -1.921698   -0.917528   -0.608299
      4          6           0       -0.593684   -0.581414    0.043917
      5          6           0        0.690423   -0.870565   -0.707936
      6          6           0        0.227763    0.565503   -0.477512
      7          6           0        1.129342    1.378133    0.435227
      8          6           0        2.596771    1.271038   -0.026824
      9          6           0        3.076176   -0.198760   -0.211038
     10          6           0        1.962672   -1.239876    0.033990
     11          8           0       -0.596890   -0.732742    1.447544
     12          1           0       -2.181230    1.737900    0.438668
     13          1           0       -3.942985    1.818425    0.283894
     14          1           0       -2.933220    1.656516   -1.162089
     15          1           0       -3.196773   -0.453366    1.063122
     16          1           0       -4.037317   -0.539453   -0.481046
     17          1           0       -2.089705   -2.003407   -0.532224
     18          1           0       -1.851755   -0.695310   -1.681656
     19          1           0        0.582939   -1.277789   -1.712026
     20          1           0       -0.184871    1.097032   -1.332478
     21          1           0        0.816883    2.428617    0.441236
     22          1           0        1.028935    1.016610    1.462871
     23          1           0        2.698295    1.807657   -0.978149
     24          1           0        3.242098    1.794712    0.688180
     25          1           0        3.458470   -0.330908   -1.230382
     26          1           0        3.917492   -0.412252    0.459023
     27          1           0        2.311421   -2.233318   -0.271038
     28          1           0        1.748267   -1.298535    1.106895
     29          1           0       -0.658837   -1.683980    1.633086
 ---------------------------------------------------------------------

 SCF Done:  E(UB3LYP) =  -467.264058605     A.U. after   27 cycles

 The electronic state is 2-A.
 Alpha  occ. eigenvalues --  -19.01375 -10.11233 -10.05848 -10.05836 -10.05715
 Alpha  occ. eigenvalues --  -10.05638 -10.05523 -10.05508 -10.05440 -10.05321
 Alpha  occ. eigenvalues --  -10.04920  -0.92039  -0.75521  -0.68592  -0.66330
 Alpha  occ. eigenvalues --   -0.62924  -0.58729  -0.53478  -0.49458  -0.48384
 Alpha  occ. eigenvalues --   -0.46268  -0.41105  -0.39255  -0.37899  -0.35697
 Alpha  occ. eigenvalues --   -0.34414  -0.33067  -0.31926  -0.30915  -0.28953
 Alpha  occ. eigenvalues --   -0.28347  -0.26986  -0.26852  -0.26056  -0.23876
 Alpha  occ. eigenvalues --   -0.23458  -0.22839  -0.22110  -0.21861  -0.19757
 Alpha  occ. eigenvalues --   -0.19635  -0.15534  -0.13918   0.04699
 Alpha virt. eigenvalues --    0.07240   0.07432   0.08139   0.08920   0.09350
 Alpha virt. eigenvalues --    0.09902   0.10475   0.10906   0.11657   0.11891
 Alpha virt. eigenvalues --    0.12446   0.12679   0.13507   0.14088   0.15046

  Beta  occ. eigenvalues --  -19.01329 -10.11229 -10.05837 -10.05825 -10.05701
  Beta  occ. eigenvalues --  -10.05628 -10.05497 -10.05496 -10.05423 -10.05294
  Beta  occ. eigenvalues --  -10.04900  -0.91935  -0.75480  -0.68556  -0.66296
  Beta  occ. eigenvalues --   -0.62889  -0.58682  -0.53427  -0.49419  -0.48326
  Beta  occ. eigenvalues --   -0.46193  -0.41053  -0.39214  -0.37849  -0.35661
  Beta  occ. eigenvalues --   -0.34371  -0.33029  -0.31888  -0.30881  -0.28921
  Beta  occ. eigenvalues --   -0.28316  -0.26954  -0.26815  -0.26022  -0.23843
  Beta  occ. eigenvalues --   -0.23420  -0.22801  -0.22071  -0.21826  -0.19729
  Beta  occ. eigenvalues --   -0.19588  -0.15499  -0.13885
  Beta virt. eigenvalues --    0.06948   0.07735   0.08397   0.08758   0.09402
  Beta virt. eigenvalues --    0.09711   0.10248   0.11073   0.11444   0.11949
  Beta virt. eigenvalues --    0.12268   0.12730   0.13057   0.13914   0.14428

 Mulliken charges and spin densities:
               1          2
     1  C    0.259801  -0.856205
     2  C    0.070414  -0.286441
     3  C    1.135607  -1.155809
     4  C   -0.855677   0.264551
     5  C   -1.456818   1.594548
     6  C    1.888990  -1.758452
     7  C   -0.009877  -0.448537
     8  C    0.254085  -0.682295
     9  C   -0.352704  -0.072861
    10  C    0.819724  -1.134469
    11  O   -0.110833  -0.072335
    12  H    0.050241   0.125567
    13  H   -0.121002   0.250402
    14  H   -0.081338   0.198663
    15  H    0.049474   0.084550
    16  H   -0.229239   0.388543
    17  H   -0.475201   0.650307
    18  H   -0.207229   0.350671
    19  H   -0.707774   0.935080
    20  H   -0.133246   0.384233
    21  H   -0.014596   0.148421
    22  H    0.159325   0.044142
    23  H   -0.076536   0.206354
    24  H    0.045252   0.088617
    25  H    0.008847   0.123605
    26  H   -0.032673   0.166389
    27  H   -0.401195   0.569189
    28  H   -0.061239   0.211695
    29  H   -0.414584   0.681878
 Sum of Mulliken charges =  -1.00000   1.00000

 Dipole moment (field-independent basis, Debye):
    X=              1.5825    Y=              3.4286    Z=              0.9971  Tot=              3.9056
 Quadrupole moment (field-independent basis, Debye-Ang):
   XX=           -122.5838   YY=           -113.4566   ZZ=           -105.5994
   XY=              0.9282   XZ=             -0.0556   YZ=              0.6775

 Summary of Natural Population Analysis:

                                       Natural Population
                Natural  -----------------------------------------------
    Atom  No    Charge         Core      Valence    Rydberg      Total
 -----------------------------------------------------------------------
      C    1   -0.28474      0.99966     2.28085    0.00423     3.28474
      C    2   -0.18829      0.99964     2.18075    0.00790     3.18829
      C    3   -0.19495      0.99958     2.18472    0.01065     3.19495
      C    4    0.13089      0.99939     1.85211    0.01760     2.86911
      C    5   -0.11741      0.99954     2.10660    0.01127     3.11741
      C    6   -0.11331      0.99953     2.10259    0.01119     3.11331
      C    7   -0.19626      0.99961     2.18884    0.00781     3.19626
      C    8   -0.18655      0.99963     2.17994    0.00698     3.18655
      C    9   -0.18570      0.99963     2.17917    0.00690     3.18570
      C   10   -0.19701      0.99961     2.18767    0.00973     3.19701
      O   11   -0.37160      0.99988     3.36477    0.00694     4.37160
      H   12    0.10040      0.00000     0.39838    0.00122     0.39960
      H   13    0.09435      0.00000     0.40472    0.00093     0.40565
      H   14    0.09380      0.00000     0.40494    0.00126     0.40620
      H   15    0.09859      0.00000     0.39998    0.00143     0.40141
      H   16    0.09238      0.00000     0.40644    0.00118     0.40762
      H   17    0.10032      0.00000     0.39740    0.00228     0.39968
      H   18    0.09916      0.00000     0.39896    0.00188     0.40084
      H   19    0.10504      0.00000     0.39321    0.00175     0.39496
      H   20    0.10449      0.00000     0.39406    0.00145     0.39551
      H   21    0.09924      0.00000     0.39960    0.00115     0.40076
      H   22    0.10676      0.00000     0.39137    0.00187     0.39324
      H   23    0.09225      0.00000     0.40635    0.00140     0.40775
      H   24    0.09309      0.00000     0.40571    0.00120     0.40691
      H   25    0.09280      0.00000     0.40588    0.00132     0.40720
      H   26    0.09313      0.00000     0.40570    0.00117     0.40687
      H   27    0.10300      0.00000     0.39540    0.00160     0.39700
      H   28    0.10217      0.00000     0.39598    0.00186     0.39783
      H   29    0.23397      0.00000     0.26035    0.00568     0.26603
 =======================================================================
   * Total *   -0.00000     10.99572    31.87243    0.13185    43.00000

 Normal termination of Gaussian 16 at Tue Dec  8 21:10:48 2020.
